<LesHouchesEvents version="3.0">
<!--
file generated with POWHEG-BOX-V2
Input file powheg.input contained:
! ggHH production parameters:
mtdep 0              ! 0: Higgs effective field theory (HEFT)

hmass 125            ! Higgs boson mass
topmass 173          ! top quark mass (THIS VALUE IS HARD CODED IN THE VIRTUAL
hdecaymode -1        ! PDG code for Higgs boson decay products (it affects only the SMC)
!                      allowed values are:
!                      0 all decay channels open
!                      1-6 d dbar, u ubar,..., t tbar (as in HERWIG)
!                      7-9 e+ e-, mu+ mu-, tau+ tau-
!                      10  W+W-
!                      11  ZZ
!                      12  gamma gamma
!                      -1  all decay channels closed

! general parameters:
numevts  3000        ! number of events to be generated
ih1         1        ! hadron 1 (1 for protons, -1 for antiprotons)
ih2         1        ! hadron 2 (1 for protons, -1 for antiprotons)
ebeam1 7000d0        ! energy of beam 1
ebeam2 7000d0        ! energy of beam 2
! To be set only if using LHA pdfs
lhans1 90200         ! pdf set for hadron 1 (LHA numbering)
lhans2 90200 	     ! pdf set for hadron 2 (LHA numbering)
! To be set only if using internal mlm pdf
# ndns1 131          ! pdf set for hadron 1 (mlm numbering)
# ndns2 131          ! pdf set for hadron 2 (mlm numbering)
! To be set only if using different pdf sets for the two incoming hadrons
! QCDLambda5 0.25    ! for not equal pdf sets

! Parameters to allow or not the use of stored data
use-old-grid    1    ! if 1 use old grid if file pwggrids.dat is present (<> 1 regenerate)
use-old-ubound  1    ! if 1 use norm of upper bounding function stored in pwgubound.dat, if present;
!
ncall1  10000        ! number of calls for initializing the integration grid
itmx1       3        ! number of iterations for initializing the integration grid
ncall2  10000        ! number of calls for computing the integral and finding upper bound
itmx2       3        ! number of iterations for computing the integral and finding upper bound
foldcsi     1        ! number of folds on csi integration
foldy       1        ! number of folds on  y  integration
foldphi     1        ! number of folds on phi integration
nubound 10000        ! number of bbarra calls to setup norm of upper bounding function
# icsimax   1        ! <= 100, number of csi subdivision when computing the upper bounds
# iymax     1        ! <= 100, number of y subdivision when computing the upper bounds
# xupbound 2d0       ! increase upper bound for radiation generation

! OPTIONAL PARAMETERS

! scale settings:
#fixedscale   1      ! (dafault 0) Use muren = mufac = 2*m_H
facscfact   1d0      ! (default 1d0) fac scale factor: mufact = muref * facscfact
renscfact   1d0      ! (default 1d0) ren scale factor: muren  = muref * renscfact

! Born, plots and powheg strategy:
#bornonly         1  ! (default 0) if 1 do Born only
# testplots 1
fastbtlbound      1  ! fast evaluation of Btilde upper bounds
storemintupb      1  ! store function calls in binary file for more precise generation
ubexcess_correct  1  ! corrects for error in upper bound estimate
storeinfo_rwgt    1  ! store info to allow for reweighting
softtest          0  ! no check of the soft limit in the real
colltest          0  ! no check of the collinear limit in the real

! PARAMETERS needed for ggHH
hdamp           250

! PARAMETERS for parallel runnning
! -- non parallel (for testing purposes only)
#iseed    547        !  Start the random number generator with seed iseed
#rand1     0         !  skipping  rand2*100000000+rand1 numbers.
#rand2     0         !  (see RM48 short writeup in CERNLIB)

! -- parallel
manyseeds 1          ! Used to perform multiple runs with different random
                     ! seeds in the same directory.
                     ! If set to 1, the program asks for an integer j;
                     ! The file pwgseeds.dat at line j is read, and the
                     ! integer at line j is used to initialize the random
                     ! sequence for the generation of the event.
                     ! The event file is called pwgevents-'j'.lhe
parallelstage 4
xgriditeration 1
maxseeds    1000

! PARAMETERS for reweighting
#rwl_file 'reweight_setup.xml'


! PARAMETERS for Pythia8
#py8tune  xxx
#py8hepmc 1
#py8nohad 1
#py8nompi 1
End of powheg.input content
PDF package: lha
 Random number generator initialized with:            6             0             0
-->
<init>
     2212     2212  7.00000E+03  7.00000E+03     -1     -1     -1     -1     -4      1
  3.19670E-02  5.76697E-06  1.00000E+00   9999
</init>
<event>
      5   9999  3.19816E-02  9.38158E+00 -1.00000E+00  1.99018E-01
       1    -1     0     0   502     0  0.000000000E+00  0.000000000E+00  1.907684685E+03  1.907684685E+03  0.000000000E+00  0.00000E+00  9.000E+00
      21    -1     0     0   501   502  0.000000000E+00  0.000000000E+00 -1.326241353E+02  1.326241353E+02  0.000000000E+00  0.00000E+00  9.000E+00
      25     1     1     2     0     0 -5.323375365E+01  2.626841942E+02  4.975833797E+02  5.788359337E+02  1.250000000E+02  0.00000E+00  9.000E+00
      25     1     1     2     0     0  4.433360180E+01 -2.597174836E+02  1.391722655E+02  3.231293224E+02  1.250000000E+02  0.00000E+00  9.000E+00
       1     1     1     2   501     0  8.900151857E+00 -2.966710617E+00  1.138304905E+03  1.138343564E+03  2.642899792E-05  0.00000E+00  9.000E+00
#rwgt            1           1   2.8333967198764715E-002           6          61           0
</event>
<event>
      5   9999  3.19816E-02  3.38488E+02 -1.00000E+00  1.03916E-01
      21    -1     0     0   502   501  0.000000000E+00  0.000000000E+00  1.081331186E+03  1.081331186E+03  0.000000000E+00  0.00000E+00  9.000E+00
      -1    -1     0     0     0   502  0.000000000E+00  0.000000000E+00 -7.374536044E+02  7.374536044E+02  0.000000000E+00  0.00000E+00  9.000E+00
      25     1     1     2     0     0  1.506993571E+02  1.892487808E+02  8.373273115E+02  8.804927165E+02  1.250000000E+02  0.00000E+00  9.000E+00
      25     1     1     2     0     0 -3.720165546E+02  6.686205845E+01 -8.369974261E+01  4.068138379E+02  1.250000000E+02  0.00000E+00  9.000E+00
      -1     1     1     2     0   501  2.213171975E+02 -2.561108392E+02 -4.097499870E+02  5.314782363E+02  0.000000000E+00  0.00000E+00  9.000E+00
#rwgt            1           1   2.7646842095196709E-002           6         377           0
</event>
<event>
      5   9999  3.19816E-02  2.30941E+02 -1.00000E+00  1.09420E-01
      21    -1     0     0   502   501  0.000000000E+00  0.000000000E+00  3.477112377E+02  3.477112377E+02  0.000000000E+00  0.00000E+00  9.000E+00
      21    -1     0     0   511   502  0.000000000E+00  0.000000000E+00 -7.580803737E+02  7.580803737E+02  0.000000000E+00  0.00000E+00  9.000E+00
      25     1     1     2     0     0  1.280225052E+02  3.280869635E+01 -3.483872110E+02  3.930201282E+02  1.250000000E+02  0.00000E+00  9.000E+00
      25     1     1     2     0     0 -5.213748636E+01 -2.509259543E+02  2.113559994E+02  3.549345158E+02  1.250000000E+02  0.00000E+00  9.000E+00
      21     1     1     2   511   501 -7.588501887E+01  2.181172579E+02 -2.733379245E+02  3.578369674E+02  0.000000000E+00  0.00000E+00  9.000E+00
#rwgt            1           1   2.7372615540947196E-002           6         440           0
</event>
<event>
      5   9999  3.19816E-02  7.97278E+01 -1.00000E+00  1.28421E-01
      21    -1     0     0   512   501  0.000000000E+00  0.000000000E+00  7.447894375E+02  7.447894375E+02  0.000000000E+00  0.00000E+00  9.000E+00
      21    -1     0     0   501   502  0.000000000E+00  0.000000000E+00 -6.606201875E+02  6.606201875E+02  0.000000000E+00  0.00000E+00  9.000E+00
      25     1     1     2     0     0 -6.717202177E+01 -4.779083352E+02  4.194193708E+02  6.514952540E+02  1.250000000E+02  0.00000E+00  9.000E+00
      25     1     1     2     0     0  1.186699706E+02  4.170438579E+02 -4.346156143E+02  6.265172572E+02  1.250000000E+02  0.00000E+00  9.000E+00
      21     1     1     2   512   502 -5.149794884E+01  6.086447727E+01  9.936549345E+01  1.273971138E+02  2.336015456E-06  0.00000E+00  9.000E+00
#rwgt            1           1   3.0483575440655032E-002           6         524           0
</event>
<event>
      5   9999  3.19816E-02  6.32564E+01 -1.00000E+00  1.33488E-01
      21    -1     0     0   502   501  0.000000000E+00  0.000000000E+00  2.046622717E+02  2.046622717E+02  0.000000000E+00  0.00000E+00  9.000E+00
      21    -1     0     0   511   502  0.000000000E+00  0.000000000E+00 -2.394636731E+03  2.394636731E+03  0.000000000E+00  0.00000E+00  9.000E+00
      25     1     1     2     0     0  1.893085301E+02 -1.673546098E+02 -8.035452142E+01  2.931333043E+02  1.250000000E+02  0.00000E+00  9.000E+00
      25     1     1     2     0     0 -2.004577079E+02  1.050885445E+02 -7.313934311E+01  2.687029184E+02  1.250000000E+02  0.00000E+00  9.000E+00
      21     1     1     2   511   501  1.114917772E+01  6.226606526E+01 -2.036480595E+03  2.037462780E+03  3.051757812E-05  0.00000E+00  9.000E+00
#rwgt            1           1   2.7616461768410084E-002           6         624           0
</event>
<event>
      5   9999  3.19816E-02  4.79121E+01 -1.00000E+00  1.40141E-01
      21    -1     0     0   502   512  0.000000000E+00  0.000000000E+00  1.948298344E+02  1.948298344E+02  0.000000000E+00  0.00000E+00  9.000E+00
      21    -1     0     0   501   502  0.000000000E+00  0.000000000E+00 -1.709670837E+02  1.709670837E+02  0.000000000E+00  0.00000E+00  9.000E+00
      25     1     1     2     0     0 -5.629790241E+01  3.641567527E+01  2.757437162E+01  1.445022532E+02  1.250000000E+02  0.00000E+00  9.000E+00
      25     1     1     2     0     0  7.521652345E+01 -8.043449709E+01 -2.573006733E+01  1.685653288E+02  1.250000000E+02  0.00000E+00  9.000E+00
      21     1     1     2   501   512 -1.891862105E+01  4.401882182E+01  2.201844646E+01  5.272933606E+01  1.066240300E-06  0.00000E+00  9.000E+00
#rwgt            1           1   7.1496891380044655E-002           6         726           0
</event>
<event>
      5   9999  3.19816E-02  3.24534E+02 -1.00000E+00  1.04495E-01
      21    -1     0     0   502   501  0.000000000E+00  0.000000000E+00  2.194319463E+03  2.194319463E+03  0.000000000E+00  0.00000E+00  9.000E+00
      21    -1     0     0   501   511  0.000000000E+00  0.000000000E+00 -1.659285493E+03  1.659285493E+03  0.000000000E+00  0.00000E+00  9.000E+00
      25     1     1     2     0     0  4.048690859E+02  2.298407624E+02  1.811168304E+03  1.874220205E+03  1.250000000E+02  0.00000E+00  9.000E+00
      25     1     1     2     0     0 -4.605485336E+02 -5.495622899E+02 -7.097147567E+01  7.312903751E+02  1.250000000E+02  0.00000E+00  9.000E+00
      21     1     1     2   502   511  5.567944774E+01  3.197215275E+02 -1.205162858E+03  1.248094376E+03  2.157918644E-05  0.00000E+00  9.000E+00
#rwgt            1           1   3.5000935860401185E-002           6         778           0
</event>
<event>
      5   9999  3.19816E-02  1.18364E+01 -1.00000E+00  1.87657E-01
      21    -1     0     0   502   512  0.000000000E+00  0.000000000E+00  8.376901262E+01  8.376901262E+01  0.000000000E+00  0.00000E+00  9.000E+00
      21    -1     0     0   501   502  0.000000000E+00  0.000000000E+00 -1.527945240E+03  1.527945240E+03  0.000000000E+00  0.00000E+00  9.000E+00
      25     1     1     2     0     0  3.175850487E+02 -5.964986136E+01 -7.845684947E+02  8.576660725E+02  1.250000000E+02  0.00000E+00  9.000E+00
      25     1     1     2     0     0 -3.058727469E+02  6.135930135E+01 -6.615799494E+02  7.420486040E+02  1.250000000E+02  0.00000E+00  9.000E+00
      21     1     1     2   501   512 -1.171230173E+01 -1.709439989E+00  1.972216421E+00  1.199957643E+01  3.264680848E-07  0.00000E+00  9.000E+00
#rwgt            1           1   2.8806768282828563E-002           6         840           0
</event>
<event>
      5   9999  3.19816E-02  5.85001E+01 -1.00000E+00  1.35294E-01
      21    -1     0     0   511   501  0.000000000E+00  0.000000000E+00  7.677102666E+02  7.677102666E+02  0.000000000E+00  0.00000E+00  9.000E+00
      21    -1     0     0   501   502  0.000000000E+00  0.000000000E+00 -7.367333094E+02  7.367333094E+02  0.000000000E+00  0.00000E+00  9.000E+00
      25     1     1     2     0     0  1.634735729E+02 -1.537608365E+02 -4.057320376E+02  4.802181694E+02  1.250000000E+02  0.00000E+00  9.000E+00
      25     1     1     2     0     0 -2.211130150E+02  1.437631050E+02 -2.196399606E+02  3.652745653E+02  1.250000000E+02  0.00000E+00  9.000E+00
      21     1     1     2   511   502  5.763944212E+01  9.997731458E+00  6.563489554E+02  6.589508413E+02  7.629394531E-06  0.00000E+00  9.000E+00
#rwgt            1           1   2.6750301151392649E-002           6        1149           0
</event>
<event>
      5   9999  3.19816E-02  8.95094E+00 -1.00000E+00  2.01491E-01
      21    -1     0     0   502   512  0.000000000E+00  0.000000000E+00  4.629918185E+02  4.629918185E+02  0.000000000E+00  0.00000E+00  9.000E+00
      21    -1     0     0   501   502  0.000000000E+00  0.000000000E+00 -5.783183947E+02  5.783183947E+02  0.000000000E+00  0.00000E+00  9.000E+00
      25     1     1     2     0     0  1.954680946E+01 -4.316220315E+02  1.777052911E+02  4.836153702E+02  1.250000000E+02  0.00000E+00  9.000E+00
      25     1     1     2     0     0 -1.272548822E+01  4.258264307E+02 -3.079325070E+02  5.403124244E+02  1.250000000E+02  0.00000E+00  9.000E+00
      21     1     1     2   501   512 -6.821321236E+00  5.795600866E+00  1.490063968E+01  1.738241858E+01  1.685873940E-07  0.00000E+00  9.000E+00
#rwgt            1           1   3.1070733899029965E-002           6        1196           0
</event>
<event>
      5   9999  3.19816E-02  7.69703E+01 -1.00000E+00  1.29166E-01
      21    -1     0     0   502   501  0.000000000E+00  0.000000000E+00  1.120084304E+02  1.120084304E+02  0.000000000E+00  0.00000E+00  9.000E+00
      21    -1     0     0   501   511  0.000000000E+00  0.000000000E+00 -2.275905275E+03  2.275905275E+03  0.000000000E+00  0.00000E+00  9.000E+00
      25     1     1     2     0     0  1.289553005E+02 -2.668656027E+02 -5.988884831E+02  6.798081601E+02  1.250000000E+02  0.00000E+00  9.000E+00
      25     1     1     2     0     0 -1.867616917E+02  3.176872868E+02 -4.690917418E+02  6.094892976E+02  1.250000000E+02  0.00000E+00  9.000E+00
      21     1     1     2   502   511  5.780639121E+01 -5.082168406E+01 -1.095916619E+03  1.098616247E+03  0.000000000E+00  0.00000E+00  9.000E+00
#rwgt            1           1   2.7049567929161956E-002           6        1522           0
</event>
<event>
      5   9999  3.19816E-02  7.54003E+01 -1.00000E+00  1.29607E-01
      21    -1     0     0   502   501  0.000000000E+00  0.000000000E+00  1.151101210E+03  1.151101210E+03  0.000000000E+00  0.00000E+00  9.000E+00
      21    -1     0     0   512   502  0.000000000E+00  0.000000000E+00 -3.533079814E+02  3.533079814E+02  0.000000000E+00  0.00000E+00  9.000E+00
      25     1     1     2     0     0  4.582511799E+01  6.031563461E+02  4.709202459E+02  7.767164202E+02  1.250000000E+02  0.00000E+00  9.000E+00
      25     1     1     2     0     0 -1.007551339E+02 -5.515046849E+02  2.811830587E+02  6.395294575E+02  1.250000000E+02  0.00000E+00  9.000E+00
      21     1     1     2   512   501  5.493001596E+01 -5.165166126E+01  4.568992422E+01  8.816331402E+01  1.907348633E-06  0.00000E+00  9.000E+00
#rwgt            1           1   2.4489075822515523E-002           6        1662           0
</event>
<event>
      5   9999  3.19816E-02  1.29819E+02 -1.00000E+00  1.18936E-01
      21    -1     0     0   502   511  0.000000000E+00  0.000000000E+00  1.757104706E+03  1.757104706E+03  0.000000000E+00  0.00000E+00  9.000E+00
      21    -1     0     0   501   502  0.000000000E+00  0.000000000E+00 -7.550062930E+01  7.550062930E+01  0.000000000E+00  0.00000E+00  9.000E+00
      25     1     1     2     0     0  1.528970817E+02  1.222730238E+02  2.444838270E+02  3.372321924E+02  1.250000000E+02  0.00000E+00  9.000E+00
      25     1     1     2     0     0 -2.507698034E+02 -3.698635191E+01  9.387527643E+02  9.803750492E+02  1.250000000E+02  0.00000E+00  9.000E+00
      21     1     1     2   501   511  9.787272173E+01 -8.528667187E+01  4.983674851E+02  5.149980934E+02  7.629394531E-06  0.00000E+00  9.000E+00
#rwgt            1           1   2.5141904801123657E-002           6        1809           0
</event>
<event>
      5   9999  3.19816E-02  9.48758E+00 -1.00000E+00  1.98436E-01
      21    -1     0     0   502   512  0.000000000E+00  0.000000000E+00  6.904941998E+02  6.904941998E+02  0.000000000E+00  0.00000E+00  9.000E+00
      21    -1     0     0   501   502  0.000000000E+00  0.000000000E+00 -6.899465721E+02  6.899465721E+02  0.000000000E+00  0.00000E+00  9.000E+00
      25     1     1     2     0     0  4.168929180E+02  1.460443586E+02 -8.411606456E+01  4.667217287E+02  1.250000000E+02  0.00000E+00  9.000E+00
      25     1     1     2     0     0 -4.079822867E+02 -1.493023861E+02 -2.911978376E+02  5.377377887E+02  1.250000000E+02  0.00000E+00  9.000E+00
      21     1     1     2   501   512 -8.910631255E+00  3.258027481E+00  3.758615298E+02  3.759812545E+02  0.000000000E+00  0.00000E+00  9.000E+00
#rwgt            1           1   2.8302598067860969E-002           6        1849           0
</event>
<event>
      5   9999  3.19816E-02  6.31889E+01 -1.00000E+00  1.33513E-01
      21    -1     0     0   502   501  0.000000000E+00  0.000000000E+00  5.447418046E+01  5.447418046E+01  0.000000000E+00  0.00000E+00  9.000E+00
      21    -1     0     0   501   511  0.000000000E+00  0.000000000E+00 -1.165776578E+03  1.165776578E+03  0.000000000E+00  0.00000E+00  9.000E+00
      25     1     1     2     0     0  1.017753563E+02 -9.571388090E+01 -5.036088790E+02  5.373697732E+02  1.250000000E+02  0.00000E+00  9.000E+00
      25     1     1     2     0     0 -1.223808049E+02  1.554486897E+02 -3.773394116E+02  4.440173286E+02  1.250000000E+02  0.00000E+00  9.000E+00
      21     1     1     2   502   511  2.060544865E+01 -5.973480878E+01 -2.303541068E+02  2.388636565E+02  0.000000000E+00  0.00000E+00  9.000E+00
#rwgt            1           1   3.5029719679555385E-002           6        2116           0
</event>
<event>
      5   9999  3.19816E-02  3.42946E+02 -1.00000E+00  1.03738E-01
      21    -1     0     0   502   501  0.000000000E+00  0.000000000E+00  2.509884727E+02  2.509884727E+02  0.000000000E+00  0.00000E+00  9.000E+00
      21    -1     0     0   501   512  0.000000000E+00  0.000000000E+00 -1.696680143E+03  1.696680143E+03  0.000000000E+00  0.00000E+00  9.000E+00
      25     1     1     2     0     0  4.969696806E+02  3.064314262E+02 -5.726803250E+02  8.273251097E+02  1.250000000E+02  0.00000E+00  9.000E+00
      25     1     1     2     0     0 -1.548587198E+02 -2.825156762E+02 -3.282528738E+02  4.766248835E+02  1.250000000E+02  0.00000E+00  9.000E+00
      21     1     1     2   502   512 -3.421109608E+02 -2.391575006E+01 -5.447584714E+02  6.437186223E+02  7.629394531E-06  0.00000E+00  9.000E+00
#rwgt            1           1   2.9971577965442503E-002           6        2198           0
</event>
<event>
      5   9999  3.19816E-02  5.48308E+01 -1.00000E+00  1.36828E-01
      21    -1     0     0   511   501  0.000000000E+00  0.000000000E+00  1.425163300E+02  1.425163300E+02  0.000000000E+00  0.00000E+00  9.000E+00
      21    -1     0     0   501   502  0.000000000E+00  0.000000000E+00 -1.293455575E+03  1.293455575E+03  0.000000000E+00  0.00000E+00  9.000E+00
      25     1     1     2     0     0  1.610909666E+02 -2.084490235E+02 -7.236813865E+02  7.802185873E+02  1.250000000E+02  0.00000E+00  9.000E+00
      25     1     1     2     0     0 -2.059114249E+02  1.768650884E+02 -4.890585411E+02  5.731352642E+02  1.250000000E+02  0.00000E+00  9.000E+00
      21     1     1     2   511   502  4.482045829E+01  3.158393509E+01  6.180068251E+01  8.261805369E+01  3.303624740E-06  0.00000E+00  9.000E+00
#rwgt            2          11   2.7529064310569651E-003           6        2228           0
</event>
<event>
      5   9999  3.19816E-02  1.33449E+01 -1.00000E+00  1.82305E-01
      21    -1     0     0   512   501  0.000000000E+00  0.000000000E+00  7.869687435E+02  7.869687435E+02  0.000000000E+00  0.00000E+00  9.000E+00
      21    -1     0     0   501   502  0.000000000E+00  0.000000000E+00 -1.106577425E+02  1.106577425E+02  0.000000000E+00  0.00000E+00  9.000E+00
      25     1     1     2     0     0 -1.113681230E+02  1.968597574E+02  1.414413389E+02  2.945968011E+02  1.250000000E+02  0.00000E+00  9.000E+00
      25     1     1     2     0     0  1.052904281E+02 -2.087403533E+02  5.113286212E+02  5.759692424E+02  1.250000000E+02  0.00000E+00  9.000E+00
      21     1     1     2   512   502  6.077694913E+00  1.188059595E+01  2.354104099E+01  2.706044247E+01  4.768371582E-07  0.00000E+00  9.000E+00
#rwgt            1           1   2.8787100494742712E-002           6        2248           0
</event>
<event>
      5   9999  3.19816E-02  3.42909E+01 -1.00000E+00  1.49114E-01
      21    -1     0     0   511   501  0.000000000E+00  0.000000000E+00  6.992663416E+02  6.992663416E+02  0.000000000E+00  0.00000E+00  9.000E+00
      21    -1     0     0   501   502  0.000000000E+00  0.000000000E+00 -1.038234393E+03  1.038234393E+03  0.000000000E+00  0.00000E+00  9.000E+00
      25     1     1     2     0     0 -4.210913201E+02 -6.674216718E+02 -3.375601978E+02  8.673762015E+02  1.250000000E+02  0.00000E+00  9.000E+00
      25     1     1     2     0     0  4.361801629E+02  6.366289696E+02 -7.854157469E+01  7.857120073E+02  1.250000000E+02  0.00000E+00  9.000E+00
      21     1     1     2   511   502 -1.508884277E+01  3.079270213E+01  7.713372078E+01  8.441252609E+01  1.651812370E-06  0.00000E+00  9.000E+00
#rwgt            1           1   3.1924574815794214E-002           6        2536           0
</event>
<event>
      5   9999  3.19816E-02  1.31758E+02 -1.00000E+00  1.18670E-01
      21    -1     0     0   512   501  0.000000000E+00  0.000000000E+00  4.139918965E+02  4.139918965E+02  0.000000000E+00  0.00000E+00  9.000E+00
      21    -1     0     0   501   502  0.000000000E+00  0.000000000E+00 -3.638633192E+02  3.638633192E+02  0.000000000E+00  0.00000E+00  9.000E+00
      25     1     1     2     0     0 -1.774347956E+02 -1.256218096E+02 -1.027715163E+02  2.710183210E+02  1.250000000E+02  0.00000E+00  9.000E+00
      25     1     1     2     0     0  2.991061493E+02  7.506291342E+01  4.350413708E+01  3.355838784E+02  1.250000000E+02  0.00000E+00  9.000E+00
      21     1     1     2   512   502 -1.216713537E+02  5.055889615E+01  1.093959565E+02  1.712530163E+02  4.046097457E-06  0.00000E+00  9.000E+00
#rwgt            1           1   3.1560524282673669E-002           6        2703           0
</event>
<event>
      5   9999  3.19816E-02  1.61721E+02 -1.00000E+00  1.15113E-01
      21    -1     0     0   502   511  0.000000000E+00  0.000000000E+00  7.470745042E+02  7.470745042E+02  0.000000000E+00  0.00000E+00  9.000E+00
      21    -1     0     0   501   502  0.000000000E+00  0.000000000E+00 -6.020014462E+02  6.020014462E+02  0.000000000E+00  0.00000E+00  9.000E+00
      25     1     1     2     0     0 -2.775170703E+02  3.122533211E+02 -1.281286053E+02  4.544885041E+02  1.250000000E+02  0.00000E+00  9.000E+00
      25     1     1     2     0     0  4.272068113E+02 -2.510441272E+02 -6.941119667E+01  5.157244687E+02  1.250000000E+02  0.00000E+00  9.000E+00
      21     1     1     2   501   511 -1.496897410E+02 -6.120919398E+01  3.426128599E+02  3.788629776E+02  0.000000000E+00  0.00000E+00  9.000E+00
#rwgt            2          11   2.9999250220939392E-003           6        2797           0
</event>
<event>
      5   9999  3.19816E-02  3.86708E+02 -1.00000E+00  1.02129E-01
       2    -1     0     0   502     0  0.000000000E+00  0.000000000E+00  2.168995725E+03  2.168995725E+03  0.000000000E+00  0.00000E+00  9.000E+00
      21    -1     0     0   501   502  0.000000000E+00  0.000000000E+00 -1.562058907E+02  1.562058907E+02  0.000000000E+00  0.00000E+00  9.000E+00
      25     1     1     2     0     0  2.008085782E+02 -1.000947275E+02  4.708266718E+01  2.611222264E+02  1.250000000E+02  0.00000E+00  9.000E+00
      25     1     1     2     0     0  4.240921230E+01 -2.005513547E+02  6.601558331E+02  7.024600424E+02  1.250000000E+02  0.00000E+00  9.000E+00
       2     1     1     2   501     0 -2.432177905E+02  3.006460823E+02  1.305551334E+03  1.361619347E+03  2.157918644E-05  0.00000E+00  9.000E+00
#rwgt            2          18   1.7947266472902045E-003           6        2862           0
</event>
<event>
      5   9999  3.19816E-02  3.04016E+01 -1.00000E+00  1.52640E-01
      21    -1     0     0   502   501  0.000000000E+00  0.000000000E+00  7.769847102E+02  7.769847102E+02  0.000000000E+00  0.00000E+00  9.000E+00
      21    -1     0     0   511   502  0.000000000E+00  0.000000000E+00 -1.308466119E+02  1.308466119E+02  0.000000000E+00  0.00000E+00  9.000E+00
      25     1     1     2     0     0 -2.917537322E+01 -1.987286404E+02  1.569577019E+02  2.839101885E+02  1.250000000E+02  0.00000E+00  9.000E+00
      25     1     1     2     0     0  4.851812320E+00  1.804907536E+02  5.296112626E+02  5.733354531E+02  1.250000000E+02  0.00000E+00  9.000E+00
      21     1     1     2   511   501  2.432356090E+01  1.823788686E+01 -4.043086621E+01  5.058568053E+01  4.768371582E-07  0.00000E+00  9.000E+00
#rwgt            1           1   3.3746977220106146E-002           6        2881           0
</event>
<event>
      5   9999  3.19816E-02  1.96416E+02 -1.00000E+00  1.11935E-01
      21    -1     0     0   502   512  0.000000000E+00  0.000000000E+00  1.611672000E+03  1.611672000E+03  0.000000000E+00  0.00000E+00  9.000E+00
      21    -1     0     0   501   502  0.000000000E+00  0.000000000E+00 -7.679619675E+02  7.679619675E+02  0.000000000E+00  0.00000E+00  9.000E+00
      25     1     1     2     0     0  2.027409786E+02 -3.255211117E+02 -3.979597979E+02  5.666258901E+02  1.250000000E+02  0.00000E+00  9.000E+00
      25     1     1     2     0     0 -4.852088661E+01  2.038846673E+02 -2.257912741E+02  3.324604238E+02  1.250000000E+02  0.00000E+00  9.000E+00
      21     1     1     2   501   512 -1.542200920E+02  1.216364445E+02  1.467461104E+03  1.480547653E+03  2.157918644E-05  0.00000E+00  9.000E+00
#rwgt            1           1   2.8467795427754343E-002           6        3005           0
</event>
<event>
      5   9999  3.19816E-02  1.76910E+01 -1.00000E+00  1.70888E-01
      21    -1     0     0   502   511  0.000000000E+00  0.000000000E+00  2.058449198E+01  2.058449198E+01  0.000000000E+00  0.00000E+00  9.000E+00
      21    -1     0     0   501   502  0.000000000E+00  0.000000000E+00 -2.749627422E+03  2.749627422E+03  0.000000000E+00  0.00000E+00  9.000E+00
      25     1     1     2     0     0 -1.219743185E+01  8.183462063E+01 -6.658733002E+02  6.825378630E+02  1.250000000E+02  0.00000E+00  9.000E+00
      25     1     1     2     0     0  1.013539229E+00 -9.554205075E+01 -2.063976547E+03  2.069964612E+03  1.250000000E+02  0.00000E+00  9.000E+00
      21     1     1     2   501   511  1.118389262E+01  1.370743012E+01  8.069171711E-01  1.770943844E+01  7.201285821E-07  0.00000E+00  9.000E+00
#rwgt            1           1   3.6670101860705656E-002           6        3073           0
</event>
<event>
      5   9999  3.19816E-02  1.28020E+03 -1.00000E+00  8.84879E-02
      21    -1     0     0   502   501  0.000000000E+00  0.000000000E+00  6.768233795E+02  6.768233795E+02  0.000000000E+00  0.00000E+00  9.000E+00
       2    -1     0     0   501     0  0.000000000E+00  0.000000000E+00 -2.623067548E+03  2.623067548E+03  0.000000000E+00  0.00000E+00  9.000E+00
      25     1     1     2     0     0 -6.916616898E+02 -7.712585440E+01 -7.876502850E+02  1.058471663E+03  1.250000000E+02  0.00000E+00  9.000E+00
      25     1     1     2     0     0 -5.821123806E+02  2.052799487E+02 -2.831141262E+02  6.904877185E+02  1.250000000E+02  0.00000E+00  9.000E+00
       2     1     1     2   502     0  1.273774070E+03 -1.281540943E+02 -8.754797577E+02  1.550931546E+03  1.868812365E-05  0.00000E+00  9.000E+00
#rwgt            2          13   3.6479892115523532E-003           6        3464           0
</event>
<event>
      5   9999  3.19816E-02  1.23689E+02 -1.00000E+00  1.19813E-01
      21    -1     0     0   502   501  0.000000000E+00  0.000000000E+00  3.354845754E+02  3.354845754E+02  0.000000000E+00  0.00000E+00  9.000E+00
      21    -1     0     0   501   511  0.000000000E+00  0.000000000E+00 -5.578300699E+02  5.578300699E+02  0.000000000E+00  0.00000E+00  9.000E+00
      25     1     1     2     0     0  1.089110235E+02 -1.501989362E+02  2.143419878E+02  3.098206242E+02  1.250000000E+02  0.00000E+00  9.000E+00
      25     1     1     2     0     0  5.768531457E+00  1.965394693E+02 -3.837715028E+02  4.489616969E+02  1.250000000E+02  0.00000E+00  9.000E+00
      21     1     1     2   502   511 -1.146795550E+02 -4.634053308E+01 -5.291597952E+01  1.345323241E+02  1.651812370E-06  0.00000E+00  9.000E+00
#rwgt            1           1   2.7292273908765149E-002           6        3483           0
</event>
<event>
      5   9999  3.19816E-02  5.88707E+01 -1.00000E+00  1.35146E-01
      21    -1     0     0   502   501  0.000000000E+00  0.000000000E+00  4.304930786E+02  4.304930786E+02  0.000000000E+00  0.00000E+00  9.000E+00
      21    -1     0     0   501   512  0.000000000E+00  0.000000000E+00 -1.133817788E+02  1.133817788E+02  0.000000000E+00  0.00000E+00  9.000E+00
      25     1     1     2     0     0 -7.336553543E+01 -8.794886314E+01  1.318114234E+02  2.147481214E+02  1.250000000E+02  0.00000E+00  9.000E+00
      25     1     1     2     0     0  1.274266755E+02  1.112545854E+02  1.632843944E+02  2.662741704E+02  1.250000000E+02  0.00000E+00  9.000E+00
      21     1     1     2   502   512 -5.406114008E+01 -2.330572222E+01  2.201548203E+01  6.285256561E+01  2.384185791E-07  0.00000E+00  9.000E+00
#rwgt            1           1   3.1727158990193328E-002           6        3537           0
</event>
<event>
      5   9999  5.51846E-02  2.38402E+02 -1.00000E+00  1.08940E-01
      21    -1     0     0   502   501  0.000000000E+00  0.000000000E+00  9.084146338E+02  9.084146338E+02  0.000000000E+00  0.00000E+00  9.000E+00
      21    -1     0     0   501   511  0.000000000E+00  0.000000000E+00 -9.613017617E+02  9.613017617E+02  0.000000000E+00  0.00000E+00  9.000E+00
      25     1     1     2     0     0 -1.711376150E+02 -9.838835208E+01  7.421391516E+02  7.780513296E+02  1.250000000E+02  0.00000E+00  9.000E+00
      25     1     1     2     0     0 -2.086516698E+01 -4.292920489E+01  9.896939841E+01  1.664278031E+02  1.250000000E+02  0.00000E+00  9.000E+00
      21     1     1     2   502   511  1.920027820E+02  1.413175570E+02 -8.939956779E+02  9.252372627E+02  1.078959322E-05  0.00000E+00  9.000E+00
#rwgt            2          11  0.11209455031259638                6        3775           0
</event>
<event>
      5   9999  3.19816E-02  7.14125E+01 -1.00000E+00  1.30783E-01
       1    -1     0     0   502     0  0.000000000E+00  0.000000000E+00  2.020424158E+03  2.020424158E+03  0.000000000E+00  0.00000E+00  9.000E+00
      21    -1     0     0   501   502  0.000000000E+00  0.000000000E+00 -2.586460927E+02  2.586460927E+02  0.000000000E+00  0.00000E+00  9.000E+00
      25     1     1     2     0     0 -1.227315869E+02  5.452661826E+01  4.864713987E+02  5.199188554E+02  1.250000000E+02  0.00000E+00  9.000E+00
      25     1     1     2     0     0  1.540307165E+02  9.661477275E+00 -2.001519399E+02  2.819656093E+02  1.250000000E+02  0.00000E+00  9.000E+00
       1     1     1     2   501     0 -3.129912962E+01 -6.418809553E+01  1.475458606E+03  1.477185786E+03  2.157918644E-05  0.00000E+00  9.000E+00
#rwgt            1           1   2.7585348333388018E-002           6        3825           0
</event>
<event>
      5   9999  3.19816E-02  3.03047E+01 -1.00000E+00  1.52736E-01
      21    -1     0     0   502   501  0.000000000E+00  0.000000000E+00  3.787834781E+02  3.787834781E+02  0.000000000E+00  0.00000E+00  9.000E+00
      21    -1     0     0   501   511  0.000000000E+00  0.000000000E+00 -8.747512734E+02  8.747512734E+02  0.000000000E+00  0.00000E+00  9.000E+00
      25     1     1     2     0     0 -3.974626785E+02  1.168555404E+02 -5.024383407E+02  6.630996036E+02  1.250000000E+02  0.00000E+00  9.000E+00
      25     1     1     2     0     0  4.176185649E+02 -9.422555865E+01  1.289522777E+02  4.642600689E+02  1.250000000E+02  0.00000E+00  9.000E+00
      21     1     1     2   502   511 -2.015588635E+01 -2.262998175E+01 -1.224817323E+02  1.261750790E+02  0.000000000E+00  0.00000E+00  9.000E+00
#rwgt            1           1   2.9157704971504220E-002           6        3929           0
</event>
<event>
      5   9999  3.19816E-02  1.93462E+01 -1.00000E+00  1.67569E-01
      21    -1     0     0   502   501  0.000000000E+00  0.000000000E+00  3.073313176E+02  3.073313176E+02  0.000000000E+00  0.00000E+00  9.000E+00
      21    -1     0     0   512   502  0.000000000E+00  0.000000000E+00 -5.356528726E+02  5.356528726E+02  0.000000000E+00  0.00000E+00  9.000E+00
      25     1     1     2     0     0 -1.982230966E+02  2.630068471E+02 -2.248655831E+02  4.179168914E+02  1.250000000E+02  0.00000E+00  9.000E+00
      25     1     1     2     0     0  2.150669259E+02 -2.725231363E+02  4.611736617E+01  3.718527315E+02  1.250000000E+02  0.00000E+00  9.000E+00
      21     1     1     2   512   501 -1.684382932E+01  9.516289240E+00 -4.957333798E+01  5.321456742E+01  6.743495762E-07  0.00000E+00  9.000E+00
#rwgt            1           1   2.8201244879858971E-002           6        4060           0
</event>
<event>
      5   9999  3.19816E-02  3.76184E+01 -1.00000E+00  1.46513E-01
      21    -1     0     0   502   501  0.000000000E+00  0.000000000E+00  7.220332890E+01  7.220332890E+01  0.000000000E+00  0.00000E+00  9.000E+00
      21    -1     0     0   501   511  0.000000000E+00  0.000000000E+00 -8.198352924E+02  8.198352924E+02  0.000000000E+00  0.00000E+00  9.000E+00
      25     1     1     2     0     0 -1.769361715E+02 -6.869883611E+01 -2.880077251E+02  3.668778932E+02  1.250000000E+02  0.00000E+00  9.000E+00
      25     1     1     2     0     0  1.458073832E+02  4.757676129E+01 -2.877059787E+02  3.491748436E+02  1.250000000E+02  0.00000E+00  9.000E+00
      21     1     1     2   502   511  3.112878830E+01  2.112207482E+01 -1.719182597E+02  1.759858845E+02  1.907348633E-06  0.00000E+00  9.000E+00
#rwgt            1           1   2.8910328601263836E-002           6        4140           0
</event>
<event>
      5   9999  3.19816E-02  5.29717E+01 -1.00000E+00  1.37660E-01
      21    -1     0     0   502   501  0.000000000E+00  0.000000000E+00  5.799464058E+02  5.799464058E+02  0.000000000E+00  0.00000E+00  9.000E+00
      21    -1     0     0   501   512  0.000000000E+00  0.000000000E+00 -7.171809629E+02  7.171809629E+02  0.000000000E+00  0.00000E+00  9.000E+00
      25     1     1     2     0     0  2.312095450E+02  3.515832103E+01  1.982007853E+02  3.310627018E+02  1.250000000E+02  0.00000E+00  9.000E+00
      25     1     1     2     0     0 -2.218365627E+02 -8.729423402E+01  2.564675882E+02  3.717961372E+02  1.250000000E+02  0.00000E+00  9.000E+00
      21     1     1     2   502   512 -9.372982245E+00  5.213591299E+01 -5.919029306E+02  5.942685297E+02  7.629394531E-06  0.00000E+00  9.000E+00
#rwgt            2          11   6.7411614288874731E-003           6        4322           0
</event>
<event>
      5   9999  3.19816E-02  2.22596E+02 -1.00000E+00  1.09981E-01
      21    -1     0     0   502   511  0.000000000E+00  0.000000000E+00  1.517822704E+03  1.517822704E+03  0.000000000E+00  0.00000E+00  9.000E+00
      21    -1     0     0   501   502  0.000000000E+00  0.000000000E+00 -2.383927644E+02  2.383927644E+02  0.000000000E+00  0.00000E+00  9.000E+00
      25     1     1     2     0     0 -2.237052268E+02  2.910910485E+02  3.792452559E+02  5.424297108E+02  1.250000000E+02  0.00000E+00  9.000E+00
      25     1     1     2     0     0  4.207862305E+02 -3.945712324E+02  6.213871452E+02  8.570265419E+02  1.250000000E+02  0.00000E+00  9.000E+00
      21     1     1     2   501   511 -1.970810037E+02  1.034801840E+02  2.787975381E+02  3.567592153E+02  3.814697266E-06  0.00000E+00  9.000E+00
#rwgt            2          11   4.4326470578056765E-003           6        4432           0
</event>
<event>
      5   9999  3.19816E-02  1.90699E+02 -1.00000E+00  1.12406E-01
      -2    -1     0     0     0   501  0.000000000E+00  0.000000000E+00  3.522636097E+02  3.522636097E+02  0.000000000E+00  0.00000E+00  9.000E+00
      21    -1     0     0   501   502  0.000000000E+00  0.000000000E+00 -4.044298552E+02  4.044298552E+02  0.000000000E+00  0.00000E+00  9.000E+00
      25     1     1     2     0     0  9.473010987E+01  1.687485399E+02  1.804992132E+02  2.926684633E+02  1.250000000E+02  0.00000E+00  9.000E+00
      25     1     1     2     0     0  6.712699508E+01 -6.790939480E+01 -2.232420876E+02  2.730929311E+02  1.250000000E+02  0.00000E+00  9.000E+00
      -2     1     1     2     0   502 -1.618571050E+02 -1.008391451E+02 -9.423371281E+00  1.909320705E+02  3.560348635E-06  0.00000E+00  9.000E+00
#rwgt            2           4   3.8452217838648287E-005           6        4512           0
</event>
<event>
      5   9999  3.19816E-02  1.60879E+02 -1.00000E+00  1.15201E-01
       1    -1     0     0   502     0  0.000000000E+00  0.000000000E+00  1.721444129E+03  1.721444129E+03  0.000000000E+00  0.00000E+00  9.000E+00
      21    -1     0     0   501   502  0.000000000E+00  0.000000000E+00 -1.122522907E+03  1.122522907E+03  0.000000000E+00  0.00000E+00  9.000E+00
      25     1     1     2     0     0  2.066676665E+02 -1.911006321E+02 -1.009453566E+03  1.055392097E+03  1.250000000E+02  0.00000E+00  9.000E+00
      25     1     1     2     0     0 -3.086069973E+02  6.664033643E+01  2.524148439E+02  4.231045576E+02  1.250000000E+02  0.00000E+00  9.000E+00
       1     1     1     2   501     0  1.019393309E+02  1.244602957E+02  1.355959944E+03  1.365470382E+03  0.000000000E+00  0.00000E+00  9.000E+00
#rwgt            2          17   3.3461994552855760E-003           6        4546           0
</event>
<event>
      5   9999  3.19816E-02  8.72175E+01 -1.00000E+00  1.26560E-01
      -2    -1     0     0     0   501  0.000000000E+00  0.000000000E+00  1.077253571E+03  1.077253571E+03  0.000000000E+00  0.00000E+00  9.000E+00
      21    -1     0     0   501   502  0.000000000E+00  0.000000000E+00 -5.541499676E+02  5.541499676E+02  0.000000000E+00  0.00000E+00  9.000E+00
      25     1     1     2     0     0  4.878794719E+02 -1.578598463E+02 -2.724771200E+02  5.939822313E+02  1.250000000E+02  0.00000E+00  9.000E+00
      25     1     1     2     0     0 -4.012964900E+02  1.473582805E+02  3.066007826E+02  5.407239366E+02  1.250000000E+02  0.00000E+00  9.000E+00
      -2     1     1     2     0   502 -8.658298183E+01  1.050156584E+01  4.889799408E+02  4.966973707E+02  9.344061824E-06  0.00000E+00  9.000E+00
#rwgt            1           1   2.6561578516477384E-002           6        4580           0
</event>
<event>
      5   9999  3.19816E-02  2.65215E+02 -1.00000E+00  1.07361E-01
       2    -1     0     0   502     0  0.000000000E+00  0.000000000E+00  1.859911070E+03  1.859911070E+03  0.000000000E+00  0.00000E+00  9.000E+00
      21    -1     0     0   501   502  0.000000000E+00  0.000000000E+00 -4.155889238E+02  4.155889238E+02  0.000000000E+00  0.00000E+00  9.000E+00
      25     1     1     2     0     0  6.192425976E+01  5.718115945E+02 -8.917520920E+01  5.952985230E+02  1.250000000E+02  0.00000E+00  9.000E+00
      25     1     1     2     0     0  8.943747558E+01 -3.540301710E+02  6.322768791E+02  7.407668161E+02  1.250000000E+02  0.00000E+00  9.000E+00
       2     1     1     2   501     0 -1.513617353E+02 -2.177814235E+02  9.012204763E+02  9.394346546E+02  1.525878906E-05  0.00000E+00  9.000E+00
#rwgt            2          18   1.5078698916522280E-003           6        4807           0
</event>
<event>
      5   9999  3.19816E-02  1.32722E+02 -1.00000E+00  1.18540E-01
      21    -1     0     0   502   501  0.000000000E+00  0.000000000E+00  4.295683537E+02  4.295683537E+02  0.000000000E+00  0.00000E+00  9.000E+00
      21    -1     0     0   511   502  0.000000000E+00  0.000000000E+00 -1.302561404E+03  1.302561404E+03  0.000000000E+00  0.00000E+00  9.000E+00
      25     1     1     2     0     0  3.918635167E+02  4.660323070E+02 -6.556934463E+02  9.034943400E+02  1.250000000E+02  0.00000E+00  9.000E+00
      25     1     1     2     0     0 -2.615895579E+02 -4.406572394E+02  5.036012131E+01  5.298764396E+02  1.250000000E+02  0.00000E+00  9.000E+00
      21     1     1     2   511   501 -1.302739588E+02 -2.537506765E+01 -2.676597254E+02  2.987589781E+02  3.814697266E-06  0.00000E+00  9.000E+00
#rwgt            2          11   3.8855636367765385E-003           6        5036           0
</event>
<event>
      5   9999  3.19816E-02  2.47655E+02 -1.00000E+00  1.08370E-01
      21    -1     0     0   502   501  0.000000000E+00  0.000000000E+00  3.717439705E+02  3.717439705E+02  0.000000000E+00  0.00000E+00  9.000E+00
      21    -1     0     0   512   502  0.000000000E+00  0.000000000E+00 -6.276257684E+02  6.276257684E+02  0.000000000E+00  0.00000E+00  9.000E+00
      25     1     1     2     0     0 -9.334476204E+01 -2.467124267E+02 -1.564020419E+02  3.311598780E+02  1.250000000E+02  0.00000E+00  9.000E+00
      25     1     1     2     0     0  1.280858394E+02  1.505991935E+00  2.073449624E+02  2.739072539E+02  1.250000000E+02  0.00000E+00  9.000E+00
      21     1     1     2   512   501 -3.474107736E+01  2.452064348E+02 -3.068247184E+02  3.943026071E+02  6.607249480E-06  0.00000E+00  9.000E+00
#rwgt            1           1   2.5147810286739680E-002           6        5116           0
</event>
<event>
      5   9999  3.19816E-02  4.39212E+01 -1.00000E+00  1.42366E-01
      21    -1     0     0   511   501  0.000000000E+00  0.000000000E+00  5.757308723E+02  5.757308723E+02  0.000000000E+00  0.00000E+00  9.000E+00
      21    -1     0     0   501   502  0.000000000E+00  0.000000000E+00 -3.893533318E+02  3.893533318E+02  0.000000000E+00  0.00000E+00  9.000E+00
      25     1     1     2     0     0  3.085288463E+02  1.817708076E+02 -1.321516189E+02  4.016462696E+02  1.250000000E+02  0.00000E+00  9.000E+00
      25     1     1     2     0     0 -2.676799322E+02 -1.979088917E+02  1.442950558E+02  3.837532262E+02  1.250000000E+02  0.00000E+00  9.000E+00
      21     1     1     2   511   502 -4.084891407E+01  1.613808409E+01  1.742341036E+02  1.796847083E+02  1.907348633E-06  0.00000E+00  9.000E+00
#rwgt            1           1   2.9691146422779278E-002           6        5171           0
</event>
<event>
      5   9999  3.19816E-02  4.52010E+01 -1.00000E+00  1.41623E-01
      21    -1     0     0   502   501  0.000000000E+00  0.000000000E+00  1.108439802E+03  1.108439802E+03  0.000000000E+00  0.00000E+00  9.000E+00
      21    -1     0     0   512   502  0.000000000E+00  0.000000000E+00 -1.396696409E+02  1.396696409E+02  0.000000000E+00  0.00000E+00  9.000E+00
      25     1     1     2     0     0 -1.859112180E+02  1.399464146E+02  9.151173957E+02  9.524772060E+02  1.250000000E+02  0.00000E+00  9.000E+00
      25     1     1     2     0     0  1.781429801E+02 -9.541790531E+01  6.975382962E+01  2.476491364E+02  1.250000000E+02  0.00000E+00  9.000E+00
      21     1     1     2   512   501  7.768237903E+00 -4.452850927E+01 -1.610106423E+01  4.798310043E+01  1.011524364E-06  0.00000E+00  9.000E+00
#rwgt            1           1   2.8317174490514834E-002           6        5362           0
</event>
<event>
      5   9999  3.19816E-02  2.79837E+02 -1.00000E+00  1.06583E-01
      21    -1     0     0   511   501  0.000000000E+00  0.000000000E+00  4.747648854E+02  4.747648854E+02  0.000000000E+00  0.00000E+00  9.000E+00
      21    -1     0     0   501   502  0.000000000E+00  0.000000000E+00 -2.838424408E+02  2.838424408E+02  0.000000000E+00  0.00000E+00  9.000E+00
      25     1     1     2     0     0 -1.592804537E+02  6.415460401E+01 -1.952671508E+01  2.132894014E+02  1.250000000E+02  0.00000E+00  9.000E+00
      25     1     1     2     0     0 -1.067952020E+02 -1.508277030E+02  8.734159861E+01  2.395991778E+02  1.250000000E+02  0.00000E+00  9.000E+00
      21     1     1     2   511   502  2.660756557E+02  8.667309898E+01  1.231075611E+02  3.057187470E+02  4.046097457E-06  0.00000E+00  9.000E+00
#rwgt            2          11   3.6172015607718435E-003           6        5692           0
</event>
<event>
      5   9999  3.19816E-02  1.33835E+02 -1.00000E+00  1.18391E-01
      21    -1     0     0   502   512  0.000000000E+00  0.000000000E+00  1.075171050E+03  1.075171050E+03  0.000000000E+00  0.00000E+00  9.000E+00
      21    -1     0     0   501   502  0.000000000E+00  0.000000000E+00 -2.845690806E+02  2.845690806E+02  0.000000000E+00  0.00000E+00  9.000E+00
      25     1     1     2     0     0 -7.642604045E+01 -2.050292814E+02  5.023306168E+02  5.619955467E+02  1.250000000E+02  0.00000E+00  9.000E+00
      25     1     1     2     0     0  1.849286980E+02  2.833816990E+02 -1.103670109E+02  3.772395628E+02  1.250000000E+02  0.00000E+00  9.000E+00
      21     1     1     2   501   512 -1.085026576E+02 -7.835241760E+01  3.986383632E+02  4.205050210E+02  0.000000000E+00  0.00000E+00  9.000E+00
#rwgt            2          11   2.5566635496485023E-003           6        5817           0
</event>
<event>
      5   9999  3.19816E-02  6.08251E+01 -1.00000E+00  1.34387E-01
      21    -1     0     0   502   501  0.000000000E+00  0.000000000E+00  8.342953188E+02  8.342953188E+02  0.000000000E+00  0.00000E+00  9.000E+00
      21    -1     0     0   511   502  0.000000000E+00  0.000000000E+00 -7.580587233E+02  7.580587233E+02  0.000000000E+00  0.00000E+00  9.000E+00
      25     1     1     2     0     0 -7.496259320E+01  7.289070493E+02  2.843064621E+02  7.958517710E+02  1.250000000E+02  0.00000E+00  9.000E+00
      25     1     1     2     0     0  2.536438037E+01 -6.936975874E+02 -2.091013729E+02  7.356684571E+02  1.250000000E+02  0.00000E+00  9.000E+00
      21     1     1     2   511   501  4.959821283E+01 -3.520946193E+01  1.031506227E+00  6.083381404E+01  4.075406292E-07  0.00000E+00  9.000E+00
#rwgt            1           1   2.6384988602639683E-002           6        5837           0
</event>
<event>
      5   9999  3.19816E-02  3.14001E+01 -1.00000E+00  1.51677E-01
      21    -1     0     0   502   501  0.000000000E+00  0.000000000E+00  1.354734891E+03  1.354734891E+03  0.000000000E+00  0.00000E+00  9.000E+00
      21    -1     0     0   512   502  0.000000000E+00  0.000000000E+00 -9.090219734E+01  9.090219734E+01  0.000000000E+00  0.00000E+00  9.000E+00
      25     1     1     2     0     0 -9.192179325E+01  2.336121767E+02  1.057972495E+03  1.094511336E+03  1.250000000E+02  0.00000E+00  9.000E+00
      25     1     1     2     0     0  8.456170579E+01 -2.030868112E+02  1.846237066E+02  3.132185307E+02  1.250000000E+02  0.00000E+00  9.000E+00
      21     1     1     2   512   501  7.360087464E+00 -3.052536556E+01  2.123649215E+01  3.790722133E+01  7.907449699E-07  0.00000E+00  9.000E+00
#rwgt            1           1   2.8669184535560655E-002           6        5972           0
</event>
<event>
      5   9999  3.19816E-02  2.94758E+02 -1.00000E+00  1.05841E-01
      21    -1     0     0   502   501  0.000000000E+00  0.000000000E+00  1.174666672E+03  1.174666672E+03  0.000000000E+00  0.00000E+00  9.000E+00
      21    -1     0     0   501   511  0.000000000E+00  0.000000000E+00 -2.668604285E+02  2.668604285E+02  0.000000000E+00  0.00000E+00  9.000E+00
      25     1     1     2     0     0 -2.810892571E+01 -2.204852725E+01  1.561167018E+02  2.031592327E+02  1.250000000E+02  0.00000E+00  9.000E+00
      25     1     1     2     0     0  1.950730715E+02  2.649583595E+02  8.561279148E+02  9.256546019E+02  1.250000000E+02  0.00000E+00  9.000E+00
      21     1     1     2   502   511 -1.669641458E+02 -2.429098323E+02 -1.044383735E+02  3.127132656E+02  3.015782986E-06  0.00000E+00  9.000E+00
#rwgt            1           1   3.0622694326812267E-002           6        6128           0
</event>
<event>
      5   9999  3.19816E-02  4.34635E+01 -1.00000E+00  1.42638E-01
      21    -1     0     0   502   501  0.000000000E+00  0.000000000E+00  6.356857793E+02  6.356857793E+02  0.000000000E+00  0.00000E+00  9.000E+00
      21    -1     0     0   512   502  0.000000000E+00  0.000000000E+00 -1.604717253E+02  1.604717253E+02  0.000000000E+00  0.00000E+00  9.000E+00
      25     1     1     2     0     0  1.416758924E+02  2.433190254E+01  2.856093886E+02  3.433100972E+02  1.250000000E+02  0.00000E+00  9.000E+00
      25     1     1     2     0     0 -1.847604060E+02 -3.005915619E+01  2.759927589E+02  3.561417744E+02  1.250000000E+02  0.00000E+00  9.000E+00
      21     1     1     2   512   501  4.308451365E+01  5.727253652E+00 -8.638809353E+01  9.670563300E+01  0.000000000E+00  0.00000E+00  9.000E+00
#rwgt            1           1   3.4453384837562787E-002           6        6158           0
</event>
<event>
      5   9999  3.19816E-02  4.47101E+01 -1.00000E+00  1.41904E-01
      21    -1     0     0   502   501  0.000000000E+00  0.000000000E+00  7.178416008E+02  7.178416008E+02  0.000000000E+00  0.00000E+00  9.000E+00
      21    -1     0     0   501   511  0.000000000E+00  0.000000000E+00 -4.458384810E+02  4.458384810E+02  0.000000000E+00  0.00000E+00  9.000E+00
      25     1     1     2     0     0 -7.318372257E+01  3.772184963E+02  5.300340715E+02  6.664913864E+02  1.250000000E+02  0.00000E+00  9.000E+00
      25     1     1     2     0     0  3.445376113E+01 -3.548805875E+02 -2.129895914E+02  4.337244046E+02  1.250000000E+02  0.00000E+00  9.000E+00
      21     1     1     2   502   511  3.872996144E+01 -2.233790875E+01 -4.504136034E+01  6.346429091E+01  0.000000000E+00  0.00000E+00  9.000E+00
#rwgt            1           1   3.1083696461673586E-002           6        6222           0
</event>
<event>
      5   9999  3.19816E-02  4.14201E+01 -1.00000E+00  1.43907E-01
      21    -1     0     0   502   501  0.000000000E+00  0.000000000E+00  2.022502761E+02  2.022502761E+02  0.000000000E+00  0.00000E+00  9.000E+00
      21    -1     0     0   501   512  0.000000000E+00  0.000000000E+00 -3.486374877E+02  3.486374877E+02  0.000000000E+00  0.00000E+00  9.000E+00
      25     1     1     2     0     0  1.884908766E+01 -1.626249410E+02  2.277211863E+01  2.072335130E+02  1.250000000E+02  0.00000E+00  9.000E+00
      25     1     1     2     0     0  2.223559037E+01  1.678857161E+02 -4.838842624E+01  2.159779501E+02  1.250000000E+02  0.00000E+00  9.000E+00
      21     1     1     2   502   512 -4.108467802E+01 -5.260775100E+00 -1.207709040E+02  1.276763007E+02  1.348699152E-06  0.00000E+00  9.000E+00
#rwgt            1           1   2.5250420365264988E-002           6        6340           0
</event>
<event>
      5   9999  3.19816E-02  1.62920E+01 -1.00000E+00  1.74068E-01
      21    -1     0     0   511   501  0.000000000E+00  0.000000000E+00  7.519192326E+02  7.519192326E+02  0.000000000E+00  0.00000E+00  9.000E+00
      21    -1     0     0   501   502  0.000000000E+00  0.000000000E+00 -9.490238835E+01  9.490238835E+01  0.000000000E+00  0.00000E+00  9.000E+00
      25     1     1     2     0     0 -1.597150630E+02 -5.756171483E+01  9.091460275E+01  2.295925028E+02  1.250000000E+02  0.00000E+00  9.000E+00
      25     1     1     2     0     0  1.577827189E+02  4.138466696E+01  3.941605137E+02  4.445172523E+02  1.250000000E+02  0.00000E+00  9.000E+00
      21     1     1     2   511   502  1.932344133E+00  1.617704787E+01  1.719417279E+02  1.727118659E+02  0.000000000E+00  0.00000E+00  9.000E+00
#rwgt            1           1   3.1475664660662303E-002           6        6421           0
</event>
<event>
      5   9999  3.19816E-02  3.73325E+02 -1.00000E+00  1.02596E-01
      21    -1     0     0   502   501  0.000000000E+00  0.000000000E+00  5.106312730E+02  5.106312730E+02  0.000000000E+00  0.00000E+00  9.000E+00
      21    -1     0     0   501   512  0.000000000E+00  0.000000000E+00 -4.541530257E+02  4.541530257E+02  0.000000000E+00  0.00000E+00  9.000E+00
      25     1     1     2     0     0 -2.777370802E+00  7.460998759E+01 -3.445946798E+01  1.496222543E+02  1.250000000E+02  0.00000E+00  9.000E+00
      25     1     1     2     0     0 -3.087306587E+02 -2.803635473E+02  7.267906142E+01  4.413905122E+02  1.250000000E+02  0.00000E+00  9.000E+00
      21     1     1     2   502   512  3.115080295E+02  2.057535597E+02  1.825865384E+01  3.737715322E+02  1.768159506E-06  0.00000E+00  9.000E+00
#rwgt            2          11   3.0241796179742084E-003           6        6636           0
</event>
<event>
      5   9999  3.19816E-02  2.34777E+01 -1.00000E+00  1.60822E-01
      21    -1     0     0   511   501  0.000000000E+00  0.000000000E+00  5.461526445E+02  5.461526445E+02  0.000000000E+00  0.00000E+00  9.000E+00
      21    -1     0     0   501   502  0.000000000E+00  0.000000000E+00 -5.757625065E+02  5.757625065E+02  0.000000000E+00  0.00000E+00  9.000E+00
      25     1     1     2     0     0  3.938041364E+02  9.606404545E+01 -3.647097864E+02  5.594177571E+02  1.250000000E+02  0.00000E+00  9.000E+00
      25     1     1     2     0     0 -3.725332963E+02 -1.060016225E+02  2.579427959E+02  4.818473688E+02  1.250000000E+02  0.00000E+00  9.000E+00
      21     1     1     2   511   502 -2.127084007E+01  9.937577067E+00  7.715712849E+01  8.065002513E+01  9.536743164E-07  0.00000E+00  9.000E+00
#rwgt            1           1   3.0002685141905922E-002           6        6671           0
</event>
<event>
      5   9999  3.19816E-02  5.81632E+02 -1.00000E+00  9.70213E-02
      21    -1     0     0   502   501  0.000000000E+00  0.000000000E+00  1.256311515E+03  1.256311515E+03  0.000000000E+00  0.00000E+00  9.000E+00
       1    -1     0     0   501     0  0.000000000E+00  0.000000000E+00 -2.057214311E+03  2.057214311E+03  0.000000000E+00  0.00000E+00  9.000E+00
      25     1     1     2     0     0  2.565215663E+02 -3.288785854E+02  7.981130726E+02  9.091611048E+02  1.250000000E+02  0.00000E+00  9.000E+00
      25     1     1     2     0     0 -1.404975474E+02 -2.410640262E+02  2.939084567E+02  4.240974021E+02  1.250000000E+02  0.00000E+00  9.000E+00
       1     1     1     2   502     0 -1.160240189E+02  5.699426116E+02 -1.892924325E+03  1.980267319E+03  0.000000000E+00  0.00000E+00  9.000E+00
#rwgt            2          12   1.1316038082291013E-002           6        6976           0
</event>
<event>
      5   9999  3.19816E-02  1.21392E+02 -1.00000E+00  1.20156E-01
      21    -1     0     0   502   511  0.000000000E+00  0.000000000E+00  7.762870166E+02  7.762870166E+02  0.000000000E+00  0.00000E+00  9.000E+00
      21    -1     0     0   501   502  0.000000000E+00  0.000000000E+00 -5.892122682E+02  5.892122682E+02  0.000000000E+00  0.00000E+00  9.000E+00
      25     1     1     2     0     0 -2.067751310E+02  1.485780056E+02 -4.794281829E+02  5.570527453E+02  1.250000000E+02  0.00000E+00  9.000E+00
      25     1     1     2     0     0  2.532399111E+02 -3.643061137E+01  2.649603236E+02  3.889558010E+02  1.250000000E+02  0.00000E+00  9.000E+00
      21     1     1     2   501   511 -4.646478013E+01 -1.121473942E+02  4.015426077E+02  4.194907384E+02  0.000000000E+00  0.00000E+00  9.000E+00
#rwgt            1           1   2.9839735044493169E-002           6        6995           0
</event>
<event>
      5   9999  3.19816E-02  1.33880E+02 -1.00000E+00  1.18385E-01
      21    -1     0     0   502   501  0.000000000E+00  0.000000000E+00  4.715823528E+02  4.715823528E+02  0.000000000E+00  0.00000E+00  9.000E+00
      -4    -1     0     0     0   502  0.000000000E+00  0.000000000E+00 -1.077263016E+03  1.077263016E+03  0.000000000E+00  0.00000E+00  9.000E+00
      25     1     1     2     0     0 -4.431926053E+02  2.023611717E+02 -5.039262841E+01  5.055038538E+02  1.250000000E+02  0.00000E+00  9.000E+00
      25     1     1     2     0     0  5.669305351E+02 -2.534762813E+02 -2.009893348E+02  6.645917315E+02  1.250000000E+02  0.00000E+00  9.000E+00
      -4     1     1     2     0   501 -1.237379298E+02  5.111510956E+01 -3.542987003E+02  3.787497838E+02  6.607249480E-06  0.00000E+00  9.000E+00
#rwgt            1           1   2.7532452679648454E-002           6        7129           0
</event>
<event>
      5   9999  3.19816E-02  5.16987E+01 -1.00000E+00  1.38253E-01
      21    -1     0     0   502   501  0.000000000E+00  0.000000000E+00  1.011452213E+03  1.011452213E+03  0.000000000E+00  0.00000E+00  9.000E+00
       1    -1     0     0   501     0  0.000000000E+00  0.000000000E+00 -1.605147741E+02  1.605147741E+02  0.000000000E+00  0.00000E+00  9.000E+00
      25     1     1     2     0     0 -1.844993861E+02 -6.443004729E+01  2.315213734E+02  3.277474650E+02  1.250000000E+02  0.00000E+00  9.000E+00
      25     1     1     2     0     0  1.589907610E+02  1.946268606E+01  7.107762265E+02  7.392460365E+02  1.250000000E+02  0.00000E+00  9.000E+00
       1     1     1     2   502     0  2.550862510E+01  4.496736124E+01 -9.136016133E+01  1.049734853E+02  1.907348633E-06  0.00000E+00  9.000E+00
#rwgt            1           1   2.8738801700800388E-002           6        7204           0
</event>
<event>
      5   9999  3.19816E-02  5.29264E+01 -1.00000E+00  1.37681E-01
       2    -1     0     0   502     0  0.000000000E+00  0.000000000E+00  5.103413578E+03  5.103413578E+03  0.000000000E+00  0.00000E+00  9.000E+00
      21    -1     0     0   501   502  0.000000000E+00  0.000000000E+00 -5.274076025E+01  5.274076025E+01  0.000000000E+00  0.00000E+00  9.000E+00
      25     1     1     2     0     0 -3.298806833E+01 -5.677941088E+01  5.118700006E+01  1.501906226E+02  1.250000000E+02  0.00000E+00  9.000E+00
      25     1     1     2     0     0  7.335032727E+01  2.254365392E+01  1.776922337E+03  1.782965641E+03  1.250000000E+02  0.00000E+00  9.000E+00
       2     1     1     2   501     0 -4.036225893E+01  3.423575696E+01  3.222563481E+03  3.222998075E+03  6.103515625E-05  0.00000E+00  9.000E+00
#rwgt            1           1   3.0447200433688228E-002           6        7292           0
</event>
<event>
      5   9999  3.19816E-02  1.73816E+01 -1.00000E+00  1.71559E-01
      21    -1     0     0   511   501  0.000000000E+00  0.000000000E+00  2.522556261E+02  2.522556261E+02  0.000000000E+00  0.00000E+00  9.000E+00
      21    -1     0     0   501   502  0.000000000E+00  0.000000000E+00 -1.137131241E+03  1.137131241E+03  0.000000000E+00  0.00000E+00  9.000E+00
      25     1     1     2     0     0 -1.899560388E+02 -1.008137223E+02 -8.204668118E+02  8.573432758E+02  1.250000000E+02  0.00000E+00  9.000E+00
      25     1     1     2     0     0  1.814159965E+02  1.159526367E+02 -2.457795246E+02  3.498418964E+02  1.250000000E+02  0.00000E+00  9.000E+00
      21     1     1     2   511   502  8.540042304E+00 -1.513891442E+01  1.813707215E+02  1.822016950E+02  0.000000000E+00  0.00000E+00  9.000E+00
#rwgt            1           1   2.9898990817328514E-002           6        7388           0
</event>
<event>
      5   9999  3.19816E-02  2.56307E+02 -1.00000E+00  1.07862E-01
      21    -1     0     0   512   501  0.000000000E+00  0.000000000E+00  4.919121391E+02  4.919121391E+02  0.000000000E+00  0.00000E+00  9.000E+00
      21    -1     0     0   501   502  0.000000000E+00  0.000000000E+00 -4.082641516E+02  4.082641516E+02  0.000000000E+00  0.00000E+00  9.000E+00
      25     1     1     2     0     0  1.709034562E+02 -1.424606333E+02 -2.276951016E+02  3.420132785E+02  1.250000000E+02  0.00000E+00  9.000E+00
      25     1     1     2     0     0  8.385715392E+01  1.143442159E+02  5.786965719E+01  1.976879339E+02  1.250000000E+02  0.00000E+00  9.000E+00
      21     1     1     2   512   502 -2.547606101E+02  2.811641746E+01  2.534734319E+02  3.604750783E+02  4.672030912E-06  0.00000E+00  9.000E+00
#rwgt            2          11   3.9013350089822109E-003           6        7708           0
</event>
<event>
      5   9999  3.19816E-02  4.62491E+01 -1.00000E+00  1.41036E-01
      21    -1     0     0   502   511  0.000000000E+00  0.000000000E+00  5.608702405E+02  5.608702405E+02  0.000000000E+00  0.00000E+00  9.000E+00
      21    -1     0     0   501   502  0.000000000E+00  0.000000000E+00 -1.141783423E+02  1.141783423E+02  0.000000000E+00  0.00000E+00  9.000E+00
      25     1     1     2     0     0 -1.081204206E+02  1.248521609E+02  1.728143198E+02  2.697552160E+02  1.250000000E+02  0.00000E+00  9.000E+00
      25     1     1     2     0     0  6.244666198E+01 -1.321246766E+02  8.397683365E+01  2.098419032E+02  1.250000000E+02  0.00000E+00  9.000E+00
      21     1     1     2   501   511  4.567375862E+01  7.272515749E+00  1.899007448E+02  1.954514635E+02  2.697398305E-06  0.00000E+00  9.000E+00
#rwgt            1           1   2.9470199620971999E-002           6        7743           0
</event>
<event>
      5   9999  3.19816E-02  7.66999E+01 -1.00000E+00  1.29241E-01
      21    -1     0     0   502   501  0.000000000E+00  0.000000000E+00  1.359455283E+03  1.359455283E+03  0.000000000E+00  0.00000E+00  9.000E+00
       1    -1     0     0   501     0  0.000000000E+00  0.000000000E+00 -1.934179864E+03  1.934179864E+03  0.000000000E+00  0.00000E+00  9.000E+00
      25     1     1     2     0     0 -5.057026163E+02  5.615567069E+02 -2.412228911E+02  8.030532700E+02  1.250000000E+02  0.00000E+00  9.000E+00
      25     1     1     2     0     0  4.381346698E+02 -5.252601030E+02  9.652216019E+02  1.189595690E+03  1.250000000E+02  0.00000E+00  9.000E+00
       1     1     1     2   502     0  6.756794655E+01 -3.629660387E+01 -1.298723292E+03  1.300986188E+03  0.000000000E+00  0.00000E+00  9.000E+00
#rwgt            1           1   3.3294028343573402E-002           6        7827           0
</event>
<event>
      5   9999  3.19816E-02  2.71596E+02 -1.00000E+00  1.07015E-01
      21    -1     0     0   502   501  0.000000000E+00  0.000000000E+00  2.172728585E+03  2.172728585E+03  0.000000000E+00  0.00000E+00  9.000E+00
      21    -1     0     0   511   502  0.000000000E+00  0.000000000E+00 -1.150731879E+02  1.150731879E+02  0.000000000E+00  0.00000E+00  9.000E+00
      25     1     1     2     0     0 -5.653735013E+01  1.006729985E+02  1.175247951E+02  2.068057109E+02  1.250000000E+02  0.00000E+00  9.000E+00
      25     1     1     2     0     0  2.916922516E+02 -2.365656215E+02  1.586348053E+03  1.634984039E+03  1.250000000E+02  0.00000E+00  9.000E+00
      21     1     1     2   511   501 -2.351549015E+02  1.358926230E+02  3.537825492E+02  4.460120232E+02  0.000000000E+00  0.00000E+00  9.000E+00
#rwgt            1           1   3.8966701337070933E-002           6        7903           0
</event>
<event>
      5   9999  3.19816E-02  2.92159E+01 -1.00000E+00  1.53843E-01
      21    -1     0     0   502   501  0.000000000E+00  0.000000000E+00  2.405851921E+03  2.405851921E+03  0.000000000E+00  0.00000E+00  9.000E+00
      21    -1     0     0   501   512  0.000000000E+00  0.000000000E+00 -2.090055162E+02  2.090055162E+02  0.000000000E+00  0.00000E+00  9.000E+00
      25     1     1     2     0     0  6.125861856E+02 -2.809003413E+02  1.013474240E+03  1.223487586E+03  1.250000000E+02  0.00000E+00  9.000E+00
      25     1     1     2     0     0 -5.836109533E+02  2.846425976E+02  1.190031300E+03  1.361404660E+03  1.250000000E+02  0.00000E+00  9.000E+00
      21     1     1     2   502   512 -2.897523239E+01 -3.742256295E+00 -6.659136112E+00  2.996519093E+01  7.348554138E-07  0.00000E+00  9.000E+00
#rwgt            1           1   3.5665053556634962E-002           6        7931           0
</event>
<event>
      5   9999  3.19816E-02  4.59083E+01 -1.00000E+00  1.41225E-01
      21    -1     0     0   511   501  0.000000000E+00  0.000000000E+00  4.419741379E+01  4.419741379E+01  0.000000000E+00  0.00000E+00  9.000E+00
      21    -1     0     0   501   502  0.000000000E+00  0.000000000E+00 -1.432269486E+03  1.432269486E+03  0.000000000E+00  0.00000E+00  9.000E+00
      25     1     1     2     0     0  9.551591480E+01  9.192278521E+01 -7.428387505E+02  7.648578284E+02  1.250000000E+02  0.00000E+00  9.000E+00
      25     1     1     2     0     0 -1.345031058E+02 -6.768292330E+01 -6.351389977E+02  6.646041002E+02  1.250000000E+02  0.00000E+00  9.000E+00
      21     1     1     2   511   502  3.898719105E+01 -2.423986192E+01 -1.009432444E+01  4.700497163E+01  9.000103993E-07  0.00000E+00  9.000E+00
#rwgt            1           1   3.5808569341958127E-002           6        8112           0
</event>
<event>
      5   9999  3.19816E-02  3.24664E+01 -1.00000E+00  1.50694E-01
      21    -1     0     0   502   501  0.000000000E+00  0.000000000E+00  7.359846982E+02  7.359846982E+02  0.000000000E+00  0.00000E+00  9.000E+00
      21    -1     0     0   512   502  0.000000000E+00  0.000000000E+00 -2.160489053E+02  2.160489053E+02  0.000000000E+00  0.00000E+00  9.000E+00
      25     1     1     2     0     0  5.764185910E+01  2.216930873E+02  3.399992295E+02  4.285964127E+02  1.250000000E+02  0.00000E+00  9.000E+00
      25     1     1     2     0     0 -7.411544132E+01 -2.496696012E+02  2.896118046E+02  4.090574603E+02  1.250000000E+02  0.00000E+00  9.000E+00
      21     1     1     2   512   501  1.647358223E+01  2.797651396E+01 -1.096752412E+02  1.143797307E+02  2.336015456E-06  0.00000E+00  9.000E+00
#rwgt            1           1   2.8252277744175130E-002           6        8194           0
</event>
<event>
      5   9999  3.19816E-02  4.12378E+01 -1.00000E+00  1.44024E-01
      21    -1     0     0   502   501  0.000000000E+00  0.000000000E+00  1.282172671E+03  1.282172671E+03  0.000000000E+00  0.00000E+00  9.000E+00
      -5    -1     0     0     0   502  0.000000000E+00  0.000000000E+00 -2.728373161E+02  2.728373161E+02  0.000000000E+00  0.00000E+00  9.000E+00
      25     1     1     2     0     0  5.778793399E+01 -1.884910560E+02  3.340168862E+02  4.075053421E+02  1.250000000E+02  0.00000E+00  9.000E+00
      25     1     1     2     0     0 -2.559284055E+01  1.627222650E+02  8.977633999E+02  9.212695866E+02  1.250000000E+02  0.00000E+00  9.000E+00
      -5     1     1     2     0   501 -3.219509344E+01  2.576879101E+01 -2.224449308E+02  2.262350589E+02  2.697398305E-06  0.00000E+00  9.000E+00
#rwgt            1           1   2.3899677369200567E-002           6        8298           0
</event>
<event>
      5   9999  3.19816E-02  1.50661E+02 -1.00000E+00  1.16318E-01
      21    -1     0     0   502   501  0.000000000E+00  0.000000000E+00  3.939831623E+02  3.939831623E+02  0.000000000E+00  0.00000E+00  9.000E+00
      21    -1     0     0   501   511  0.000000000E+00  0.000000000E+00 -3.192484728E+02  3.192484728E+02  0.000000000E+00  0.00000E+00  9.000E+00
      25     1     1     2     0     0 -2.649180417E+02  1.617915489E+01 -4.340306556E+01  2.965672941E+02  1.250000000E+02  0.00000E+00  9.000E+00
      25     1     1     2     0     0  1.588687176E+02  9.083684332E+01  1.433032723E+02  2.639155725E+02  1.250000000E+02  0.00000E+00  9.000E+00
      21     1     1     2   502   511  1.060493240E+02 -1.070159982E+02 -2.516551727E+01  1.527487684E+02  2.567846683E-06  0.00000E+00  9.000E+00
#rwgt            1           1   2.8976887916794952E-002           6        8404           0
</event>
<event>
      5   9999  3.19816E-02  6.79983E+01 -1.00000E+00  1.31862E-01
      21    -1     0     0   502   501  0.000000000E+00  0.000000000E+00  3.486222735E+02  3.486222735E+02  0.000000000E+00  0.00000E+00  9.000E+00
      21    -1     0     0   501   512  0.000000000E+00  0.000000000E+00 -2.025774581E+02  2.025774581E+02  0.000000000E+00  0.00000E+00  9.000E+00
      25     1     1     2     0     0  1.485670191E+02 -9.955092239E+01  9.355683179E+01  2.374035090E+02  1.250000000E+02  0.00000E+00  9.000E+00
      25     1     1     2     0     0 -1.258809390E+02  1.636532543E+02  4.241211909E+01  2.450554760E+02  1.250000000E+02  0.00000E+00  9.000E+00
      21     1     1     2   502   512 -2.268608012E+01 -6.410233195E+01  1.007586454E+01  6.874074657E+01  8.840797528E-07  0.00000E+00  9.000E+00
#rwgt            1           1   2.6654089328241336E-002           6        8450           0
</event>
<event>
      5   9999  3.19816E-02  3.65042E+01 -1.00000E+00  1.47347E-01
       3    -1     0     0   502     0  0.000000000E+00  0.000000000E+00  1.984798027E+02  1.984798027E+02  0.000000000E+00  0.00000E+00  9.000E+00
      21    -1     0     0   501   502  0.000000000E+00  0.000000000E+00 -1.301738985E+03  1.301738985E+03  0.000000000E+00  0.00000E+00  9.000E+00
      25     1     1     2     0     0 -6.749110063E+01 -1.592169288E+02 -1.006104181E+03  1.028482233E+03  1.250000000E+02  0.00000E+00  9.000E+00
      25     1     1     2     0     0  6.154695913E+01  1.231999344E+02 -2.516879349E+02  3.129505849E+02  1.250000000E+02  0.00000E+00  9.000E+00
       3     1     1     2   501     0  5.944141504E+00  3.601699432E+01  1.545329339E+02  1.587859703E+02  4.672030912E-06  0.00000E+00  9.000E+00
#rwgt            1           1   2.7662749670427426E-002           6        8531           0
</event>
<event>
      5   9999  3.19816E-02  7.75944E+01 -1.00000E+00  1.28995E-01
      21    -1     0     0   502   501  0.000000000E+00  0.000000000E+00  7.295888672E+02  7.295888672E+02  0.000000000E+00  0.00000E+00  9.000E+00
      21    -1     0     0   511   502  0.000000000E+00  0.000000000E+00 -2.090805783E+02  2.090805783E+02  0.000000000E+00  0.00000E+00  9.000E+00
      25     1     1     2     0     0 -8.265083170E+01 -4.048698098E+01  1.451845903E+02  2.125415744E+02  1.250000000E+02  0.00000E+00  9.000E+00
      25     1     1     2     0     0  1.170371890E+02 -2.907216854E+01  5.274734747E+02  5.553342787E+02  1.250000000E+02  0.00000E+00  9.000E+00
      21     1     1     2   511   501 -3.438635727E+01  6.955914952E+01 -1.521497760E+02  1.707935924E+02  3.303624740E-06  0.00000E+00  9.000E+00
#rwgt            1           1   2.6786573859913374E-002           6        8585           0
</event>
<event>
      5   9999  3.19816E-02  3.08581E+01 -1.00000E+00  1.52194E-01
      21    -1     0     0   502   512  0.000000000E+00  0.000000000E+00  2.446058334E+02  2.446058334E+02  0.000000000E+00  0.00000E+00  9.000E+00
      21    -1     0     0   501   502  0.000000000E+00  0.000000000E+00 -6.216580392E+02  6.216580392E+02  0.000000000E+00  0.00000E+00  9.000E+00
      25     1     1     2     0     0 -2.674201126E+00  1.060717005E+02  1.893202184E+02  2.504505981E+02  1.250000000E+02  0.00000E+00  9.000E+00
      25     1     1     2     0     0  5.587249001E+00 -7.535142491E+01 -5.664260490E+02  5.849551466E+02  1.250000000E+02  0.00000E+00  9.000E+00
      21     1     1     2   501   512 -2.913047876E+00 -3.072027555E+01  5.362486717E-02  3.085812783E+01  4.724018433E-07  0.00000E+00  9.000E+00
#rwgt            1           1   2.7415929981219968E-002           6        8650           0
</event>
<event>
      5   9999  3.19816E-02  1.07409E+02 -1.00000E+00  1.22448E-01
      21    -1     0     0   502   511  0.000000000E+00  0.000000000E+00  2.616885327E+02  2.616885327E+02  0.000000000E+00  0.00000E+00  9.000E+00
      21    -1     0     0   501   502  0.000000000E+00  0.000000000E+00 -1.503232061E+03  1.503232061E+03  0.000000000E+00  0.00000E+00  9.000E+00
      25     1     1     2     0     0 -1.144250612E+02 -3.088072712E+02  2.550531226E+01  3.531721199E+02  1.250000000E+02  0.00000E+00  9.000E+00
      25     1     1     2     0     0  9.888014360E+00  3.334781854E+02 -1.253906950E+03  1.303538689E+03  1.250000000E+02  0.00000E+00  9.000E+00
      21     1     1     2   501   511  1.045370468E+02 -2.467091429E+01 -1.314188960E+01  1.082097844E+02  1.823551481E-06  0.00000E+00  9.000E+00
#rwgt            1           1   2.9047084363597927E-002           6        8818           0
</event>
<event>
      5   9999  3.19816E-02  1.65685E+02 -1.00000E+00  1.14707E-01
      21    -1     0     0   502   501  0.000000000E+00  0.000000000E+00  7.163105452E+02  7.163105452E+02  0.000000000E+00  0.00000E+00  9.000E+00
      21    -1     0     0   501   512  0.000000000E+00  0.000000000E+00 -1.166976955E+03  1.166976955E+03  0.000000000E+00  0.00000E+00  9.000E+00
      25     1     1     2     0     0 -1.545039484E+02 -3.615760074E+02  5.932558919E+02  7.226245446E+02  1.250000000E+02  0.00000E+00  9.000E+00
      25     1     1     2     0     0  5.423914785E-01  3.003599250E+02 -5.424596391E+02  6.325376185E+02  1.250000000E+02  0.00000E+00  9.000E+00
      21     1     1     2   502   512  1.539615569E+02  6.121608242E+01 -5.014626629E+02  5.281253374E+02  0.000000000E+00  0.00000E+00  9.000E+00
#rwgt            1           1   3.3521020295494273E-002           6        8871           0
</event>
<event>
      5   9999  3.19816E-02  1.64179E+01 -1.00000E+00  1.73766E-01
      21    -1     0     0   502   511  0.000000000E+00  0.000000000E+00  9.795497294E+01  9.795497294E+01  0.000000000E+00  0.00000E+00  9.000E+00
      21    -1     0     0   501   502  0.000000000E+00  0.000000000E+00 -7.405835791E+02  7.405835791E+02  0.000000000E+00  0.00000E+00  9.000E+00
      25     1     1     2     0     0  3.488155107E+01 -1.974354482E+02 -4.481501131E+02  5.066172152E+02  1.250000000E+02  0.00000E+00  9.000E+00
      25     1     1     2     0     0 -2.535903056E+01  2.108096364E+02 -1.968007658E+02  3.153400144E+02  1.250000000E+02  0.00000E+00  9.000E+00
      21     1     1     2   501   511 -9.522520504E+00 -1.337418819E+01  2.322272746E+00  1.658132254E+01  4.969040156E-07  0.00000E+00  9.000E+00
#rwgt            1           1   2.8125732347763069E-002           6        8991           0
</event>
<event>
      5   9999  3.19816E-02  1.21507E+02 -1.00000E+00  1.20139E-01
      21    -1     0     0   502   501  0.000000000E+00  0.000000000E+00  1.052347236E+03  1.052347236E+03  0.000000000E+00  0.00000E+00  9.000E+00
      21    -1     0     0   512   502  0.000000000E+00  0.000000000E+00 -4.082870245E+02  4.082870245E+02  0.000000000E+00  0.00000E+00  9.000E+00
      25     1     1     2     0     0  2.800588800E+02 -6.674697507E+01  6.159465961E+01  3.198547124E+02  1.250000000E+02  0.00000E+00  9.000E+00
      25     1     1     2     0     0 -3.288794142E+02  1.780150993E+02  7.998393922E+02  8.917505805E+02  1.250000000E+02  0.00000E+00  9.000E+00
      21     1     1     2   512   501  4.882053418E+01 -1.112681242E+02 -2.173738405E+02  2.490289673E+02  4.672030912E-06  0.00000E+00  9.000E+00
#rwgt            1           1   2.9516429462420050E-002           6        9155           0
</event>
<event>
      5   9999  3.19816E-02  5.15466E+01 -1.00000E+00  1.38325E-01
      21    -1     0     0   502   511  0.000000000E+00  0.000000000E+00  4.957883153E+02  4.957883153E+02  0.000000000E+00  0.00000E+00  9.000E+00
      21    -1     0     0   501   502  0.000000000E+00  0.000000000E+00 -1.451401177E+03  1.451401177E+03  0.000000000E+00  0.00000E+00  9.000E+00
      25     1     1     2     0     0 -2.088889148E+02 -2.745098543E+02  2.962978610E+02  4.716011676E+02  1.250000000E+02  0.00000E+00  9.000E+00
      25     1     1     2     0     0  2.144076974E+02  2.232595387E+02 -1.335935297E+03  1.377012563E+03  1.250000000E+02  0.00000E+00  9.000E+00
      21     1     1     2   501   511 -5.518782557E+00  5.125031567E+01  8.402457367E+01  9.857576171E+01  9.536743164E-07  0.00000E+00  9.000E+00
#rwgt            1           1   2.6125602764578867E-002           6        9277           0
</event>
<event>
      5   9999  3.19816E-02  4.34010E+02 -1.00000E+00  1.00630E-01
      21    -1     0     0   512   501  0.000000000E+00  0.000000000E+00  6.723125146E+02  6.723125146E+02  0.000000000E+00  0.00000E+00  9.000E+00
      21    -1     0     0   501   502  0.000000000E+00  0.000000000E+00 -3.421387223E+03  3.421387223E+03  0.000000000E+00  0.00000E+00  9.000E+00
      25     1     1     2     0     0  1.049144855E+03  6.272668574E+01 -2.167567313E+03  2.412180056E+03  1.250000000E+02  0.00000E+00  9.000E+00
      25     1     1     2     0     0 -1.022204594E+03 -4.958999197E+02 -3.980055930E+02  1.210310875E+03  1.250000000E+02  0.00000E+00  9.000E+00
      21     1     1     2   512   502 -2.694026085E+01  4.331732340E+02 -1.835018018E+02  4.712088068E+02  2.697398305E-06  0.00000E+00  9.000E+00
#rwgt            2          11   3.5032927757067140E-003           6        9460           0
</event>
<event>
      5   9999  3.19816E-02  1.39731E+02 -1.00000E+00  1.17627E-01
      21    -1     0     0   511   501  0.000000000E+00  0.000000000E+00  3.902760438E+02  3.902760438E+02  0.000000000E+00  0.00000E+00  9.000E+00
      21    -1     0     0   501   502  0.000000000E+00  0.000000000E+00 -4.149960339E+02  4.149960339E+02  0.000000000E+00  0.00000E+00  9.000E+00
      25     1     1     2     0     0  3.306363447E+01 -2.311503194E+02 -2.660039313E+02  3.753754994E+02  1.250000000E+02  0.00000E+00  9.000E+00
      25     1     1     2     0     0  2.020219705E+00  9.589503952E+01  7.747968495E+00  1.577497097E+02  1.250000000E+02  0.00000E+00  9.000E+00
      21     1     1     2   511   502 -3.508385417E+01  1.352552798E+02  2.335359727E+02  2.721468686E+02  2.697398305E-06  0.00000E+00  9.000E+00
#rwgt            1           1   2.8593971620989193E-002           6        9480           0
</event>
<event>
      5   9999  3.19816E-02  4.70024E+01 -1.00000E+00  1.40625E-01
      21    -1     0     0   502   501  0.000000000E+00  0.000000000E+00  3.213609772E+02  3.213609772E+02  0.000000000E+00  0.00000E+00  9.000E+00
      21    -1     0     0   512   502  0.000000000E+00  0.000000000E+00 -3.737273288E+02  3.737273288E+02  0.000000000E+00  0.00000E+00  9.000E+00
      25     1     1     2     0     0  1.253608644E+02  1.352309614E+02  6.897297079E+01  2.332059818E+02  1.250000000E+02  0.00000E+00  9.000E+00
      25     1     1     2     0     0 -7.941915370E+01 -1.451600898E+02  1.037912346E+02  2.318975507E+02  1.250000000E+02  0.00000E+00  9.000E+00
      21     1     1     2   512   501 -4.594171070E+01  9.929128470E+00 -2.251305570E+02  2.299847735E+02  2.697398305E-06  0.00000E+00  9.000E+00
#rwgt            1           1   2.8476796855620910E-002           6        9520           0
</event>
<event>
      5   9999  3.19816E-02  8.61360E+01 -1.00000E+00  1.26815E-01
      21    -1     0     0   502   501  0.000000000E+00  0.000000000E+00  2.382089326E+02  2.382089326E+02  0.000000000E+00  0.00000E+00  9.000E+00
      21    -1     0     0   501   511  0.000000000E+00  0.000000000E+00 -1.214538810E+03  1.214538810E+03  0.000000000E+00  0.00000E+00  9.000E+00
      25     1     1     2     0     0 -1.204159216E+02 -3.692885977E+01  1.681201514E+02  2.444445134E+02  1.250000000E+02  0.00000E+00  9.000E+00
      25     1     1     2     0     0  5.651110434E+01 -2.082570467E+01 -1.297905895E+02  1.899942420E+02  1.250000000E+02  0.00000E+00  9.000E+00
      21     1     1     2   502   511  6.390481722E+01  5.775456444E+01 -1.014659439E+03  1.018308987E+03  1.078959322E-05  0.00000E+00  9.000E+00
#rwgt            1           1   2.6294931014653303E-002           6        9604           0
</event>
<event>
      5   9999  3.19816E-02  4.47316E+01 -1.00000E+00  1.41892E-01
      21    -1     0     0   502   501  0.000000000E+00  0.000000000E+00  4.252865689E+02  4.252865689E+02  0.000000000E+00  0.00000E+00  9.000E+00
      21    -1     0     0   501   512  0.000000000E+00  0.000000000E+00 -3.811006735E+02  3.811006735E+02  0.000000000E+00  0.00000E+00  9.000E+00
      25     1     1     2     0     0  1.698199659E+02  7.654188345E+01  1.749502650E+01  2.250079036E+02  1.250000000E+02  0.00000E+00  9.000E+00
      25     1     1     2     0     0 -1.519131719E+02 -1.175328537E+02  2.584070917E+02  3.453850150E+02  1.250000000E+02  0.00000E+00  9.000E+00
      21     1     1     2   502   512 -1.790679393E+01  4.099097027E+01 -2.317162229E+02  2.359943238E+02  0.000000000E+00  0.00000E+00  9.000E+00
#rwgt            1           1   2.3326320265248193E-002           6        9648           0
</event>
<event>
      5   9999  3.19816E-02  1.68019E+02 -1.00000E+00  1.14474E-01
      21    -1     0     0   502   511  0.000000000E+00  0.000000000E+00  2.515134221E+02  2.515134221E+02  0.000000000E+00  0.00000E+00  9.000E+00
      21    -1     0     0   501   502  0.000000000E+00  0.000000000E+00 -1.709895701E+03  1.709895701E+03  0.000000000E+00  0.00000E+00  9.000E+00
      25     1     1     2     0     0 -2.432358121E+01  1.789708132E+02  1.486577260E+02  2.652287845E+02  1.250000000E+02  0.00000E+00  9.000E+00
      25     1     1     2     0     0 -1.436949498E+02 -1.791002538E+02 -1.423662718E+03  1.447468713E+03  1.250000000E+02  0.00000E+00  9.000E+00
      21     1     1     2   501   511  1.680185310E+02  1.294405577E-01 -1.833772867E+02  2.487116257E+02  0.000000000E+00  0.00000E+00  9.000E+00
#rwgt            2          11   5.2003004427724183E-003           6        9826           0
</event>
<event>
      5   9999  3.19816E-02  8.58413E+01 -1.00000E+00  1.26885E-01
      21    -1     0     0   502   501  0.000000000E+00  0.000000000E+00  3.585663065E+02  3.585663065E+02  0.000000000E+00  0.00000E+00  9.000E+00
      21    -1     0     0   512   502  0.000000000E+00  0.000000000E+00 -6.154031300E+02  6.154031300E+02  0.000000000E+00  0.00000E+00  9.000E+00
      25     1     1     2     0     0 -4.832151055E+01  1.666613536E+02  2.772266936E+02  3.501294258E+02  1.250000000E+02  0.00000E+00  9.000E+00
      25     1     1     2     0     0 -3.152112384E+01 -1.981872060E+02 -3.832645154E+02  4.503203733E+02  1.250000000E+02  0.00000E+00  9.000E+00
      21     1     1     2   512   501  7.984263439E+01  3.152585238E+01 -1.507990017E+02  1.735196374E+02  0.000000000E+00  0.00000E+00  9.000E+00
#rwgt            1           1   3.3024662671824134E-002           6        9861           0
</event>
<event>
      5   9999  3.19816E-02  2.01188E+01 -1.00000E+00  1.66157E-01
       2    -1     0     0   502     0  0.000000000E+00  0.000000000E+00  1.367787953E+03  1.367787953E+03  0.000000000E+00  0.00000E+00  9.000E+00
      21    -1     0     0   501   502  0.000000000E+00  0.000000000E+00 -1.160422913E+02  1.160422913E+02  0.000000000E+00  0.00000E+00  9.000E+00
      25     1     1     2     0     0 -2.194260913E+01  4.705041418E+01 -7.073527426E+01  1.527209828E+02  1.250000000E+02  0.00000E+00  9.000E+00
      25     1     1     2     0     0  1.411314761E+01 -2.851759421E+01  1.051339770E+03  1.059222709E+03  1.250000000E+02  0.00000E+00  9.000E+00
       2     1     1     2   501     0  7.829461517E+00 -1.853281996E+01  2.711411652E+02  2.718865523E+02  0.000000000E+00  0.00000E+00  9.000E+00
#rwgt            1           1   3.5272138287890581E-002           6        9907           0
</event>
<event>
      5   9999  3.19816E-02  6.90393E+01 -1.00000E+00  1.31525E-01
       2    -1     0     0   502     0  0.000000000E+00  0.000000000E+00  1.064737655E+03  1.064737655E+03  0.000000000E+00  0.00000E+00  9.000E+00
      21    -1     0     0   501   502  0.000000000E+00  0.000000000E+00 -8.120942309E+01  8.120942309E+01  0.000000000E+00  0.00000E+00  9.000E+00
      25     1     1     2     0     0  6.602108461E+01 -8.930068702E+00  1.694197968E+01  1.426553904E+02  1.250000000E+02  0.00000E+00  9.000E+00
      25     1     1     2     0     0 -1.333477734E+02  2.421204502E+01  5.270816025E+02  5.583975890E+02  1.250000000E+02  0.00000E+00  9.000E+00
       2     1     1     2   501     0  6.732668878E+01 -1.528197632E+01  4.395046496E+02  4.448940985E+02  5.394796609E-06  0.00000E+00  9.000E+00
#rwgt            1           1   2.5870584961272418E-002           6       10082           0
</event>
<event>
      5   9999  3.19816E-02  6.20172E+00 -1.00000E+00  2.23264E-01
      21    -1     0     0   502   501  0.000000000E+00  0.000000000E+00  1.737130678E+02  1.737130678E+02  0.000000000E+00  0.00000E+00  9.000E+00
      21    -1     0     0   501   511  0.000000000E+00  0.000000000E+00 -8.056099792E+02  8.056099792E+02  0.000000000E+00  0.00000E+00  9.000E+00
      25     1     1     2     0     0  1.764874384E+02 -1.938370403E+02 -2.380349213E+02  3.755079731E+02  1.250000000E+02  0.00000E+00  9.000E+00
      25     1     1     2     0     0 -1.703178652E+02  1.944676832E+02 -9.147016811E+01  3.013596633E+02  1.250000000E+02  0.00000E+00  9.000E+00
      21     1     1     2   502   511 -6.169573236E+00 -6.306429110E-01 -3.023918220E+02  3.024554106E+02  0.000000000E+00  0.00000E+00  9.000E+00
#rwgt            1           1   2.9635841438449221E-002           6       10138           0
</event>
<event>
      5   9999  3.19816E-02  2.49781E+01 -1.00000E+00  1.58779E-01
      21    -1     0     0   502   501  0.000000000E+00  0.000000000E+00  2.187740002E+03  2.187740002E+03  0.000000000E+00  0.00000E+00  9.000E+00
       2    -1     0     0   501     0  0.000000000E+00  0.000000000E+00 -1.765388569E+03  1.765388569E+03  0.000000000E+00  0.00000E+00  9.000E+00
      25     1     1     2     0     0 -1.114258762E+03 -8.341327266E+02  1.090021394E+03  1.772320974E+03  1.250000000E+02  0.00000E+00  9.000E+00
      25     1     1     2     0     0  1.091432494E+03  8.239904159E+02  1.330680417E+02  1.379680107E+03  1.250000000E+02  0.00000E+00  9.000E+00
       2     1     1     2   502     0  2.282626817E+01  1.014231068E+01 -8.007380033E+02  8.011274898E+02  2.157918644E-05  0.00000E+00  9.000E+00
#rwgt            1           1   3.5743882896945495E-002           6       10520           0
</event>
<event>
      5   9999  3.19816E-02  3.88627E+01 -1.00000E+00  1.45621E-01
      21    -1     0     0   511   501  0.000000000E+00  0.000000000E+00  1.181887461E+02  1.181887461E+02  0.000000000E+00  0.00000E+00  9.000E+00
      21    -1     0     0   501   502  0.000000000E+00  0.000000000E+00 -9.105244166E+02  9.105244166E+02  0.000000000E+00  0.00000E+00  9.000E+00
      25     1     1     2     0     0 -2.043501669E+02 -1.176837177E+02 -3.943277644E+02  4.761594627E+02  1.250000000E+02  0.00000E+00  9.000E+00
      25     1     1     2     0     0  2.008219221E+02  1.563859141E+02 -4.208539625E+02  5.074732074E+02  1.250000000E+02  0.00000E+00  9.000E+00
      21     1     1     2   511   502  3.528244777E+00 -3.870219632E+01  2.284605641E+01  4.508049250E+01  1.066240300E-06  0.00000E+00  9.000E+00
#rwgt            1           1   2.4197189956658920E-002           6       10763           0
</event>
<event>
      5   9999  3.19816E-02  4.91875E+01 -1.00000E+00  1.39483E-01
      21    -1     0     0   512   501  0.000000000E+00  0.000000000E+00  7.723038558E+01  7.723038558E+01  0.000000000E+00  0.00000E+00  9.000E+00
      21    -1     0     0   501   502  0.000000000E+00  0.000000000E+00 -6.364641937E+02  6.364641937E+02  0.000000000E+00  0.00000E+00  9.000E+00
      25     1     1     2     0     0  3.700340438E+01 -1.160920721E+02 -1.032422224E+02  2.028067495E+02  1.250000000E+02  0.00000E+00  9.000E+00
      25     1     1     2     0     0  1.180908923E+01  1.221546331E+02 -3.980029143E+02  4.348477076E+02  1.250000000E+02  0.00000E+00  9.000E+00
      21     1     1     2   512   502 -4.881249360E+01 -6.062560998E+00 -5.798867135E+01  7.604012219E+01  0.000000000E+00  0.00000E+00  9.000E+00
#rwgt            1           1   2.5859236007567499E-002           6       10809           0
</event>
<event>
      5   9999  3.19816E-02  4.12808E+01 -1.00000E+00  1.43996E-01
      21    -1     0     0   511   501  0.000000000E+00  0.000000000E+00  6.754209302E+02  6.754209302E+02  0.000000000E+00  0.00000E+00  9.000E+00
      21    -1     0     0   501   502  0.000000000E+00  0.000000000E+00 -2.088774629E+02  2.088774629E+02  0.000000000E+00  0.00000E+00  9.000E+00
      25     1     1     2     0     0  1.068601786E+02  2.806487531E+02  4.400646501E+02  5.472336947E+02  1.250000000E+02  0.00000E+00  9.000E+00
      25     1     1     2     0     0 -8.579452950E+01 -2.451474715E+02  4.096035135E-01  2.882414819E+02  1.250000000E+02  0.00000E+00  9.000E+00
      21     1     1     2   511   502 -2.106564907E+01 -3.550128156E+01  2.606921369E+01  4.882321646E+01  3.371747881E-07  0.00000E+00  9.000E+00
#rwgt            1           1   2.6723625364677549E-002           6       10885           0
</event>
<event>
      5   9999  3.19816E-02  1.05644E+02 -1.00000E+00  1.22765E-01
      21    -1     0     0   502   501  0.000000000E+00  0.000000000E+00  1.713025340E+02  1.713025340E+02  0.000000000E+00  0.00000E+00  9.000E+00
       1    -1     0     0   501     0  0.000000000E+00  0.000000000E+00 -1.024957086E+03  1.024957086E+03  0.000000000E+00  0.00000E+00  9.000E+00
      25     1     1     2     0     0  7.945806758E+01 -2.737947275E+02 -3.833980226E+02  4.938584625E+02  1.250000000E+02  0.00000E+00  9.000E+00
      25     1     1     2     0     0 -1.851002094E+02  2.731024210E+02 -1.853331423E+02  3.985227641E+02  1.250000000E+02  0.00000E+00  9.000E+00
       1     1     1     2   502     0  1.056421418E+02  6.923064620E-01 -2.849233877E+02  3.038783939E+02  3.814697266E-06  0.00000E+00  9.000E+00
#rwgt            1           1   3.0344778897534157E-002           6       10984           0
</event>
<event>
      5   9999  3.19816E-02  1.94088E+01 -1.00000E+00  1.67451E-01
      21    -1     0     0   502   501  0.000000000E+00  0.000000000E+00  1.317465229E+03  1.317465229E+03  0.000000000E+00  0.00000E+00  9.000E+00
      21    -1     0     0   511   502  0.000000000E+00  0.000000000E+00 -5.885098381E+01  5.885098381E+01  0.000000000E+00  0.00000E+00  9.000E+00
      25     1     1     2     0     0  1.942800239E+02 -1.014937061E+02  7.822293800E+02  8.219206184E+02  1.250000000E+02  0.00000E+00  9.000E+00
      25     1     1     2     0     0 -1.830388900E+02  8.567161186E+01  4.791036258E+02  5.347972930E+02  1.250000000E+02  0.00000E+00  9.000E+00
      21     1     1     2   511   501 -1.124113391E+01  1.582209423E+01 -2.718760611E+00  1.959830138E+01  1.264405455E-07  0.00000E+00  9.000E+00
#rwgt            1           1   3.0257189302828495E-002           6       11095           0
</event>
<event>
      5   9999  3.19816E-02  5.51847E+01 -1.00000E+00  1.36674E-01
      21    -1     0     0   502   501  0.000000000E+00  0.000000000E+00  9.131652182E+01  9.131652182E+01  0.000000000E+00  0.00000E+00  9.000E+00
      21    -1     0     0   501   512  0.000000000E+00  0.000000000E+00 -1.104919994E+03  1.104919994E+03  0.000000000E+00  0.00000E+00  9.000E+00
      25     1     1     2     0     0  1.341642237E+02  2.461536171E+02 -4.583694676E+02  5.516513491E+02  1.250000000E+02  0.00000E+00  9.000E+00
      25     1     1     2     0     0 -8.225456346E+01 -2.274255552E+02 -4.616375167E+02  5.359313325E+02  1.250000000E+02  0.00000E+00  9.000E+00
      21     1     1     2   502   512 -5.190966021E+01 -1.872806193E+01 -9.359648747E+01  1.086538338E+02  2.336015456E-06  0.00000E+00  9.000E+00
#rwgt            1           1   2.8243558288823981E-002           6       11300           0
</event>
<event>
      5   9999  3.19816E-02  9.22683E+01 -1.00000E+00  1.25420E-01
      21    -1     0     0   511   501  0.000000000E+00  0.000000000E+00  4.246727554E+02  4.246727554E+02  0.000000000E+00  0.00000E+00  9.000E+00
      21    -1     0     0   501   502  0.000000000E+00  0.000000000E+00 -1.608767930E+02  1.608767930E+02  0.000000000E+00  0.00000E+00  9.000E+00
      25     1     1     2     0     0 -1.826686109E+02  9.775079231E+00  1.788492177E+02  2.847374515E+02  1.250000000E+02  0.00000E+00  9.000E+00
      25     1     1     2     0     0  1.072502414E+02 -6.293067432E+01  1.375792383E+00  1.763229334E+02  1.250000000E+02  0.00000E+00  9.000E+00
      21     1     1     2   511   502  7.541836954E+01  5.315559509E+01  8.357095237E+01  1.244891635E+02  2.132480600E-06  0.00000E+00  9.000E+00
#rwgt            1           1   3.5705413657305909E-002           6       11386           0
</event>
<event>
      5   9999  3.19816E-02  1.39611E+01 -1.00000E+00  1.80372E-01
      21    -1     0     0   502   501  0.000000000E+00  0.000000000E+00  6.837696646E+01  6.837696646E+01  0.000000000E+00  0.00000E+00  9.000E+00
       1    -1     0     0   501     0  0.000000000E+00  0.000000000E+00 -1.791574859E+03  1.791574859E+03  0.000000000E+00  0.00000E+00  9.000E+00
      25     1     1     2     0     0 -1.282156719E+02 -2.557811931E+00 -1.218030669E+02  2.165797498E+02  1.250000000E+02  0.00000E+00  9.000E+00
      25     1     1     2     0     0  1.146173266E+02 -6.038921643E-01 -3.222686397E+02  3.641697027E+02  1.250000000E+02  0.00000E+00  9.000E+00
       1     1     1     2   502     0  1.359834534E+01  3.161704096E+00 -1.279126186E+03  1.279202373E+03  2.642899792E-05  0.00000E+00  9.000E+00
#rwgt            1           1   1.9481991234040125E-002           6       11465           0
</event>
<event>
      5   9999  3.19816E-02  1.39471E+01 -1.00000E+00  1.80414E-01
      21    -1     0     0   502   501  0.000000000E+00  0.000000000E+00  3.135971501E+02  3.135971501E+02  0.000000000E+00  0.00000E+00  9.000E+00
      21    -1     0     0   501   511  0.000000000E+00  0.000000000E+00 -9.892156369E+02  9.892156369E+02  0.000000000E+00  0.00000E+00  9.000E+00
      25     1     1     2     0     0  2.559668621E+02 -8.239097197E+01  1.406990895E+01  2.968674268E+02  1.250000000E+02  0.00000E+00  9.000E+00
      25     1     1     2     0     0 -2.697229296E+02  8.009069436E+01  8.130454432E+00  3.079871464E+02  1.250000000E+02  0.00000E+00  9.000E+00
      21     1     1     2   502   511  1.375606752E+01  2.300277610E+00 -6.978188502E+02  6.979582139E+02  7.629394531E-06  0.00000E+00  9.000E+00
#rwgt            1           1   2.5527087648340583E-002           6       11632           0
</event>
<event>
      5   9999  3.19816E-02  1.18707E+03 -1.00000E+00  8.92384E-02
      21    -1     0     0   502   501  0.000000000E+00  0.000000000E+00  7.394355723E+02  7.394355723E+02  0.000000000E+00  0.00000E+00  9.000E+00
       2    -1     0     0   501     0  0.000000000E+00  0.000000000E+00 -3.431691843E+03  3.431691843E+03  0.000000000E+00  0.00000E+00  9.000E+00
      25     1     1     2     0     0  2.597535751E+02 -4.264786975E+02 -1.001358224E+03  1.125921530E+03  1.250000000E+02  0.00000E+00  9.000E+00
      25     1     1     2     0     0  9.246372871E+02  5.062218899E+02 -1.085194430E+02  1.067059597E+03  1.250000000E+02  0.00000E+00  9.000E+00
       2     1     1     2   502     0 -1.184390862E+03 -7.974319242E+01 -1.582378604E+03  1.978146288E+03  2.157918644E-05  0.00000E+00  9.000E+00
#rwgt            2          13   5.9006543888529646E-004           6       11774           0
</event>
<event>
      5   9999  3.19816E-02  5.98656E+00 -1.00000E+00  2.25623E-01
      21    -1     0     0   511   501  0.000000000E+00  0.000000000E+00  3.591781217E+02  3.591781217E+02  0.000000000E+00  0.00000E+00  9.000E+00
      21    -1     0     0   501   502  0.000000000E+00  0.000000000E+00 -7.807144455E+02  7.807144455E+02  0.000000000E+00  0.00000E+00  9.000E+00
      25     1     1     2     0     0  2.952599559E+02 -9.062654470E+01  2.272535787E+02  4.033122874E+02  1.250000000E+02  0.00000E+00  9.000E+00
      25     1     1     2     0     0 -3.012464048E+02  9.058973191E+01 -6.472165577E+02  7.303904220E+02  1.250000000E+02  0.00000E+00  9.000E+00
      21     1     1     2   511   502  5.986448873E+00  3.681278877E-02 -1.573344841E+00  6.189857775E+00  1.154238983E-07  0.00000E+00  9.000E+00
#rwgt            1           1   2.9822530715884404E-002           6       11793           0
</event>
<event>
      5   9999  3.19816E-02  2.33545E+02 -1.00000E+00  1.09250E-01
      21    -1     0     0   502   501  0.000000000E+00  0.000000000E+00  6.853018482E+02  6.853018482E+02  0.000000000E+00  0.00000E+00  9.000E+00
      21    -1     0     0   512   502  0.000000000E+00  0.000000000E+00 -1.574174068E+03  1.574174068E+03  0.000000000E+00  0.00000E+00  9.000E+00
      25     1     1     2     0     0  3.704355430E+02  5.446291454E+02 -1.027304393E+03  1.226712156E+03  1.250000000E+02  0.00000E+00  9.000E+00
      25     1     1     2     0     0 -1.403145523E+02 -5.047873260E+02  4.082840840E+02  6.758840960E+02  1.250000000E+02  0.00000E+00  9.000E+00
      21     1     1     2   512   501 -2.301209907E+02 -3.984181946E+01 -2.698519103E+02  3.568796638E+02  3.814697266E-06  0.00000E+00  9.000E+00
#rwgt            1           1   3.1792885747733333E-002           6       12065           0
</event>
<event>
      5   9999  3.19816E-02  2.86252E+01 -1.00000E+00  1.54468E-01
      21    -1     0     0   502   501  0.000000000E+00  0.000000000E+00  7.827794092E+02  7.827794092E+02  0.000000000E+00  0.00000E+00  9.000E+00
       1    -1     0     0   501     0  0.000000000E+00  0.000000000E+00 -2.979801536E+03  2.979801536E+03  0.000000000E+00  0.00000E+00  9.000E+00
      25     1     1     2     0     0  3.660873570E+01 -1.661977661E+02  5.408216684E+02  5.805815826E+02  1.250000000E+02  0.00000E+00  9.000E+00
      25     1     1     2     0     0 -2.476351546E+01  1.401383077E+02  1.816070028E+02  2.624082325E+02  1.250000000E+02  0.00000E+00  9.000E+00
       1     1     1     2   502     0 -1.184522024E+01  2.605945844E+01 -2.919450798E+03  2.919591130E+03  4.315837288E-05  0.00000E+00  9.000E+00
#rwgt            1           1   2.2944373872936272E-002           6       12134           0
</event>
<event>
      5   9999  3.19816E-02  1.26564E+02 -1.00000E+00  1.19395E-01
      21    -1     0     0   502   501  0.000000000E+00  0.000000000E+00  2.055490286E+02  2.055490286E+02  0.000000000E+00  0.00000E+00  9.000E+00
       2    -1     0     0   501     0  0.000000000E+00  0.000000000E+00 -2.929979910E+03  2.929979910E+03  0.000000000E+00  0.00000E+00  9.000E+00
      25     1     1     2     0     0  4.711926614E+02 -1.559320900E+02 -9.097312176E+02  1.043826245E+03  1.250000000E+02  0.00000E+00  9.000E+00
      25     1     1     2     0     0 -5.603799713E+02  2.457323563E+02 -5.856913960E+02  8.561947877E+02  1.250000000E+02  0.00000E+00  9.000E+00
       2     1     1     2   502     0  8.918730994E+01 -8.980026633E+01 -1.229008267E+03  1.235507906E+03  0.000000000E+00  0.00000E+00  9.000E+00
#rwgt            1           1   2.7694421376973127E-002           6       12243           0
</event>
<event>
      5   9999  3.19816E-02  2.14709E+02 -1.00000E+00  1.10537E-01
      21    -1     0     0   502   501  0.000000000E+00  0.000000000E+00  3.582806739E+02  3.582806739E+02  0.000000000E+00  0.00000E+00  9.000E+00
      21    -1     0     0   501   511  0.000000000E+00  0.000000000E+00 -5.772499318E+02  5.772499318E+02  0.000000000E+00  0.00000E+00  9.000E+00
      25     1     1     2     0     0 -1.293203629E+02 -1.178119890E+02  1.263883890E+02  2.494041818E+02  1.250000000E+02  0.00000E+00  9.000E+00
      25     1     1     2     0     0  3.941273950E+01  3.127906931E+02 -8.685641190E+01  3.500863008E+02  1.250000000E+02  0.00000E+00  9.000E+00
      21     1     1     2   502   511  8.990762335E+01 -1.949787041E+02 -2.585012351E+02  3.360401231E+02  3.814697266E-06  0.00000E+00  9.000E+00
#rwgt            1           1   2.7346968582712575E-002           6       12294           0
</event>
<event>
      5   9999  3.19816E-02  4.28886E+01 -1.00000E+00  1.42987E-01
      21    -1     0     0   502   512  0.000000000E+00  0.000000000E+00  7.434484489E+02  7.434484489E+02  0.000000000E+00  0.00000E+00  9.000E+00
      21    -1     0     0   501   502  0.000000000E+00  0.000000000E+00 -1.137874549E+03  1.137874549E+03  0.000000000E+00  0.00000E+00  9.000E+00
      25     1     1     2     0     0  6.848556358E+02  4.361615965E+02  1.763756504E+02  8.402366037E+02  1.250000000E+02  0.00000E+00  9.000E+00
      25     1     1     2     0     0 -6.842679566E+02 -3.932770013E+02 -5.908043333E+02  9.937626459E+02  1.250000000E+02  0.00000E+00  9.000E+00
      21     1     1     2   501   512 -5.876792677E-01 -4.288459517E+01  2.000258244E+01  4.732374852E+01  8.259061849E-07  0.00000E+00  9.000E+00
#rwgt            1           1   2.9638788113829487E-002           6       12338           0
</event>
<event>
      5   9999  3.19816E-02  2.06231E+02 -1.00000E+00  1.11165E-01
      -1    -1     0     0     0   501  0.000000000E+00  0.000000000E+00  6.162704899E+02  6.162704899E+02  0.000000000E+00  0.00000E+00  9.000E+00
      21    -1     0     0   501   502  0.000000000E+00  0.000000000E+00 -1.609356765E+03  1.609356765E+03  0.000000000E+00  0.00000E+00  9.000E+00
      25     1     1     2     0     0 -1.180567665E+02  3.659478807E+02  5.464523828E+01  4.080028842E+02  1.250000000E+02  0.00000E+00  9.000E+00
      25     1     1     2     0     0  2.421177689E+02 -5.306899796E+02 -1.336024935E+03  1.463161131E+03  1.250000000E+02  0.00000E+00  9.000E+00
      -1     1     1     2     0   502 -1.240610024E+02  1.647420989E+02  2.882934215E+02  3.544632398E+02  6.607249480E-06  0.00000E+00  9.000E+00
#rwgt            1           1   2.9056348905543032E-002           6       12506           0
</event>
<event>
      5   9999  3.19816E-02  3.02902E+01 -1.00000E+00  1.52750E-01
      21    -1     0     0   511   501  0.000000000E+00  0.000000000E+00  3.104237691E+02  3.104237691E+02  0.000000000E+00  0.00000E+00  9.000E+00
      21    -1     0     0   501   502  0.000000000E+00  0.000000000E+00 -3.092738395E+02  3.092738395E+02  0.000000000E+00  0.00000E+00  9.000E+00
      25     1     1     2     0     0  1.610096861E+02  9.396355546E+01  1.423882259E+02  2.658057103E+02  1.250000000E+02  0.00000E+00  9.000E+00
      25     1     1     2     0     0 -1.391325508E+02 -1.149131708E+02 -1.940630714E+02  2.929989406E+02  1.250000000E+02  0.00000E+00  9.000E+00
      21     1     1     2   511   502 -2.187713531E+01  2.094961530E+01  5.282477507E+01  6.089295765E+01  1.168007728E-06  0.00000E+00  9.000E+00
#rwgt            1           1   2.6562001913251913E-002           6       12567           0
</event>
<event>
      5   9999  3.19816E-02  2.00724E+01 -1.00000E+00  1.66240E-01
      21    -1     0     0   502   501  0.000000000E+00  0.000000000E+00  5.180673050E+01  5.180673050E+01  0.000000000E+00  0.00000E+00  9.000E+00
      21    -1     0     0   512   502  0.000000000E+00  0.000000000E+00 -1.207332166E+03  1.207332166E+03  0.000000000E+00  0.00000E+00  9.000E+00
      25     1     1     2     0     0  5.998281259E-01  8.318153517E+01 -7.966694935E+01  1.699745581E+02  1.250000000E+02  0.00000E+00  9.000E+00
      25     1     1     2     0     0  1.911190599E+01 -7.939373783E+01 -9.242113452E+02  9.361945531E+02  1.250000000E+02  0.00000E+00  9.000E+00
      21     1     1     2   512   501 -1.971173412E+01 -3.787797336E+00 -1.516471406E+02  1.529697850E+02  2.697398305E-06  0.00000E+00  9.000E+00
#rwgt            1           1   2.8440563337649022E-002           6       12671           0
</event>
<event>
      5   9999  3.19816E-02  7.22461E+01 -1.00000E+00  1.30530E-01
      21    -1     0     0   502   501  0.000000000E+00  0.000000000E+00  1.094155277E+03  1.094155277E+03  0.000000000E+00  0.00000E+00  9.000E+00
      21    -1     0     0   501   511  0.000000000E+00  0.000000000E+00 -2.188311625E+02  2.188311625E+02  0.000000000E+00  0.00000E+00  9.000E+00
      25     1     1     2     0     0 -2.123868436E+02 -5.259789992E+01  4.877432676E+01  2.566683568E+02  1.250000000E+02  0.00000E+00  9.000E+00
      25     1     1     2     0     0  2.186970992E+02  1.245678878E+02  9.062066468E+02  9.487787237E+02  1.250000000E+02  0.00000E+00  9.000E+00
      21     1     1     2   502   511 -6.310255579E+00 -7.196998790E+01 -7.965685919E+01  1.075393588E+02  2.523185073E-06  0.00000E+00  9.000E+00
#rwgt            1           1   2.6267495330838567E-002           6       12824           0
</event>
<event>
      5   9999  3.19816E-02  1.40337E+02 -1.00000E+00  1.17551E-01
      21    -1     0     0   502   501  0.000000000E+00  0.000000000E+00  1.248156495E+03  1.248156495E+03  0.000000000E+00  0.00000E+00  9.000E+00
      21    -1     0     0   512   502  0.000000000E+00  0.000000000E+00 -1.256085831E+03  1.256085831E+03  0.000000000E+00  0.00000E+00  9.000E+00
      25     1     1     2     0     0 -5.329411901E+02  1.398987724E+02  7.372266296E+02  9.288304915E+02  1.250000000E+02  0.00000E+00  9.000E+00
      25     1     1     2     0     0  6.397330233E+02 -4.885005944E+01  1.489043904E+02  6.704044950E+02  1.250000000E+02  0.00000E+00  9.000E+00
      21     1     1     2   512   501 -1.067918333E+02 -9.104871296E+01 -8.940603562E+02  9.050073394E+02  1.078959322E-05  0.00000E+00  9.000E+00
#rwgt            1           1   3.3779365203672911E-002           6       12895           0
</event>
<event>
      5   9999  3.19816E-02  2.82547E+01 -1.00000E+00  1.54870E-01
      21    -1     0     0   502   501  0.000000000E+00  0.000000000E+00  7.961649867E+01  7.961649867E+01  0.000000000E+00  0.00000E+00  9.000E+00
       1    -1     0     0   501     0  0.000000000E+00  0.000000000E+00 -1.019421779E+03  1.019421779E+03  0.000000000E+00  0.00000E+00  9.000E+00
      25     1     1     2     0     0  1.705261143E+00  1.677933679E+02 -7.919887810E+02  8.191634461E+02  1.250000000E+02  0.00000E+00  9.000E+00
      25     1     1     2     0     0  2.646663636E+01 -1.656316708E+02 -1.262796271E+02  2.443478615E+02  1.250000000E+02  0.00000E+00  9.000E+00
       1     1     1     2   502     0 -2.817189751E+01 -2.161697033E+00 -2.153687259E+01  3.552697038E+01  5.840038640E-07  0.00000E+00  9.000E+00
#rwgt            1           1   2.8205396006258331E-002           6       12968           0
</event>
<event>
      5   9999  3.19816E-02  1.99744E+02 -1.00000E+00  1.11668E-01
      21    -1     0     0   511   501  0.000000000E+00  0.000000000E+00  4.898496962E+02  4.898496962E+02  0.000000000E+00  0.00000E+00  9.000E+00
      21    -1     0     0   501   502  0.000000000E+00  0.000000000E+00 -1.052406406E+03  1.052406406E+03  0.000000000E+00  0.00000E+00  9.000E+00
      25     1     1     2     0     0  2.796760410E+02  4.136613388E+02  3.399025226E+01  5.158630907E+02  1.250000000E+02  0.00000E+00  9.000E+00
      25     1     1     2     0     0 -1.012238963E+02 -5.033980964E+02 -6.316717765E+02  8.235837261E+02  1.250000000E+02  0.00000E+00  9.000E+00
      21     1     1     2   511   502 -1.784521447E+02  8.973675761E+01  3.512481455E+01  2.028092853E+02  1.651812370E-06  0.00000E+00  9.000E+00
#rwgt            2          11   5.1002450886387897E-003           6       13274           0
</event>
<event>
      5   9999  3.19816E-02  2.75968E+01 -1.00000E+00  1.55602E-01
      21    -1     0     0   502   512  0.000000000E+00  0.000000000E+00  9.083740560E+02  9.083740560E+02  0.000000000E+00  0.00000E+00  9.000E+00
      21    -1     0     0   501   502  0.000000000E+00  0.000000000E+00 -4.688544272E+02  4.688544272E+02  0.000000000E+00  0.00000E+00  9.000E+00
      25     1     1     2     0     0 -9.566659498E+01  2.109360138E+02 -2.421171546E+02  3.576196525E+02  1.250000000E+02  0.00000E+00  9.000E+00
      25     1     1     2     0     0  1.076645163E+02 -1.860838243E+02 -7.710661949E+01  2.603637235E+02  1.250000000E+02  0.00000E+00  9.000E+00
      21     1     1     2   501   512 -1.199792135E+01 -2.485218955E+01  7.587434028E+02  7.592451072E+02  0.000000000E+00  0.00000E+00  9.000E+00
#rwgt            1           1   2.6822455112968029E-002           6       13294           0
</event>
<event>
      5   9999  3.19816E-02  4.03202E+02 -1.00000E+00  1.01581E-01
      21    -1     0     0   511   501  0.000000000E+00  0.000000000E+00  1.002321344E+03  1.002321344E+03  0.000000000E+00  0.00000E+00  9.000E+00
      21    -1     0     0   501   502  0.000000000E+00  0.000000000E+00 -1.598439228E+03  1.598439228E+03  0.000000000E+00  0.00000E+00  9.000E+00
      25     1     1     2     0     0 -1.225330468E+02  4.924525114E+02 -8.326142865E+02  9.830541051E+02  1.250000000E+02  0.00000E+00  9.000E+00
      25     1     1     2     0     0  5.140343654E+02 -3.960230538E+02 -4.653869753E+02  8.082546781E+02  1.250000000E+02  0.00000E+00  9.000E+00
      21     1     1     2   511   502 -3.915013186E+02 -9.642945764E+01  7.018833779E+02  8.094517891E+02  1.868812365E-05  0.00000E+00  9.000E+00
#rwgt            2          11   3.3541722895243094E-003           6       13601           0
</event>
<event>
      5   9999  3.19816E-02  1.43301E+02 -1.00000E+00  1.17185E-01
       1    -1     0     0   502     0  0.000000000E+00  0.000000000E+00  1.510067272E+03  1.510067272E+03  0.000000000E+00  0.00000E+00  9.000E+00
      21    -1     0     0   501   502  0.000000000E+00  0.000000000E+00 -1.035822933E+02  1.035822933E+02  0.000000000E+00  0.00000E+00  9.000E+00
      25     1     1     2     0     0  2.149666886E+01  8.786779352E+01  2.274314630E+02  2.748325423E+02  1.250000000E+02  0.00000E+00  9.000E+00
      25     1     1     2     0     0  1.131543927E+02 -1.369002643E+02  8.154352825E+01  2.319912626E+02  1.250000000E+02  0.00000E+00  9.000E+00
       1     1     1     2   501     0 -1.346510615E+02  4.903247076E+01  1.097509988E+03  1.106825761E+03  2.157918644E-05  0.00000E+00  9.000E+00
#rwgt            2          17   6.1659574207609811E-004           6       13681           0
</event>
<event>
      5   9999  3.19816E-02  1.22370E+01 -1.00000E+00  1.86140E-01
      21    -1     0     0   502   511  0.000000000E+00  0.000000000E+00  3.154624975E+02  3.154624975E+02  0.000000000E+00  0.00000E+00  9.000E+00
      21    -1     0     0   501   502  0.000000000E+00  0.000000000E+00 -3.485197176E+02  3.485197176E+02  0.000000000E+00  0.00000E+00  9.000E+00
      25     1     1     2     0     0 -4.026289504E+01 -1.594876178E+02  2.052990910E+02  2.912561033E+02  1.250000000E+02  0.00000E+00  9.000E+00
      25     1     1     2     0     0  4.657737255E+01  1.699695343E+02 -2.658815060E+02  3.426033704E+02  1.250000000E+02  0.00000E+00  9.000E+00
      21     1     1     2   501   511 -6.314477510E+00 -1.048191650E+01  2.752519489E+01  3.012274147E+01  3.371747881E-07  0.00000E+00  9.000E+00
#rwgt            1           1   2.6273310833032488E-002           6       13805           0
</event>
<event>
      5   9999  3.19816E-02  9.21402E+01 -1.00000E+00  1.25448E-01
      21    -1     0     0   502   512  0.000000000E+00  0.000000000E+00  1.108209196E+03  1.108209196E+03  0.000000000E+00  0.00000E+00  9.000E+00
      21    -1     0     0   501   502  0.000000000E+00  0.000000000E+00 -3.325295144E+02  3.325295144E+02  0.000000000E+00  0.00000E+00  9.000E+00
      25     1     1     2     0     0  2.179018535E+02 -3.415989377E+01 -2.327115814E+02  3.441333988E+02  1.250000000E+02  0.00000E+00  9.000E+00
      25     1     1     2     0     0 -3.087508308E+02  1.878878454E+01  8.533878002E+02  9.162837069E+02  1.250000000E+02  0.00000E+00  9.000E+00
      21     1     1     2   501   512  9.084897735E+01  1.537110923E+01  1.550034632E+02  1.803216051E+02  2.697398305E-06  0.00000E+00  9.000E+00
#rwgt            1           1   3.0354610166226592E-002           6       14009           0
</event>
<event>
      5   9999  3.19816E-02  2.61170E+01 -1.00000E+00  1.57342E-01
      21    -1     0     0   502   511  0.000000000E+00  0.000000000E+00  8.899245300E+01  8.899245300E+01  0.000000000E+00  0.00000E+00  9.000E+00
      21    -1     0     0   501   502  0.000000000E+00  0.000000000E+00 -2.523873825E+03  2.523873825E+03  0.000000000E+00  0.00000E+00  9.000E+00
      25     1     1     2     0     0 -4.221528852E+01 -1.045713227E+02 -1.300670360E+03  1.311520369E+03  1.250000000E+02  0.00000E+00  9.000E+00
      25     1     1     2     0     0  2.150504267E+01  8.865956169E+01 -1.210685009E+03  1.220535201E+03  1.250000000E+02  0.00000E+00  9.000E+00
      21     1     1     2   501   511  2.071024585E+01  1.591176099E+01  7.647399704E+01  8.081070872E+01  9.536743164E-07  0.00000E+00  9.000E+00
#rwgt            1           1   3.3983413223905898E-002           6       14143           0
</event>
<event>
      5   9999  3.19816E-02  9.03781E+01 -1.00000E+00  1.25837E-01
      21    -1     0     0   502   501  0.000000000E+00  0.000000000E+00  2.306005447E+02  2.306005447E+02  0.000000000E+00  0.00000E+00  9.000E+00
      21    -1     0     0   501   512  0.000000000E+00  0.000000000E+00 -1.340952808E+03  1.340952808E+03  0.000000000E+00  0.00000E+00  9.000E+00
      25     1     1     2     0     0 -5.088889175E+01  4.353908520E+02 -3.137777838E+02  5.533862764E+02  1.250000000E+02  0.00000E+00  9.000E+00
      25     1     1     2     0     0  5.715973451E+01 -5.255511890E+02 -6.678491415E+02  8.608825491E+02  1.250000000E+02  0.00000E+00  9.000E+00
      21     1     1     2   502   512 -6.270842756E+00  9.016033701E+01 -1.287253379E+02  1.572845270E+02  2.697398305E-06  0.00000E+00  9.000E+00
#rwgt            2          11   4.9611710832185279E-003           6       14246           0
</event>
<event>
      5   9999  3.19816E-02  1.25426E+02 -1.00000E+00  1.19559E-01
      21    -1     0     0   511   501  0.000000000E+00  0.000000000E+00  7.432329168E+02  7.432329168E+02  0.000000000E+00  0.00000E+00  9.000E+00
      21    -1     0     0   501   502  0.000000000E+00  0.000000000E+00 -2.362008521E+02  2.362008521E+02  0.000000000E+00  0.00000E+00  9.000E+00
      25     1     1     2     0     0  1.494331134E+02  1.343622563E+02  1.196130874E+02  2.651711938E+02  1.250000000E+02  0.00000E+00  9.000E+00
      25     1     1     2     0     0 -1.898374465E+02 -2.531022303E+02  3.713878902E+01  3.422035720E+02  1.250000000E+02  0.00000E+00  9.000E+00
      21     1     1     2   511   502  4.040433308E+01  1.187399739E+02  3.502801882E+02  3.720590031E+02  6.607249480E-06  0.00000E+00  9.000E+00
#rwgt            2          11   2.3588081806653785E-003           6       14281           0
</event>
<event>
      5   9999  3.19816E-02  1.88918E+01 -1.00000E+00  1.68438E-01
      21    -1     0     0   512   501  0.000000000E+00  0.000000000E+00  8.704159029E+01  8.704159029E+01  0.000000000E+00  0.00000E+00  9.000E+00
      21    -1     0     0   501   502  0.000000000E+00  0.000000000E+00 -1.956933105E+03  1.956933105E+03  0.000000000E+00  0.00000E+00  9.000E+00
      25     1     1     2     0     0 -1.972654654E+02  2.433773692E+02 -1.482381891E+03  1.520272107E+03  1.250000000E+02  0.00000E+00  9.000E+00
      25     1     1     2     0     0  2.061467251E+02 -2.267033778E+02 -3.785060429E+02  5.027750176E+02  1.250000000E+02  0.00000E+00  9.000E+00
      21     1     1     2   512   502 -8.881259759E+00 -1.667399147E+01 -9.003581018E+00  2.092757123E+01  5.840038640E-07  0.00000E+00  9.000E+00
#rwgt            1           1   2.7310733766576008E-002           6       14301           0
</event>
<event>
      5   9999  3.19816E-02  4.65645E+01 -1.00000E+00  1.40863E-01
      21    -1     0     0   511   501  0.000000000E+00  0.000000000E+00  1.460214256E+03  1.460214256E+03  0.000000000E+00  0.00000E+00  9.000E+00
      21    -1     0     0   501   502  0.000000000E+00  0.000000000E+00 -4.276009722E+02  4.276009722E+02  0.000000000E+00  0.00000E+00  9.000E+00
      25     1     1     2     0     0  5.530962204E+02  1.328160399E+02  2.291485279E+01  5.828427060E+02  1.250000000E+02  0.00000E+00  9.000E+00
      25     1     1     2     0     0 -5.912608734E+02 -1.061380447E+02  4.954992550E+02  7.886692695E+02  1.250000000E+02  0.00000E+00  9.000E+00
      21     1     1     2   511   502  3.816465300E+01 -2.667799518E+01  5.141991756E+02  5.163032524E+02  7.629394531E-06  0.00000E+00  9.000E+00
#rwgt            1           1   3.5404250482427381E-002           6       14500           0
</event>
<event>
      5   9999  3.19816E-02  2.43957E+01 -1.00000E+00  1.59551E-01
      21    -1     0     0   502   501  0.000000000E+00  0.000000000E+00  3.502509968E+02  3.502509968E+02  0.000000000E+00  0.00000E+00  9.000E+00
      21    -1     0     0   501   512  0.000000000E+00  0.000000000E+00 -4.927352701E+02  4.927352701E+02  0.000000000E+00  0.00000E+00  9.000E+00
      25     1     1     2     0     0 -2.742386856E+02 -1.905404568E+02  3.375676333E+01  3.581578443E+02  1.250000000E+02  0.00000E+00  9.000E+00
      25     1     1     2     0     0  2.964622692E+02  2.006034774E+02 -8.257866042E+01  3.880410640E+02  1.250000000E+02  0.00000E+00  9.000E+00
      21     1     1     2   502   512 -2.222358356E+01 -1.006302059E+01 -9.366237620E+01  9.678735850E+01  0.000000000E+00  0.00000E+00  9.000E+00
#rwgt            1           1   2.9147638584380395E-002           6       14621           0
</event>
<event>
      5   9999  3.19816E-02  1.35270E+02 -1.00000E+00  1.18201E-01
      21    -1     0     0   502   511  0.000000000E+00  0.000000000E+00  1.526513969E+03  1.526513969E+03  0.000000000E+00  0.00000E+00  9.000E+00
      21    -1     0     0   501   502  0.000000000E+00  0.000000000E+00 -4.355771994E+01  4.355771994E+01  0.000000000E+00  0.00000E+00  9.000E+00
      25     1     1     2     0     0 -9.061877653E+01 -4.303953141E+01  5.169615409E+02  5.412378393E+02  1.250000000E+02  0.00000E+00  9.000E+00
      25     1     1     2     0     0 -3.807052816E+01  8.471760387E+01  2.134039548E+02  2.641830529E+02  1.250000000E+02  0.00000E+00  9.000E+00
      21     1     1     2   501   511  1.286893047E+02 -4.167807247E+01  7.525907532E+02  7.646507965E+02  1.078959322E-05  0.00000E+00  9.000E+00
#rwgt            1           1   6.6655539085904353E-002           6       14788           0
</event>
<event>
      5   9999  3.19816E-02  3.42348E+01 -1.00000E+00  1.49161E-01
      21    -1     0     0   502   501  0.000000000E+00  0.000000000E+00  2.479086157E+02  2.479086157E+02  0.000000000E+00  0.00000E+00  9.000E+00
      21    -1     0     0   501   512  0.000000000E+00  0.000000000E+00 -5.136609511E+02  5.136609511E+02  0.000000000E+00  0.00000E+00  9.000E+00
      25     1     1     2     0     0  5.311435200E+01  1.770064639E+01  2.037775118E+02  2.455294719E+02  1.250000000E+02  0.00000E+00  9.000E+00
      25     1     1     2     0     0 -7.443555138E+01 -4.448545039E+01 -4.533097673E+02  4.781572458E+02  1.250000000E+02  0.00000E+00  9.000E+00
      21     1     1     2   502   512  2.132119938E+01  2.678480400E+01 -1.622007981E+01  3.788284912E+01  5.331201500E-07  0.00000E+00  9.000E+00
#rwgt            1           1   3.3144013869438216E-002           6       14842           0
</event>
<event>
      5   9999  3.19816E-02  2.07702E+01 -1.00000E+00  1.65026E-01
      21    -1     0     0   502   501  0.000000000E+00  0.000000000E+00  1.615445135E+02  1.615445135E+02  0.000000000E+00  0.00000E+00  9.000E+00
      21    -1     0     0   511   502  0.000000000E+00  0.000000000E+00 -4.014469867E+02  4.014469867E+02  0.000000000E+00  0.00000E+00  9.000E+00
      25     1     1     2     0     0 -1.413144727E+01  4.056921830E+01 -1.154024279E+02  1.754658931E+02  1.250000000E+02  0.00000E+00  9.000E+00
      25     1     1     2     0     0  2.319626077E+01 -5.925690153E+01  9.347794978E+01  1.685602978E+02  1.250000000E+02  0.00000E+00  9.000E+00
      21     1     1     2   511   501 -9.064813492E+00  1.868768323E+01 -2.179779951E+02  2.189653093E+02  2.697398305E-06  0.00000E+00  9.000E+00
#rwgt            1           1   2.3838163494388713E-002           6       14989           0
</event>
<event>
      5   9999  3.19816E-02  1.84571E+01 -1.00000E+00  1.69298E-01
      21    -1     0     0   512   501  0.000000000E+00  0.000000000E+00  3.441937558E+02  3.441937558E+02  0.000000000E+00  0.00000E+00  9.000E+00
      21    -1     0     0   501   502  0.000000000E+00  0.000000000E+00 -4.631849189E+02  4.631849189E+02  0.000000000E+00  0.00000E+00  9.000E+00
      25     1     1     2     0     0  2.372588497E+01  8.369931523E+01 -4.138602428E+02  4.409918294E+02  1.250000000E+02  0.00000E+00  9.000E+00
      25     1     1     2     0     0 -1.186181515E+01 -6.956045873E+01  1.106346895E+02  1.812302254E+02  1.250000000E+02  0.00000E+00  9.000E+00
      21     1     1     2   512   502 -1.186406983E+01 -1.413885650E+01  1.842343902E+02  1.851566200E+02  2.697398305E-06  0.00000E+00  9.000E+00
#rwgt            1           1   2.6827230661664880E-002           6       15123           0
</event>
<event>
      5   9999  3.19816E-02  7.69059E+01 -1.00000E+00  1.29184E-01
      21    -1     0     0   502   501  0.000000000E+00  0.000000000E+00  1.013302298E+03  1.013302298E+03  0.000000000E+00  0.00000E+00  9.000E+00
      21    -1     0     0   501   511  0.000000000E+00  0.000000000E+00 -4.034191959E+02  4.034191959E+02  0.000000000E+00  0.00000E+00  9.000E+00
      25     1     1     2     0     0 -8.553904789E+01  8.941048492E+01  4.924793180E+02  5.229455442E+02  1.250000000E+02  0.00000E+00  9.000E+00
      25     1     1     2     0     0  7.075605355E+01 -1.393873921E+01  4.912980956E+02  5.120542220E+02  1.250000000E+02  0.00000E+00  9.000E+00
      21     1     1     2   502   511  1.478299433E+01 -7.547174571E+01 -3.738943114E+02  3.817217277E+02  9.344061824E-06  0.00000E+00  9.000E+00
#rwgt            1           1   7.1806933290147243E-002           6       15226           0
</event>
<event>
      5   9999  3.19816E-02  4.81006E+01 -1.00000E+00  1.40042E-01
      21    -1     0     0   502   512  0.000000000E+00  0.000000000E+00  7.188246656E+01  7.188246656E+01  0.000000000E+00  0.00000E+00  9.000E+00
      21    -1     0     0   501   502  0.000000000E+00  0.000000000E+00 -1.309615550E+03  1.309615550E+03  0.000000000E+00  0.00000E+00  9.000E+00
      25     1     1     2     0     0  1.848404037E+02  1.595982822E+02 -5.606834712E+02  6.242023241E+02  1.250000000E+02  0.00000E+00  9.000E+00
      25     1     1     2     0     0 -1.571518891E+02 -1.989303255E+02 -6.275809351E+02  6.882970440E+02  1.250000000E+02  0.00000E+00  9.000E+00
      21     1     1     2   501   512 -2.768851459E+01  3.933204327E+01 -4.946867698E+01  6.899864832E+01  1.348699152E-06  0.00000E+00  9.000E+00
#rwgt            1           1   2.7343649155349408E-002           6       15291           0
</event>
<event>
      5   9999  3.19816E-02  9.99033E+01 -1.00000E+00  1.23847E-01
       2    -1     0     0   502     0  0.000000000E+00  0.000000000E+00  2.162550324E+03  2.162550324E+03  0.000000000E+00  0.00000E+00  9.000E+00
      21    -1     0     0   501   502  0.000000000E+00  0.000000000E+00 -4.803940225E+01  4.803940225E+01  0.000000000E+00  0.00000E+00  9.000E+00
      25     1     1     2     0     0 -1.226904756E+02 -5.492539817E+01  4.452238967E+02  4.815797653E+02  1.250000000E+02  0.00000E+00  9.000E+00
      25     1     1     2     0     0  1.225652300E+02 -4.497786229E+01  2.626761397E+02  3.188557638E+02  1.250000000E+02  0.00000E+00  9.000E+00
       2     1     1     2   501     0  1.252455424E-01  9.990326046E+01  1.406610885E+03  1.410154197E+03  3.051757812E-05  0.00000E+00  9.000E+00
#rwgt            1           1   2.6564095367950888E-002           6       15385           0
</event>
<event>
      5   9999  3.19816E-02  4.98714E+01 -1.00000E+00  1.39139E-01
      21    -1     0     0   502   511  0.000000000E+00  0.000000000E+00  2.667884045E+02  2.667884045E+02  0.000000000E+00  0.00000E+00  9.000E+00
      21    -1     0     0   501   502  0.000000000E+00  0.000000000E+00 -1.568351275E+03  1.568351275E+03  0.000000000E+00  0.00000E+00  9.000E+00
      25     1     1     2     0     0 -2.911860488E+02  2.999440908E+01 -1.373549407E+03  1.409947500E+03  1.250000000E+02  0.00000E+00  9.000E+00
      25     1     1     2     0     0  3.401855534E+02 -2.070966948E+01  8.664265067E+01  3.732118033E+02  1.250000000E+02  0.00000E+00  9.000E+00
      21     1     1     2   501   511 -4.899950461E+01 -9.284739601E+00 -1.465611438E+01  5.198037640E+01  8.760057960E-07  0.00000E+00  9.000E+00
#rwgt            1           1   2.9033679862376018E-002           6       15438           0
</event>
<event>
      5   9999  3.19816E-02  1.66179E+01 -1.00000E+00  1.73293E-01
      21    -1     0     0   502   512  0.000000000E+00  0.000000000E+00  1.197047644E+03  1.197047644E+03  0.000000000E+00  0.00000E+00  9.000E+00
      21    -1     0     0   501   502  0.000000000E+00  0.000000000E+00 -1.009588670E+03  1.009588670E+03  0.000000000E+00  0.00000E+00  9.000E+00
      25     1     1     2     0     0 -5.874756108E+02 -8.785163083E+02 -1.305851200E+02  1.072192133E+03  1.250000000E+02  0.00000E+00  9.000E+00
      25     1     1     2     0     0  5.764460311E+02  8.909461933E+02  2.997991117E+02  1.109765585E+03  1.250000000E+02  0.00000E+00  9.000E+00
      21     1     1     2   501   512  1.102957969E+01 -1.242988500E+01  1.824498294E+01  2.467859542E+01  3.371747881E-07  0.00000E+00  9.000E+00
#rwgt            1           1   2.9937149989062481E-002           6       15567           0
</event>
<event>
      5   9999  3.19816E-02  7.18281E+01 -1.00000E+00  1.30656E-01
      21    -1     0     0   502   501  0.000000000E+00  0.000000000E+00  1.720771762E+02  1.720771762E+02  0.000000000E+00  0.00000E+00  9.000E+00
       1    -1     0     0   501     0  0.000000000E+00  0.000000000E+00 -2.405511360E+03  2.405511360E+03  0.000000000E+00  0.00000E+00  9.000E+00
      25     1     1     2     0     0 -1.104633472E+02  4.811847445E+01 -2.654873374E+02  3.172161172E+02  1.250000000E+02  0.00000E+00  9.000E+00
      25     1     1     2     0     0  5.742734784E+01 -9.655877196E+01  9.708433548E+01  1.940924133E+02  1.250000000E+02  0.00000E+00  9.000E+00
       1     1     1     2   502     0  5.303599936E+01  4.844029751E+01 -2.065031182E+03  2.066280006E+03  0.000000000E+00  0.00000E+00  9.000E+00
#rwgt            1           1   2.7274505394893976E-002           6       15880           0
</event>
<event>
      5   9999  3.19816E-02  6.98887E+01 -1.00000E+00  1.31256E-01
      21    -1     0     0   502   501  0.000000000E+00  0.000000000E+00  8.061071948E+02  8.061071948E+02  0.000000000E+00  0.00000E+00  9.000E+00
      21    -1     0     0   501   511  0.000000000E+00  0.000000000E+00 -4.677901144E+02  4.677901144E+02  0.000000000E+00  0.00000E+00  9.000E+00
      25     1     1     2     0     0 -1.793739679E+02  5.943133577E+01  3.590892313E+01  2.293938857E+02  1.250000000E+02  0.00000E+00  9.000E+00
      25     1     1     2     0     0  1.957833563E+02 -1.273662993E+02  6.437256385E+02  6.961041549E+02  1.250000000E+02  0.00000E+00  9.000E+00
      21     1     1     2   502   511 -1.640938833E+01  6.793496352E+01 -3.413174813E+02  3.483992686E+02  3.814697266E-06  0.00000E+00  9.000E+00
#rwgt            1           1   3.6530544300113245E-002           6       15947           0
</event>
<event>
      5   9999  3.19816E-02  8.94276E+01 -1.00000E+00  1.26051E-01
      21    -1     0     0   502   501  0.000000000E+00  0.000000000E+00  1.012112494E+02  1.012112494E+02  0.000000000E+00  0.00000E+00  9.000E+00
       1    -1     0     0   501     0  0.000000000E+00  0.000000000E+00 -1.104022458E+03  1.104022458E+03  0.000000000E+00  0.00000E+00  9.000E+00
      25     1     1     2     0     0 -1.149476409E+02 -2.475670766E+01 -1.513602689E+02  2.288247926E+02  1.250000000E+02  0.00000E+00  9.000E+00
      25     1     1     2     0     0  1.962530742E+02  6.199552468E+01 -1.841484662E+02  3.031408449E+02  1.250000000E+02  0.00000E+00  9.000E+00
       1     1     1     2   502     0 -8.130543333E+01 -3.723881701E+01 -6.673024736E+02  6.732680701E+02  0.000000000E+00  0.00000E+00  9.000E+00
#rwgt            1           1   2.6422723008012718E-002           6       16024           0
</event>
<event>
      5   9999  3.19816E-02  1.46839E+01 -1.00000E+00  1.78259E-01
      21    -1     0     0   502   511  0.000000000E+00  0.000000000E+00  8.085917563E+02  8.085917563E+02  0.000000000E+00  0.00000E+00  9.000E+00
      21    -1     0     0   501   502  0.000000000E+00  0.000000000E+00 -2.175647410E+02  2.175647410E+02  0.000000000E+00  0.00000E+00  9.000E+00
      25     1     1     2     0     0 -1.232974713E+02 -4.352807142E+01  5.799149676E+02  6.074729040E+02  1.250000000E+02  0.00000E+00  9.000E+00
      25     1     1     2     0     0  1.126141771E+02  3.345409704E+01 -1.673313581E+02  2.396370441E+02  1.250000000E+02  0.00000E+00  9.000E+00
      21     1     1     2   501   511  1.068329427E+01  1.007397438E+01  1.784434058E+02  1.790465493E+02  1.907348633E-06  0.00000E+00  9.000E+00
#rwgt            1           1   2.9239956043889868E-002           6       16082           0
</event>
<event>
      5   9999  3.19816E-02  5.93749E+01 -1.00000E+00  1.34947E-01
      21    -1     0     0   512   501  0.000000000E+00  0.000000000E+00  1.121234914E+03  1.121234914E+03  0.000000000E+00  0.00000E+00  9.000E+00
      21    -1     0     0   501   502  0.000000000E+00  0.000000000E+00 -1.344306647E+02  1.344306647E+02  0.000000000E+00  0.00000E+00  9.000E+00
      25     1     1     2     0     0  2.693968970E+02 -7.353632916E+01  3.945429227E+02  4.992708660E+02  1.250000000E+02  0.00000E+00  9.000E+00
      25     1     1     2     0     0 -2.982722758E+02  1.254168744E+02  3.013673764E+02  4.595030342E+02  1.250000000E+02  0.00000E+00  9.000E+00
      21     1     1     2   512   502  2.887537884E+01 -5.188054522E+01  2.908939499E+02  2.968916781E+02  0.000000000E+00  0.00000E+00  9.000E+00
#rwgt            1           1   2.6058846847540142E-002           6       16222           0
</event>
<event>
      5   9999  3.19816E-02  3.58346E+01 -1.00000E+00  1.47866E-01
      21    -1     0     0   502   501  0.000000000E+00  0.000000000E+00  1.490904107E+03  1.490904107E+03  0.000000000E+00  0.00000E+00  9.000E+00
      21    -1     0     0   511   502  0.000000000E+00  0.000000000E+00 -6.861051724E+01  6.861051724E+01  0.000000000E+00  0.00000E+00  9.000E+00
      25     1     1     2     0     0 -2.164638611E+00  2.450199200E+02  4.414502126E+02  5.201372291E+02  1.250000000E+02  0.00000E+00  9.000E+00
      25     1     1     2     0     0 -1.514312112E+01 -2.763975660E+02  9.191438806E+02  9.680265501E+02  1.250000000E+02  0.00000E+00  9.000E+00
      21     1     1     2   511   501  1.730775973E+01  3.137764597E+01  6.169949695E+01  7.135084538E+01  1.507891493E-06  0.00000E+00  9.000E+00
#rwgt            1           1   2.8240333779482134E-002           6       16274           0
</event>
<event>
      5   9999  3.19816E-02  2.18718E+02 -1.00000E+00  1.10252E-01
      21    -1     0     0   502   501  0.000000000E+00  0.000000000E+00  7.680994421E+02  7.680994421E+02  0.000000000E+00  0.00000E+00  9.000E+00
      21    -1     0     0   512   502  0.000000000E+00  0.000000000E+00 -3.412719710E+02  3.412719710E+02  0.000000000E+00  0.00000E+00  9.000E+00
      25     1     1     2     0     0 -2.223648464E+02 -2.594776319E+02  1.259547726E+02  3.850511279E+02  1.250000000E+02  0.00000E+00  9.000E+00
      25     1     1     2     0     0  1.359640438E+01  3.246955194E+02  3.568246356E+02  4.985587860E+02  1.250000000E+02  0.00000E+00  9.000E+00
      21     1     1     2   512   501  2.087684420E+02 -6.521788745E+01 -5.595193716E+01  2.257614991E+02  2.336015456E-06  0.00000E+00  9.000E+00
#rwgt            1           1   3.1393473051194068E-002           6       16395           0
</event>
<event>
      5   9999  3.19816E-02  1.86716E+02 -1.00000E+00  1.12746E-01
      21    -1     0     0   502   501  0.000000000E+00  0.000000000E+00  2.387252185E+02  2.387252185E+02  0.000000000E+00  0.00000E+00  9.000E+00
      21    -1     0     0   511   502  0.000000000E+00  0.000000000E+00 -6.907338129E+02  6.907338129E+02  0.000000000E+00  0.00000E+00  9.000E+00
      25     1     1     2     0     0  5.211602804E+01 -1.471326086E+02 -1.044619937E+02  2.256133707E+02  1.250000000E+02  0.00000E+00  9.000E+00
      25     1     1     2     0     0 -1.019938357E+02 -3.279829218E+01  1.178008735E+02  2.024364500E+02  1.250000000E+02  0.00000E+00  9.000E+00
      21     1     1     2   511   501  4.987780769E+01  1.799309008E+02 -4.653474742E+02  5.014092106E+02  5.394796609E-06  0.00000E+00  9.000E+00
#rwgt            2          11   3.3280576436764270E-003           6       16470           0
</event>
<event>
      5   9999  3.19816E-02  2.37755E+02 -1.00000E+00  1.08981E-01
      21    -1     0     0   512   501  0.000000000E+00  0.000000000E+00  3.252474041E+02  3.252474041E+02  0.000000000E+00  0.00000E+00  9.000E+00
      21    -1     0     0   501   502  0.000000000E+00  0.000000000E+00 -1.917563445E+03  1.917563445E+03  0.000000000E+00  0.00000E+00  9.000E+00
      25     1     1     2     0     0 -4.754595772E+02  3.441048976E+02 -1.039417928E+03  1.200201907E+03  1.250000000E+02  0.00000E+00  9.000E+00
      25     1     1     2     0     0  2.545741551E+02 -2.561435957E+02 -6.747442247E+02  7.754497475E+02  1.250000000E+02  0.00000E+00  9.000E+00
      21     1     1     2   512   502  2.208854221E+02 -8.796130192E+01  1.218461113E+02  2.671591945E+02  7.629394531E-06  0.00000E+00  9.000E+00
#rwgt            1           1   3.0969822054474690E-002           6       16490           0
</event>
<event>
      5   9999  3.19816E-02  6.88812E+01 -1.00000E+00  1.31576E-01
      21    -1     0     0   502   501  0.000000000E+00  0.000000000E+00  1.895075080E+03  1.895075080E+03  0.000000000E+00  0.00000E+00  9.000E+00
      21    -1     0     0   501   511  0.000000000E+00  0.000000000E+00 -1.574181016E+02  1.574181016E+02  0.000000000E+00  0.00000E+00  9.000E+00
      25     1     1     2     0     0 -1.595605108E+02 -2.995604520E+02  6.259817668E+02  7.229620968E+02  1.250000000E+02  0.00000E+00  9.000E+00
      25     1     1     2     0     0  9.535346063E+01  2.746190173E+02  1.186415832E+03  1.227890636E+03  1.250000000E+02  0.00000E+00  9.000E+00
      21     1     1     2   502   511  6.420705012E+01  2.494143465E+01 -7.474062064E+01  1.016404487E+02  3.015782986E-06  0.00000E+00  9.000E+00
#rwgt            1           1   3.2401143002648146E-002           6       16541           0
</event>
<event>
      5   9999  3.19816E-02  5.82662E+01 -1.00000E+00  1.35387E-01
      21    -1     0     0   502   512  0.000000000E+00  0.000000000E+00  2.226304470E+03  2.226304470E+03  0.000000000E+00  0.00000E+00  9.000E+00
      21    -1     0     0   501   502  0.000000000E+00  0.000000000E+00 -3.479181765E+01  3.479181765E+01  0.000000000E+00  0.00000E+00  9.000E+00
      25     1     1     2     0     0 -1.537550879E+01 -1.435657798E+02  3.269218506E+02  3.786164759E+02  1.250000000E+02  0.00000E+00  9.000E+00
      25     1     1     2     0     0  2.299324080E+01  8.579964983E+01  7.077298952E+02  7.241525209E+02  1.250000000E+02  0.00000E+00  9.000E+00
      21     1     1     2   501   512 -7.617732003E+00  5.776612997E+01  1.156860906E+03  1.158327290E+03  1.525878906E-05  0.00000E+00  9.000E+00
#rwgt            1           1   2.8608623448861944E-002           6       16666           0
</event>
<event>
      5   9999  3.19816E-02  3.36257E+01 -1.00000E+00  1.49676E-01
      21    -1     0     0   502   511  0.000000000E+00  0.000000000E+00  2.229669206E+03  2.229669206E+03  0.000000000E+00  0.00000E+00  9.000E+00
      21    -1     0     0   501   502  0.000000000E+00  0.000000000E+00 -6.740574191E+02  6.740574191E+02  0.000000000E+00  0.00000E+00  9.000E+00
      25     1     1     2     0     0 -1.009794406E+03  5.044810349E+02  4.766007991E+02  1.231648967E+03  1.250000000E+02  0.00000E+00  9.000E+00
      25     1     1     2     0     0  1.018346073E+03 -5.370011481E+02  8.397265194E+02  1.430442094E+03  1.250000000E+02  0.00000E+00  9.000E+00
      21     1     1     2   501   511 -8.551667702E+00  3.252011321E+01  2.392844689E+02  2.416355641E+02  4.672030912E-06  0.00000E+00  9.000E+00
#rwgt            2          11   3.0883811960577537E-003           6       16778           0
</event>
<event>
      5   9999  3.19816E-02  2.65810E+01 -1.00000E+00  1.56782E-01
      21    -1     0     0   502   501  0.000000000E+00  0.000000000E+00  1.042097380E+02  1.042097380E+02  0.000000000E+00  0.00000E+00  9.000E+00
       2    -1     0     0   501     0  0.000000000E+00  0.000000000E+00 -1.443680962E+03  1.443680962E+03  0.000000000E+00  0.00000E+00  9.000E+00
      25     1     1     2     0     0  1.409244568E+02 -1.291768377E+02 -5.605671728E+01  2.351886764E+02  1.250000000E+02  0.00000E+00  9.000E+00
      25     1     1     2     0     0 -1.459915299E+02  1.552703615E+02 -1.102611235E+03  1.129955286E+03  1.250000000E+02  0.00000E+00  9.000E+00
       2     1     1     2   502     0  5.067073082E+00 -2.609352374E+01 -1.808032712E+02  1.827467376E+02  2.697398305E-06  0.00000E+00  9.000E+00
#rwgt            1           1   2.8654727219371911E-002           6       16813           0
</event>
<event>
      5   9999  3.19816E-02  2.55995E+01 -1.00000E+00  1.57984E-01
      21    -1     0     0   502   501  0.000000000E+00  0.000000000E+00  5.989228568E+01  5.989228568E+01  0.000000000E+00  0.00000E+00  9.000E+00
      21    -1     0     0   511   502  0.000000000E+00  0.000000000E+00 -1.642404964E+03  1.642404964E+03  0.000000000E+00  0.00000E+00  9.000E+00
      25     1     1     2     0     0  1.671081116E+02 -8.314852589E+01 -1.109634904E+03  1.132145493E+03  1.250000000E+02  0.00000E+00  9.000E+00
      25     1     1     2     0     0 -1.532080064E+02  6.165149987E+01 -1.749326456E+02  2.711088917E+02  1.250000000E+02  0.00000E+00  9.000E+00
      21     1     1     2   511   501 -1.390010523E+01  2.149702602E+01 -2.979451292E+02  2.990428649E+02  3.814697266E-06  0.00000E+00  9.000E+00
#rwgt            1           1   2.9190385394382987E-002           6       16915           0
</event>
<event>
      5   9999  3.19816E-02  8.81986E+01 -1.00000E+00  1.26332E-01
      21    -1     0     0   502   501  0.000000000E+00  0.000000000E+00  1.493346809E+02  1.493346809E+02  0.000000000E+00  0.00000E+00  9.000E+00
      21    -1     0     0   512   502  0.000000000E+00  0.000000000E+00 -8.698376529E+02  8.698376529E+02  0.000000000E+00  0.00000E+00  9.000E+00
      25     1     1     2     0     0 -1.679922080E+02 -4.052328942E+00  4.356192005E+01  2.139169096E+02  1.250000000E+02  0.00000E+00  9.000E+00
      25     1     1     2     0     0  8.001408800E+01  1.028443673E+01 -6.085483271E+02  6.264695446E+02  1.250000000E+02  0.00000E+00  9.000E+00
      21     1     1     2   512   501  8.797812004E+01 -6.232107785E+00 -1.555165650E+02  1.787858796E+02  1.907348633E-06  0.00000E+00  9.000E+00
#rwgt            1           1   2.7892544220648068E-002           6       17157           0
</event>
<event>
      5   9999  3.19816E-02  9.55209E+01 -1.00000E+00  1.24730E-01
       1    -1     0     0   502     0  0.000000000E+00  0.000000000E+00  2.921076478E+03  2.921076478E+03  0.000000000E+00  0.00000E+00  9.000E+00
      21    -1     0     0   501   502  0.000000000E+00  0.000000000E+00 -3.741697300E+02  3.741697300E+02  0.000000000E+00  0.00000E+00  9.000E+00
      25     1     1     2     0     0  1.951610676E+02 -3.345424703E+02 -2.291938917E+02  4.670774526E+02  1.250000000E+02  0.00000E+00  9.000E+00
      25     1     1     2     0     0 -1.164003410E+02  2.804962013E+02  1.066897465E+03  1.116298508E+03  1.250000000E+02  0.00000E+00  9.000E+00
       1     1     1     2   501     0 -7.876072660E+01  5.404626901E+01  1.709203175E+03  1.711870247E+03  3.051757812E-05  0.00000E+00  9.000E+00
#rwgt            1           1   3.0648041944266294E-002           6       17264           0
</event>
<event>
      5   9999  3.19816E-02  7.75585E+01 -1.00000E+00  1.29004E-01
      21    -1     0     0   511   501  0.000000000E+00  0.000000000E+00  2.929372819E+02  2.929372819E+02  0.000000000E+00  0.00000E+00  9.000E+00
      21    -1     0     0   501   502  0.000000000E+00  0.000000000E+00 -3.065621273E+02  3.065621273E+02  0.000000000E+00  0.00000E+00  9.000E+00
      25     1     1     2     0     0  9.669737552E+01  7.044514389E+01 -2.356946708E+02  2.923865225E+02  1.250000000E+02  0.00000E+00  9.000E+00
      25     1     1     2     0     0 -2.513545317E+01 -4.054171758E+01  1.531156467E+02  2.033342646E+02  1.250000000E+02  0.00000E+00  9.000E+00
      21     1     1     2   511   502 -7.156192234E+01 -2.990342631E+01  6.895417869E+01  1.037786220E+02  0.000000000E+00  0.00000E+00  9.000E+00
#rwgt            1           1   2.6785877042030865E-002           6       17358           0
</event>
<event>
      5   9999  3.19816E-02  8.54639E+01 -1.00000E+00  1.26976E-01
       1    -1     0     0   502     0  0.000000000E+00  0.000000000E+00  2.371527538E+03  2.371527538E+03  0.000000000E+00  0.00000E+00  9.000E+00
      21    -1     0     0   501   502  0.000000000E+00  0.000000000E+00 -1.526587268E+02  1.526587268E+02  0.000000000E+00  0.00000E+00  9.000E+00
      25     1     1     2     0     0  1.121935740E+02 -1.730199017E+02  3.023847965E+01  2.430280850E+02  1.250000000E+02  0.00000E+00  9.000E+00
      25     1     1     2     0     0 -1.951540156E+02  1.524860804E+02  3.799037227E+02  4.704135766E+02  1.250000000E+02  0.00000E+00  9.000E+00
       1     1     1     2   501     0  8.296044159E+01  2.053382137E+01  1.808726608E+03  1.810744603E+03  0.000000000E+00  0.00000E+00  9.000E+00
#rwgt            1           1   3.3962640365086637E-002           6       17453           0
</event>
<event>
      5   9999  3.19816E-02  1.19854E+02 -1.00000E+00  1.20391E-01
      21    -1     0     0   502   501  0.000000000E+00  0.000000000E+00  4.570558352E+03  4.570558352E+03  0.000000000E+00  0.00000E+00  9.000E+00
      21    -1     0     0   501   511  0.000000000E+00  0.000000000E+00 -2.540583841E+03  2.540583841E+03  0.000000000E+00  0.00000E+00  9.000E+00
      25     1     1     2     0     0 -1.803453198E+03  1.754136315E+02  1.602686805E+03  2.422280615E+03  1.250000000E+02  0.00000E+00  9.000E+00
      25     1     1     2     0     0  1.882899262E+03 -8.567387646E+01  2.207057546E+03  2.905060697E+03  1.250000000E+02  0.00000E+00  9.000E+00
      21     1     1     2   502   511 -7.944606337E+01 -8.973975502E+01 -1.779769840E+03  1.783800881E+03  4.315837288E-05  0.00000E+00  9.000E+00
#rwgt            1           1   1.3556553392255706E-002           6       17542           0
</event>
<event>
      5   9999  3.19816E-02  7.01738E+01 -1.00000E+00  1.31166E-01
       1    -1     0     0   502     0  0.000000000E+00  0.000000000E+00  1.454693097E+03  1.454693097E+03  0.000000000E+00  0.00000E+00  9.000E+00
      21    -1     0     0   501   502  0.000000000E+00  0.000000000E+00 -1.201129649E+02  1.201129649E+02  0.000000000E+00  0.00000E+00  9.000E+00
      25     1     1     2     0     0 -2.337657869E+01  3.543591872E+01  2.493086365E+01  1.343455125E+02  1.250000000E+02  0.00000E+00  9.000E+00
      25     1     1     2     0     0  9.067633529E+01 -5.531308586E+01  3.995520089E+01  1.688287693E+02  1.250000000E+02  0.00000E+00  9.000E+00
       1     1     1     2   501     0 -6.729975660E+01  1.987716714E+01  1.269694068E+03  1.271631780E+03  1.525878906E-05  0.00000E+00  9.000E+00
#rwgt            1           1   2.5611163307880994E-002           6       17700           0
</event>
<event>
      5   9999  3.19816E-02  6.95937E+01 -1.00000E+00  1.31349E-01
      21    -1     0     0   502   511  0.000000000E+00  0.000000000E+00  6.959567070E+01  6.959567070E+01  0.000000000E+00  0.00000E+00  9.000E+00
      21    -1     0     0   501   502  0.000000000E+00  0.000000000E+00 -8.842730855E+02  8.842730855E+02  0.000000000E+00  0.00000E+00  9.000E+00
      25     1     1     2     0     0 -1.962874020E+01 -1.264736390E+02 -2.947317613E+02  3.447791756E+02  1.250000000E+02  0.00000E+00  9.000E+00
      25     1     1     2     0     0 -3.591895430E+01  1.683990903E+02 -4.882881796E+02  5.326338060E+02  1.250000000E+02  0.00000E+00  9.000E+00
      21     1     1     2   501   511  5.554769450E+01 -4.192545127E+01 -3.165747391E+01  7.645577469E+01  1.066240300E-06  0.00000E+00  9.000E+00
#rwgt            1           1   2.8373574846217019E-002           6       17770           0
</event>
<event>
      5   9999  3.19816E-02  1.37694E+02 -1.00000E+00  1.17886E-01
      21    -1     0     0   502   501  0.000000000E+00  0.000000000E+00  2.775396083E+02  2.775396083E+02  0.000000000E+00  0.00000E+00  9.000E+00
      21    -1     0     0   501   512  0.000000000E+00  0.000000000E+00 -1.504013533E+03  1.504013533E+03  0.000000000E+00  0.00000E+00  9.000E+00
      25     1     1     2     0     0 -1.969259336E+02 -2.235459159E+02  1.326610221E+02  3.492514089E+02  1.250000000E+02  0.00000E+00  9.000E+00
      25     1     1     2     0     0  6.720344080E+01  1.773748597E+02 -3.739473717E+02  4.375383184E+02  1.250000000E+02  0.00000E+00  9.000E+00
      21     1     1     2   502   512  1.297224928E+02  4.617105620E+01 -9.851875751E+02  9.947634139E+02  1.868812365E-05  0.00000E+00  9.000E+00
#rwgt            1           1   2.9046157270040986E-002           6       17846           0
</event>
<event>
      5   9999  3.19816E-02  3.05549E+01 -1.00000E+00  1.52489E-01
      21    -1     0     0   502   501  0.000000000E+00  0.000000000E+00  2.613345535E+02  2.613345535E+02  0.000000000E+00  0.00000E+00  9.000E+00
      21    -1     0     0   501   511  0.000000000E+00  0.000000000E+00 -8.272318125E+02  8.272318125E+02  0.000000000E+00  0.00000E+00  9.000E+00
      25     1     1     2     0     0  1.361941080E+02  4.082894436E+02 -3.132686893E+02  5.468193271E+02  1.250000000E+02  0.00000E+00  9.000E+00
      25     1     1     2     0     0 -1.245723283E+02 -3.800310372E+02 -1.674037418E+02  4.512104464E+02  1.250000000E+02  0.00000E+00  9.000E+00
      21     1     1     2   502   511 -1.162177980E+01 -2.825840633E+01 -8.522482784E+01  9.053659246E+01  1.651812370E-06  0.00000E+00  9.000E+00
#rwgt            1           1   2.7701914695852078E-002           6       17918           0
</event>
<event>
      5   9999  3.19816E-02  1.48092E+02 -1.00000E+00  1.16614E-01
      21    -1     0     0   502   501  0.000000000E+00  0.000000000E+00  6.879210211E+02  6.879210211E+02  0.000000000E+00  0.00000E+00  9.000E+00
      21    -1     0     0   512   502  0.000000000E+00  0.000000000E+00 -6.828725007E+02  6.828725007E+02  0.000000000E+00  0.00000E+00  9.000E+00
      25     1     1     2     0     0  1.166910162E+02 -6.721514630E+01 -1.491854890E+01  1.843427033E+02  1.250000000E+02  0.00000E+00  9.000E+00
      25     1     1     2     0     0 -2.041646742E+01  1.797423133E+02  5.731010599E+02  6.138354471E+02  1.250000000E+02  0.00000E+00  9.000E+00
      21     1     1     2   512   501 -9.627454879E+01 -1.125271670E+02 -5.531339906E+02  5.726153714E+02  1.078959322E-05  0.00000E+00  9.000E+00
#rwgt            1           1   2.6791337560697608E-002           6       18118           0
</event>
<event>
      5   9999  3.19816E-02  2.99590E+01 -1.00000E+00  1.53081E-01
      21    -1     0     0   502   501  0.000000000E+00  0.000000000E+00  2.827304701E+02  2.827304701E+02  0.000000000E+00  0.00000E+00  9.000E+00
      21    -1     0     0   501   511  0.000000000E+00  0.000000000E+00 -1.782866611E+03  1.782866611E+03  0.000000000E+00  0.00000E+00  9.000E+00
      25     1     1     2     0     0 -4.442592695E+02  1.119417437E+02 -7.895115436E+02  9.213309557E+02  1.250000000E+02  0.00000E+00  9.000E+00
      25     1     1     2     0     0  4.739796549E+02 -1.081680811E+02 -7.454689679E+01  5.074832873E+02  1.250000000E+02  0.00000E+00  9.000E+00
      21     1     1     2   502   511 -2.972038545E+01 -3.773662643E+00 -6.360777007E+02  6.367828383E+02  1.321449896E-05  0.00000E+00  9.000E+00
#rwgt            1           1   2.6564129942504323E-002           6       18164           0
</event>
<event>
      5   9999  3.19816E-02  1.08969E+02 -1.00000E+00  1.22173E-01
      21    -1     0     0   502   501  0.000000000E+00  0.000000000E+00  9.863095756E+02  9.863095756E+02  0.000000000E+00  0.00000E+00  9.000E+00
      21    -1     0     0   501   512  0.000000000E+00  0.000000000E+00 -9.405648881E+02  9.405648881E+02  0.000000000E+00  0.00000E+00  9.000E+00
      25     1     1     2     0     0 -6.479607403E+02  2.793142345E+02  3.347718698E+02  7.909277890E+02  1.250000000E+02  0.00000E+00  9.000E+00
      25     1     1     2     0     0  6.697895781E+02 -1.725543966E+02  1.196638853E+02  7.129779408E+02  1.250000000E+02  0.00000E+00  9.000E+00
      21     1     1     2   502   512 -2.182883774E+01 -1.067598379E+02 -4.086910675E+02  4.229687339E+02  5.394796609E-06  0.00000E+00  9.000E+00
#rwgt            2          11   2.8853736815336699E-003           6       18498           0
</event>
<event>
      5   9999  3.19816E-02  1.60736E+02 -1.00000E+00  1.15216E-01
      21    -1     0     0   502   501  0.000000000E+00  0.000000000E+00  2.291952018E+03  2.291952018E+03  0.000000000E+00  0.00000E+00  9.000E+00
      21    -1     0     0   511   502  0.000000000E+00  0.000000000E+00 -2.972398760E+02  2.972398760E+02  0.000000000E+00  0.00000E+00  9.000E+00
      25     1     1     2     0     0  5.339967277E+02  4.341130530E+02  5.651727536E+02  8.992507378E+02  1.250000000E+02  0.00000E+00  9.000E+00
      25     1     1     2     0     0 -5.809101880E+02 -2.803757757E+02  1.368413519E+03  1.517974895E+03  1.250000000E+02  0.00000E+00  9.000E+00
      21     1     1     2   511   501  4.691346035E+01 -1.537372773E+02  6.112586948E+01  1.719662615E+02  2.431401974E-06  0.00000E+00  9.000E+00
#rwgt            1           1   3.1900609240480347E-002           6       18518           0
</event>
<event>
      5   9999  3.19816E-02  3.08883E+01 -1.00000E+00  1.52165E-01
      21    -1     0     0   502   512  0.000000000E+00  0.000000000E+00  5.048172613E+02  5.048172613E+02  0.000000000E+00  0.00000E+00  9.000E+00
      21    -1     0     0   501   502  0.000000000E+00  0.000000000E+00 -1.206572163E+02  1.206572163E+02  0.000000000E+00  0.00000E+00  9.000E+00
      25     1     1     2     0     0  4.078605304E+01  5.407015460E+01  2.510523925E+02  2.885123698E+02  1.250000000E+02  0.00000E+00  9.000E+00
      25     1     1     2     0     0 -6.683812690E+01 -3.747569935E+01 -4.719995202E+01  1.540279154E+02  1.250000000E+02  0.00000E+00  9.000E+00
      21     1     1     2   501   512  2.605207386E+01 -1.659445525E+01  1.803076045E+02  1.829341924E+02  3.814697266E-06  0.00000E+00  9.000E+00
#rwgt            1           1   2.3586636359886583E-002           6       18629           0
</event>
<event>
      5   9999  3.19816E-02  2.40092E+02 -1.00000E+00  1.08834E-01
      21    -1     0     0   511   501  0.000000000E+00  0.000000000E+00  1.138962891E+03  1.138962891E+03  0.000000000E+00  0.00000E+00  9.000E+00
      21    -1     0     0   501   502  0.000000000E+00  0.000000000E+00 -7.907818540E+02  7.907818540E+02  0.000000000E+00  0.00000E+00  9.000E+00
      25     1     1     2     0     0  8.456873658E+02 -2.050175272E+02  3.703110062E+02  9.539258611E+02  1.250000000E+02  0.00000E+00  9.000E+00
      25     1     1     2     0     0 -7.059410855E+02  9.786878071E+00 -9.884092565E+01  7.237700794E+02  1.250000000E+02  0.00000E+00  9.000E+00
      21     1     1     2   511   502 -1.397462802E+02  1.952306491E+02  7.671095683E+01  2.520488050E+02  9.536743164E-07  0.00000E+00  9.000E+00
#rwgt            2          11   7.2230424434915983E-003           6       18844           0
</event>
<event>
      5   9999  3.19816E-02  5.50143E+01 -1.00000E+00  1.36748E-01
      21    -1     0     0   502   512  0.000000000E+00  0.000000000E+00  2.773286136E+02  2.773286136E+02  0.000000000E+00  0.00000E+00  9.000E+00
      21    -1     0     0   501   502  0.000000000E+00  0.000000000E+00 -3.699193726E+02  3.699193726E+02  0.000000000E+00  0.00000E+00  9.000E+00
      25     1     1     2     0     0 -8.694131822E+01  6.340587051E+01  1.874673945E+02  2.496960577E+02  1.250000000E+02  0.00000E+00  9.000E+00
      25     1     1     2     0     0  8.190981865E+01 -1.181896209E+02 -2.844457206E+02  3.423629256E+02  1.250000000E+02  0.00000E+00  9.000E+00
      21     1     1     2   501   512  5.031499567E+00  5.478375034E+01  4.387567141E+00  5.518900285E+01  5.264139692E-07  0.00000E+00  9.000E+00
#rwgt            1           1   2.7530635710995534E-002           6       18879           0
</event>
<event>
      5   9999  3.19816E-02  1.40812E+01 -1.00000E+00  1.80009E-01
      21    -1     0     0   502   501  0.000000000E+00  0.000000000E+00  1.565263189E+03  1.565263189E+03  0.000000000E+00  0.00000E+00  9.000E+00
      21    -1     0     0   511   502  0.000000000E+00  0.000000000E+00 -4.856527291E+01  4.856527291E+01  0.000000000E+00  0.00000E+00  9.000E+00
      25     1     1     2     0     0  1.201214016E+02 -7.006126877E+01  1.083790325E+03  1.099801892E+03  1.250000000E+02  0.00000E+00  9.000E+00
      25     1     1     2     0     0 -1.339195672E+02  6.725198685E+01  4.508186661E+02  4.912430661E+02  1.250000000E+02  0.00000E+00  9.000E+00
      21     1     1     2   511   501  1.379816564E+01  2.809281929E+00 -1.791107517E+01  2.278350398E+01  8.920806376E-07  0.00000E+00  9.000E+00
#rwgt            1           1   3.7732901463779840E-002           6       19006           0
</event>
<event>
      5   9999  3.47857E-02  2.78691E+02 -1.00000E+00  1.06642E-01
      21    -1     0     0   502   501  0.000000000E+00  0.000000000E+00  9.311800645E+02  9.311800645E+02  0.000000000E+00  0.00000E+00  9.000E+00
      21    -1     0     0   512   502  0.000000000E+00  0.000000000E+00 -1.815476989E+03  1.815476989E+03  0.000000000E+00  0.00000E+00  9.000E+00
      25     1     1     2     0     0  7.688755532E+02  3.113787410E+01  4.108268936E+02  8.812167271E+02  1.250000000E+02  0.00000E+00  9.000E+00
      25     1     1     2     0     0 -1.036952635E+03  4.504078259E+01 -1.138824497E+03  1.545912570E+03  1.250000000E+02  0.00000E+00  9.000E+00
      21     1     1     2   512   501  2.680770814E+02 -7.617865669E+01 -1.562993206E+02  3.195277561E+02  4.264961200E-06  0.00000E+00  9.000E+00
#rwgt            1           1   7.9597170014012231E-002           6       19222           0
</event>
<event>
      5   9999  3.19816E-02  3.51155E+01 -1.00000E+00  1.48438E-01
      21    -1     0     0   502   501  0.000000000E+00  0.000000000E+00  4.400126381E+02  4.400126381E+02  0.000000000E+00  0.00000E+00  9.000E+00
      21    -1     0     0   511   502  0.000000000E+00  0.000000000E+00 -9.715902057E+02  9.715902057E+02  0.000000000E+00  0.00000E+00  9.000E+00
      25     1     1     2     0     0 -2.844739019E+02 -1.595465626E+02 -8.044185539E+02  8.769804539E+02  1.250000000E+02  0.00000E+00  9.000E+00
      25     1     1     2     0     0  2.892901891E+02  1.247629262E+02  3.264189072E+02  4.705623277E+02  1.250000000E+02  0.00000E+00  9.000E+00
      21     1     1     2   511   501 -4.816287161E+00  3.478363646E+01 -5.357792075E+01  6.406006228E+01  0.000000000E+00  0.00000E+00  9.000E+00
#rwgt            1           1   3.3737111677224735E-002           6       19286           0
</event>
<event>
      5   9999  3.19816E-02  7.97521E+01 -1.00000E+00  1.28415E-01
      21    -1     0     0   512   501  0.000000000E+00  0.000000000E+00  9.650920819E+01  9.650920819E+01  0.000000000E+00  0.00000E+00  9.000E+00
      21    -1     0     0   501   502  0.000000000E+00  0.000000000E+00 -6.876826827E+02  6.876826827E+02  0.000000000E+00  0.00000E+00  9.000E+00
      25     1     1     2     0     0  1.428059252E+02 -7.801099853E+01 -4.684120746E+02  5.113845126E+02  1.250000000E+02  0.00000E+00  9.000E+00
      25     1     1     2     0     0 -6.329192860E+01  8.416912340E+01 -8.999821199E+01  1.865877480E+02  1.250000000E+02  0.00000E+00  9.000E+00
      21     1     1     2   512   502 -7.951399655E+01 -6.158124873E+00 -3.276318795E+01  8.621963021E+01  1.168007728E-06  0.00000E+00  9.000E+00
#rwgt            1           1   3.1615012710378664E-002           6       19486           0
</event>
<event>
      5   9999  3.19816E-02  7.30002E+01 -1.00000E+00  1.30304E-01
      21    -1     0     0   502   501  0.000000000E+00  0.000000000E+00  3.901806912E+02  3.901806912E+02  0.000000000E+00  0.00000E+00  9.000E+00
      21    -1     0     0   501   511  0.000000000E+00  0.000000000E+00 -1.150209341E+02  1.150209341E+02  0.000000000E+00  0.00000E+00  9.000E+00
      25     1     1     2     0     0  1.303240550E+01 -1.368927241E+02  1.402128982E+02  2.327963023E+02  1.250000000E+02  0.00000E+00  9.000E+00
      25     1     1     2     0     0 -5.489412688E+01  7.708787956E+01  1.210933845E+02  1.981022819E+02  1.250000000E+02  0.00000E+00  9.000E+00
      21     1     1     2   502   511  4.186172138E+01  5.980484458E+01  1.385347439E+01  7.430304102E+01  1.944244674E-06  0.00000E+00  9.000E+00
#rwgt            1           1   3.1190015450491462E-002           6       19567           0
</event>
<event>
      5   9999  3.19816E-02  4.24788E+01 -1.00000E+00  1.43239E-01
      21    -1     0     0   502   512  0.000000000E+00  0.000000000E+00  1.811839065E+02  1.811839065E+02  0.000000000E+00  0.00000E+00  9.000E+00
      21    -1     0     0   501   502  0.000000000E+00  0.000000000E+00 -2.094546454E+02  2.094546454E+02  0.000000000E+00  0.00000E+00  9.000E+00
      25     1     1     2     0     0 -2.735574495E+01  5.321636534E+01 -1.092319425E+02  1.764566110E+02  1.250000000E+02  0.00000E+00  9.000E+00
      25     1     1     2     0     0 -1.320155350E+01 -4.058504069E+01  1.126967440E+01  1.325648223E+02  1.250000000E+02  0.00000E+00  9.000E+00
      21     1     1     2   501   512  4.055729845E+01 -1.263132465E+01  6.969152910E+01  8.161711860E+01  9.536743164E-07  0.00000E+00  9.000E+00
#rwgt            1           1   2.9799453281278018E-002           6       19605           0
</event>
<event>
      5   9999  3.19816E-02  2.70764E+01 -1.00000E+00  1.56199E-01
      21    -1     0     0   502   501  0.000000000E+00  0.000000000E+00  2.770015754E+02  2.770015754E+02  0.000000000E+00  0.00000E+00  9.000E+00
      21    -1     0     0   511   502  0.000000000E+00  0.000000000E+00 -1.507585863E+03  1.507585863E+03  0.000000000E+00  0.00000E+00  9.000E+00
      25     1     1     2     0     0 -2.423330882E+02 -3.822149651E+02 -3.391025965E+01  4.707318886E+02  1.250000000E+02  0.00000E+00  9.000E+00
      25     1     1     2     0     0  2.242937691E+02  3.620230737E+02 -7.888970075E+02  9.051805837E+02  1.250000000E+02  0.00000E+00  9.000E+00
      21     1     1     2   511   501  1.803931903E+01  2.019189145E+01 -4.077770204E+02  4.086749660E+02  5.394796609E-06  0.00000E+00  9.000E+00
#rwgt            1           1   2.9339758437832587E-002           6       19725           0
</event>
<event>
      5   9999  3.19816E-02  7.86298E+01 -1.00000E+00  1.28714E-01
      21    -1     0     0   512   501  0.000000000E+00  0.000000000E+00  1.289636304E+03  1.289636304E+03  0.000000000E+00  0.00000E+00  9.000E+00
      21    -1     0     0   501   502  0.000000000E+00  0.000000000E+00 -1.567076486E+02  1.567076486E+02  0.000000000E+00  0.00000E+00  9.000E+00
      25     1     1     2     0     0  2.888506248E+02 -1.349564562E+02  1.085339905E+02  3.592388559E+02  1.250000000E+02  0.00000E+00  9.000E+00
      25     1     1     2     0     0 -2.466200831E+02  6.862977928E+01  8.225731750E+02  8.705074039E+02  1.250000000E+02  0.00000E+00  9.000E+00
      21     1     1     2   512   502 -4.223054172E+01  6.632667689E+01  2.018214897E+02  2.165976926E+02  0.000000000E+00  0.00000E+00  9.000E+00
#rwgt            1           1   2.7933130194689709E-002           6       19900           0
</event>
<event>
      5   9999  3.19816E-02  1.28008E+02 -1.00000E+00  1.19189E-01
      21    -1     0     0   511   501  0.000000000E+00  0.000000000E+00  8.420614692E+01  8.420614692E+01  0.000000000E+00  0.00000E+00  9.000E+00
      21    -1     0     0   501   502  0.000000000E+00  0.000000000E+00 -1.517947654E+03  1.517947654E+03  0.000000000E+00  0.00000E+00  9.000E+00
      25     1     1     2     0     0 -1.450000937E+02  5.889744572E+01 -1.179113555E+03  1.196004896E+03  1.250000000E+02  0.00000E+00  9.000E+00
      25     1     1     2     0     0  1.017242304E+02  6.157296645E+01 -2.072376688E+02  2.696507011E+02  1.250000000E+02  0.00000E+00  9.000E+00
      21     1     1     2   511   502  4.327586330E+01 -1.204704122E+02 -4.739028288E+01  1.364982032E+02  2.697398305E-06  0.00000E+00  9.000E+00
#rwgt            2          11   3.6661080964783327E-003           6       20200           0
</event>
<event>
      5   9999  3.19816E-02  1.35254E+02 -1.00000E+00  1.18203E-01
      21    -1     0     0   502   501  0.000000000E+00  0.000000000E+00  1.024022194E+02  1.024022194E+02  0.000000000E+00  0.00000E+00  9.000E+00
       2    -1     0     0   501     0  0.000000000E+00  0.000000000E+00 -1.372491063E+03  1.372491063E+03  0.000000000E+00  0.00000E+00  9.000E+00
      25     1     1     2     0     0 -1.082940659E+02 -2.352228176E+02 -3.211478699E+02  4.310665064E+02  1.250000000E+02  0.00000E+00  9.000E+00
      25     1     1     2     0     0 -2.637292391E+01  2.226301278E+02 -3.768264327E+02  4.559417345E+02  1.250000000E+02  0.00000E+00  9.000E+00
       2     1     1     2   502     0  1.346669898E+02  1.259268982E+01 -5.721145412E+02  5.878850416E+02  7.629394531E-06  0.00000E+00  9.000E+00
#rwgt            1           1   2.8465875826834037E-002           6       20220           0
</event>
<event>
      5   9999  3.19816E-02  6.87648E+01 -1.00000E+00  1.31613E-01
      21    -1     0     0   511   501  0.000000000E+00  0.000000000E+00  9.784396745E+02  9.784396745E+02  0.000000000E+00  0.00000E+00  9.000E+00
      21    -1     0     0   501   502  0.000000000E+00  0.000000000E+00 -5.639294805E+02  5.639294805E+02  0.000000000E+00  0.00000E+00  9.000E+00
      25     1     1     2     0     0 -1.713451133E+02 -6.207623867E+02  8.028071069E+00  6.560446163E+02  1.250000000E+02  0.00000E+00  9.000E+00
      25     1     1     2     0     0  1.625897959E+02  6.889675556E+02  3.697268758E+02  8.083530770E+02  1.250000000E+02  0.00000E+00  9.000E+00
      21     1     1     2   511   502  8.755317450E+00 -6.820516890E+01  3.675524715E+01  7.797146172E+01  1.430511475E-06  0.00000E+00  9.000E+00
#rwgt            1           1   2.5593539469839579E-002           6       20296           0
</event>
<event>
      5   9999  3.19816E-02  6.67935E+01 -1.00000E+00  1.32260E-01
       1    -1     0     0   502     0  0.000000000E+00  0.000000000E+00  1.270899569E+03  1.270899569E+03  0.000000000E+00  0.00000E+00  9.000E+00
      21    -1     0     0   501   502  0.000000000E+00  0.000000000E+00 -1.108401801E+02  1.108401801E+02  0.000000000E+00  0.00000E+00  9.000E+00
      25     1     1     2     0     0  2.424207187E+02 -3.680565806E+01  2.294058951E+02  3.582939101E+02  1.250000000E+02  0.00000E+00  9.000E+00
      25     1     1     2     0     0 -3.089364824E+02  3.072044817E+01  6.087419629E+02  6.946778199E+02  1.250000000E+02  0.00000E+00  9.000E+00
       1     1     1     2   501     0  6.651576365E+01  6.085209891E+00  3.219115312E+02  3.287680193E+02  0.000000000E+00  0.00000E+00  9.000E+00
#rwgt            1           1   2.9143461107578764E-002           6       20400           0
</event>
<event>
      5   9999  3.19816E-02  3.60041E+02 -1.00000E+00  1.03080E-01
      21    -1     0     0   502   501  0.000000000E+00  0.000000000E+00  3.938411051E+02  3.938411051E+02  0.000000000E+00  0.00000E+00  9.000E+00
      21    -1     0     0   511   502  0.000000000E+00  0.000000000E+00 -2.723331472E+03  2.723331472E+03  0.000000000E+00  0.00000E+00  9.000E+00
      25     1     1     2     0     0  4.606350806E+02  9.175391529E+01 -1.034471861E+02  4.969202941E+02  1.250000000E+02  0.00000E+00  9.000E+00
      25     1     1     2     0     0 -5.233409154E+02  2.627850062E+02 -3.169655152E+02  6.775203400E+02  1.250000000E+02  0.00000E+00  9.000E+00
      21     1     1     2   511   501  6.270583488E+01 -3.545389215E+02 -1.909077666E+03  1.942731943E+03  3.737624730E-05  0.00000E+00  9.000E+00
#rwgt            1           1   2.7439998776798549E-002           6       20535           0
</event>
<event>
      5   9999  3.19816E-02  4.34807E+01 -1.00000E+00  1.42628E-01
      21    -1     0     0   502   501  0.000000000E+00  0.000000000E+00  3.348377789E+02  3.348377789E+02  0.000000000E+00  0.00000E+00  9.000E+00
      21    -1     0     0   501   512  0.000000000E+00  0.000000000E+00 -3.814892731E+02  3.814892731E+02  0.000000000E+00  0.00000E+00  9.000E+00
      25     1     1     2     0     0  1.011261823E+02 -3.088419366E+01  2.853864320E+02  3.290148230E+02  1.250000000E+02  0.00000E+00  9.000E+00
      25     1     1     2     0     0 -6.169416090E+01  1.256231581E+01 -1.734754754E+02  2.228962131E+02  1.250000000E+02  0.00000E+00  9.000E+00
      21     1     1     2   502   512 -3.943202143E+01  1.832187785E+01 -1.585624508E+02  1.644160160E+02  1.907348633E-06  0.00000E+00  9.000E+00
#rwgt            1           1   2.5798937772411601E-002           6       20563           0
</event>
<event>
      5   9999  3.19816E-02  1.14329E+02 -1.00000E+00  1.21267E-01
      21    -1     0     0   502   501  0.000000000E+00  0.000000000E+00  2.475136697E+03  2.475136697E+03  0.000000000E+00  0.00000E+00  9.000E+00
       1    -1     0     0   501     0  0.000000000E+00  0.000000000E+00 -4.706878599E+02  4.706878599E+02  0.000000000E+00  0.00000E+00  9.000E+00
      25     1     1     2     0     0  6.004397310E+02 -4.839098087E+02  5.345571290E+02  9.466112706E+02  1.250000000E+02  0.00000E+00  9.000E+00
      25     1     1     2     0     0 -7.117125251E+02  4.576509037E+02  1.607144112E+03  1.820581299E+03  1.250000000E+02  0.00000E+00  9.000E+00
       1     1     1     2   502     0  1.112727941E+02  2.625890494E+01 -1.372524037E+02  1.786319879E+02  1.907348633E-06  0.00000E+00  9.000E+00
#rwgt            1           1   3.5167459685695741E-002           6       20639           0
</event>
<event>
      5   9999  3.19816E-02  5.54417E+01 -1.00000E+00  1.36563E-01
      21    -1     0     0   511   501  0.000000000E+00  0.000000000E+00  1.772767127E+02  1.772767127E+02  0.000000000E+00  0.00000E+00  9.000E+00
      21    -1     0     0   501   502  0.000000000E+00  0.000000000E+00 -2.388567329E+02  2.388567329E+02  0.000000000E+00  0.00000E+00  9.000E+00
      25     1     1     2     0     0 -1.242242899E+02  4.258499886E+01 -5.684207789E+01  1.900031004E+02  1.250000000E+02  0.00000E+00  9.000E+00
      25     1     1     2     0     0  8.347821509E+01 -8.018210418E+01 -8.400883112E+00  1.705677492E+02  1.250000000E+02  0.00000E+00  9.000E+00
      21     1     1     2   511   502  4.074607486E+01  3.759710531E+01  3.662940780E+00  5.556259605E+01  1.461225828E-06  0.00000E+00  9.000E+00
#rwgt            1           1   3.0618762610036241E-002           6       20786           0
</event>
<event>
      5   9999  3.19816E-02  2.00567E+01 -1.00000E+00  1.66268E-01
      21    -1     0     0   502   501  0.000000000E+00  0.000000000E+00  2.909864441E+02  2.909864441E+02  0.000000000E+00  0.00000E+00  9.000E+00
      21    -1     0     0   501   512  0.000000000E+00  0.000000000E+00 -2.421472542E+02  2.421472542E+02  0.000000000E+00  0.00000E+00  9.000E+00
      25     1     1     2     0     0  1.923838083E+02 -5.713787895E+01  1.040396817E+02  2.583128380E+02  1.250000000E+02  0.00000E+00  9.000E+00
      25     1     1     2     0     0 -2.099591345E+02  4.747466329E+01 -4.797269836E+01  2.535016008E+02  1.250000000E+02  0.00000E+00  9.000E+00
      21     1     1     2   502   512  1.757532619E+01  9.663215662E+00 -7.227793444E+00  2.131925950E+01  1.884864366E-07  0.00000E+00  9.000E+00
#rwgt            1           1   2.9294088264614573E-002           6       20874           0
</event>
<event>
      5   9999  3.19816E-02  1.64768E+02 -1.00000E+00  1.14800E-01
      21    -1     0     0   502   501  0.000000000E+00  0.000000000E+00  3.626749631E+02  3.626749631E+02  0.000000000E+00  0.00000E+00  9.000E+00
      21    -1     0     0   511   502  0.000000000E+00  0.000000000E+00 -1.170336738E+03  1.170336738E+03  0.000000000E+00  0.00000E+00  9.000E+00
      25     1     1     2     0     0 -2.327327895E+01  1.280659756E+02 -5.771524053E+02  6.047085567E+02  1.250000000E+02  0.00000E+00  9.000E+00
      25     1     1     2     0     0  1.069075887E+02 -2.700297037E+02  2.609508929E+02  4.099580977E+02  1.250000000E+02  0.00000E+00  9.000E+00
      21     1     1     2   511   501 -8.363430977E+01  1.419637281E+02 -4.914602620E+02  5.183450463E+02  7.629394531E-06  0.00000E+00  9.000E+00
#rwgt            1           1   2.7109730198447986E-002           6       21026           0
</event>
<event>
      5   9999  3.19816E-02  7.63465E+01 -1.00000E+00  1.29340E-01
      21    -1     0     0   502   501  0.000000000E+00  0.000000000E+00  2.867440213E+01  2.867440213E+01  0.000000000E+00  0.00000E+00  9.000E+00
      21    -1     0     0   501   512  0.000000000E+00  0.000000000E+00 -2.241378088E+03  2.241378088E+03  0.000000000E+00  0.00000E+00  9.000E+00
      25     1     1     2     0     0 -4.970359422E+01 -8.523886594E+01 -5.621413810E+02  5.842636766E+02  1.250000000E+02  0.00000E+00  9.000E+00
      25     1     1     2     0     0  9.468055459E+01  1.469304887E+02 -7.018738422E+02  7.340332869E+02  1.250000000E+02  0.00000E+00  9.000E+00
      21     1     1     2   502   512 -4.497696037E+01 -6.169162277E+01 -9.486884625E+02  9.517555265E+02  0.000000000E+00  0.00000E+00  9.000E+00
#rwgt            2          11   8.8349970224632982E-004           6       21113           0
</event>
<event>
      5   9999  3.19816E-02  2.58288E+02 -1.00000E+00  1.07748E-01
      21    -1     0     0   502   501  0.000000000E+00  0.000000000E+00  2.396131368E+02  2.396131368E+02  0.000000000E+00  0.00000E+00  9.000E+00
       2    -1     0     0   501     0  0.000000000E+00  0.000000000E+00 -3.063818700E+03  3.063818700E+03  0.000000000E+00  0.00000E+00  9.000E+00
      25     1     1     2     0     0  2.099892671E+02 -2.511041261E+02  2.457065382E+01  3.512513224E+02  1.250000000E+02  0.00000E+00  9.000E+00
      25     1     1     2     0     0 -1.848255908E+02 -5.955260402E+00 -2.292929365E+02  3.199940857E+02  1.250000000E+02  0.00000E+00  9.000E+00
       2     1     1     2   502     0 -2.516367625E+01  2.570593865E+02 -2.619483280E+03  2.632186429E+03  4.315837288E-05  0.00000E+00  9.000E+00
#rwgt            1           1   2.8229264924574823E-002           6       21133           0
</event>
<event>
      5   9999  3.19816E-02  3.04790E+02 -1.00000E+00  1.05369E-01
      21    -1     0     0   502   501  0.000000000E+00  0.000000000E+00  1.795553090E+03  1.795553090E+03  0.000000000E+00  0.00000E+00  9.000E+00
      21    -1     0     0   501   511  0.000000000E+00  0.000000000E+00 -8.798471607E+02  8.798471607E+02  0.000000000E+00  0.00000E+00  9.000E+00
      25     1     1     2     0     0 -3.853038623E+01 -7.944697522E+00 -1.136151135E+02  1.734390467E+02  1.250000000E+02  0.00000E+00  9.000E+00
      25     1     1     2     0     0 -2.988116225E+01 -2.890679624E+02  1.719036432E+03  1.747902865E+03  1.250000000E+02  0.00000E+00  9.000E+00
      21     1     1     2   502   511  6.841154848E+01  2.970126599E+02 -6.897153894E+02  7.540583389E+02  1.525878906E-05  0.00000E+00  9.000E+00
#rwgt            2          11   6.4368204354652145E-003           6       21170           0
</event>
<event>
      5   9999  3.19816E-02  1.83952E+01 -1.00000E+00  1.69423E-01
      21    -1     0     0   502   501  0.000000000E+00  0.000000000E+00  1.733384476E+02  1.733384476E+02  0.000000000E+00  0.00000E+00  9.000E+00
      21    -1     0     0   501   512  0.000000000E+00  0.000000000E+00 -7.140170567E+02  7.140170567E+02  0.000000000E+00  0.00000E+00  9.000E+00
      25     1     1     2     0     0  2.595183367E+02  3.044867819E+01 -4.804476883E+02  5.610096882E+02  1.250000000E+02  0.00000E+00  9.000E+00
      25     1     1     2     0     0 -2.587267539E+02 -4.882684270E+01 -3.277392775E+01  2.932963077E+02  1.250000000E+02  0.00000E+00  9.000E+00
      21     1     1     2   502   512 -7.915827887E-01  1.837816451E+01 -2.745699309E+01  3.304950837E+01  4.768371582E-07  0.00000E+00  9.000E+00
#rwgt            1           1   2.9723355481550983E-002           6       21190           0
</event>
<event>
      5   9999  3.19816E-02  2.82837E+01 -1.00000E+00  1.54838E-01
      21    -1     0     0   511   501  0.000000000E+00  0.000000000E+00  2.526593718E+02  2.526593718E+02  0.000000000E+00  0.00000E+00  9.000E+00
      21    -1     0     0   501   502  0.000000000E+00  0.000000000E+00 -1.367927669E+02  1.367927669E+02  0.000000000E+00  0.00000E+00  9.000E+00
      25     1     1     2     0     0  7.037586322E+01  5.946573622E+01  6.696003154E+01  1.691081953E+02  1.250000000E+02  0.00000E+00  9.000E+00
      25     1     1     2     0     0 -9.864608740E+01 -6.033764891E+01  7.820289542E+00  1.704636013E+02  1.250000000E+02  0.00000E+00  9.000E+00
      21     1     1     2   511   502  2.827022418E+01  8.719126822E-01  4.108628380E+01  4.988034205E+01  0.000000000E+00  0.00000E+00  9.000E+00
#rwgt            1           1   3.0484840126862763E-002           6       21433           0
</event>
<event>
      5   9999  3.19816E-02  2.91765E+01 -1.00000E+00  1.53884E-01
      21    -1     0     0   502   501  0.000000000E+00  0.000000000E+00  1.855629162E+02  1.855629162E+02  0.000000000E+00  0.00000E+00  9.000E+00
      21    -1     0     0   501   512  0.000000000E+00  0.000000000E+00 -3.119421356E+02  3.119421356E+02  0.000000000E+00  0.00000E+00  9.000E+00
      25     1     1     2     0     0  1.345097896E+02 -8.089175426E+00  8.939310064E+01  2.043879759E+02  1.250000000E+02  0.00000E+00  9.000E+00
      25     1     1     2     0     0 -1.109889626E+02  2.535290881E+01 -1.878395179E+02  2.527251557E+02  1.250000000E+02  0.00000E+00  9.000E+00
      21     1     1     2   502   512 -2.352082698E+01 -1.726373338E+01 -2.793280210E+01  4.039192030E+01  5.840038640E-07  0.00000E+00  9.000E+00
#rwgt            1           1   3.0787053470568915E-002           6       21523           0
</event>
<event>
      5   9999  3.19816E-02  2.58141E+01 -1.00000E+00  1.57716E-01
      21    -1     0     0   511   501  0.000000000E+00  0.000000000E+00  4.148879253E+02  4.148879253E+02  0.000000000E+00  0.00000E+00  9.000E+00
      21    -1     0     0   501   502  0.000000000E+00  0.000000000E+00 -5.488048164E+02  5.488048164E+02  0.000000000E+00  0.00000E+00  9.000E+00
      25     1     1     2     0     0  2.223365538E+02 -1.095166859E+02  2.925365844E+02  4.032742254E+02  1.250000000E+02  0.00000E+00  9.000E+00
      25     1     1     2     0     0 -2.018003384E+02  1.251573142E+02 -4.509988248E+02  5.247977419E+02  1.250000000E+02  0.00000E+00  9.000E+00
      21     1     1     2   511   502 -2.053621544E+01 -1.564062832E+01  2.454534934E+01  3.562077446E+01  7.539457465E-07  0.00000E+00  9.000E+00
#rwgt            1           1   3.1021624127179497E-002           6       21656           0
</event>
<event>
      5   9999  3.19816E-02  1.83193E+01 -1.00000E+00  1.69577E-01
      21    -1     0     0   502   501  0.000000000E+00  0.000000000E+00  1.212100506E+02  1.212100506E+02  0.000000000E+00  0.00000E+00  9.000E+00
      21    -1     0     0   512   502  0.000000000E+00  0.000000000E+00 -4.288631364E+02  4.288631364E+02  0.000000000E+00  0.00000E+00  9.000E+00
      25     1     1     2     0     0 -5.321771126E+01 -5.692182834E+01 -3.201058230E+02  3.523704830E+02  1.250000000E+02  0.00000E+00  9.000E+00
      25     1     1     2     0     0  5.510719103E+01  7.514342960E+01  4.331197560E+01  1.618155269E+02  1.250000000E+02  0.00000E+00  9.000E+00
      21     1     1     2   512   501 -1.889479770E+00 -1.822160126E+01 -3.085923843E+01  3.588717714E+01  3.371747881E-07  0.00000E+00  9.000E+00
#rwgt            1           1   2.4620911360230646E-002           6       21832           0
</event>
<event>
      5   9999  3.19816E-02  6.30178E+00 -1.00000E+00  2.22212E-01
      21    -1     0     0   502   511  0.000000000E+00  0.000000000E+00  8.778617723E+02  8.778617723E+02  0.000000000E+00  0.00000E+00  9.000E+00
      21    -1     0     0   501   502  0.000000000E+00  0.000000000E+00 -2.166424126E+02  2.166424126E+02  0.000000000E+00  0.00000E+00  9.000E+00
      25     1     1     2     0     0  3.251135777E+02  4.145250295E+01  4.089312072E+01  3.531492541E+02  1.250000000E+02  0.00000E+00  9.000E+00
      25     1     1     2     0     0 -3.314147521E+02 -4.136510549E+01  4.654855399E+02  5.863860484E+02  1.250000000E+02  0.00000E+00  9.000E+00
      21     1     1     2   501   511  6.301174483E+00 -8.739746519E-02  1.548406990E+02  1.549688824E+02  1.907348633E-06  0.00000E+00  9.000E+00
#rwgt            1           1   2.6780055002927430E-002           6       21956           0
</event>
<event>
      5   9999  3.19816E-02  3.56348E+01 -1.00000E+00  1.48023E-01
      -2    -1     0     0     0   501  0.000000000E+00  0.000000000E+00  3.925405554E+02  3.925405554E+02  0.000000000E+00  0.00000E+00  9.000E+00
      21    -1     0     0   501   502  0.000000000E+00  0.000000000E+00 -5.761448003E+02  5.761448003E+02  0.000000000E+00  0.00000E+00  9.000E+00
      25     1     1     2     0     0  2.403710675E+01  2.993293855E+02 -3.575903442E+02  4.833960258E+02  1.250000000E+02  0.00000E+00  9.000E+00
      25     1     1     2     0     0  9.142789143E+00 -2.863319373E+02  5.014990169E+00  3.126015339E+02  1.250000000E+02  0.00000E+00  9.000E+00
      -2     1     1     2     0   502 -3.317989590E+01 -1.299744821E+01  1.689711091E+02  1.726877959E+02  0.000000000E+00  0.00000E+00  9.000E+00
#rwgt            2           4   3.3536239098649556E-005           6       22208           0
</event>
<event>
      5   9999  3.19816E-02  8.67903E+01 -1.00000E+00  1.26660E-01
      -3    -1     0     0     0   501  0.000000000E+00  0.000000000E+00  1.646753964E+02  1.646753964E+02  0.000000000E+00  0.00000E+00  9.000E+00
      21    -1     0     0   501   502  0.000000000E+00  0.000000000E+00 -1.138886554E+03  1.138886554E+03  0.000000000E+00  0.00000E+00  9.000E+00
      25     1     1     2     0     0 -1.104196660E+02  1.818337463E+02 -2.639747487E+02  3.613359681E+02  1.250000000E+02  0.00000E+00  9.000E+00
      25     1     1     2     0     0  1.095457574E+02 -9.504779903E+01 -7.968981916E+02  8.195767718E+02  1.250000000E+02  0.00000E+00  9.000E+00
      -3     1     1     2     0   502  8.739085801E-01 -8.678594724E+01  8.666178240E+01  1.226492107E+02  3.814697266E-06  0.00000E+00  9.000E+00
#rwgt            1           1   3.0177041350152187E-002           6       22227           0
</event>
<event>
      5   9999  3.19816E-02  8.96403E+01 -1.00000E+00  1.26003E-01
      21    -1     0     0   502   501  0.000000000E+00  0.000000000E+00  2.794292072E+02  2.794292072E+02  0.000000000E+00  0.00000E+00  9.000E+00
      -1    -1     0     0     0   502  0.000000000E+00  0.000000000E+00 -1.330414585E+03  1.330414585E+03  0.000000000E+00  0.00000E+00  9.000E+00
      25     1     1     2     0     0 -2.695956834E+01 -3.192243952E+02 -1.043271943E+03  1.098486404E+03  1.250000000E+02  0.00000E+00  9.000E+00
      25     1     1     2     0     0  1.110153330E+02  2.880792681E+02  1.211141182E+02  3.544117641E+02  1.250000000E+02  0.00000E+00  9.000E+00
      -1     1     1     2     0   501 -8.405576471E+01  3.114512706E+01 -1.288275537E+02  1.569456247E+02  1.907348633E-06  0.00000E+00  9.000E+00
#rwgt            1           1   2.5821867729817701E-002           6       22272           0
</event>
<event>
      5   9999  3.19816E-02  4.02219E+01 -1.00000E+00  1.44691E-01
      21    -1     0     0   502   501  0.000000000E+00  0.000000000E+00  1.206297167E+03  1.206297167E+03  0.000000000E+00  0.00000E+00  9.000E+00
      21    -1     0     0   501   511  0.000000000E+00  0.000000000E+00 -2.274706163E+02  2.274706163E+02  0.000000000E+00  0.00000E+00  9.000E+00
      25     1     1     2     0     0 -3.453649835E+02  2.452483402E+02  8.324706198E+02  9.423672601E+02  1.250000000E+02  0.00000E+00  9.000E+00
      25     1     1     2     0     0  3.066776118E+02 -2.562525209E+02  1.609611548E+02  4.486089671E+02  1.250000000E+02  0.00000E+00  9.000E+00
      21     1     1     2   502   511  3.868737169E+01  1.100418075E+01 -1.460522374E+01  4.279155621E+01  8.596304120E-07  0.00000E+00  9.000E+00
#rwgt            1           1   3.0114980392529883E-002           6       22348           0
</event>
<event>
      5   9999  3.19816E-02  1.46824E+01 -1.00000E+00  1.78264E-01
      21    -1     0     0   502   501  0.000000000E+00  0.000000000E+00  1.703654575E+02  1.703654575E+02  0.000000000E+00  0.00000E+00  9.000E+00
      21    -1     0     0   501   512  0.000000000E+00  0.000000000E+00 -4.679458611E+02  4.679458611E+02  0.000000000E+00  0.00000E+00  9.000E+00
      25     1     1     2     0     0 -2.866731222E+01  7.661928187E+01  1.294301557E+01  1.499494941E+02  1.250000000E+02  0.00000E+00  9.000E+00
      25     1     1     2     0     0  3.832782144E+01 -6.556277713E+01  2.850675562E+01  1.490138744E+02  1.250000000E+02  0.00000E+00  9.000E+00
      21     1     1     2   502   512 -9.660509220E+00 -1.105650474E+01 -3.390301749E+02  3.393479501E+02  3.814697266E-06  0.00000E+00  9.000E+00
#rwgt            1           1   3.8627233724418057E-002           6       22506           0
</event>
<event>
      5   9999  3.19816E-02  1.03741E+01 -1.00000E+00  1.93931E-01
      21    -1     0     0   502   501  0.000000000E+00  0.000000000E+00  3.928875005E+02  3.928875005E+02  0.000000000E+00  0.00000E+00  9.000E+00
       1    -1     0     0   501     0  0.000000000E+00  0.000000000E+00 -8.484354400E+02  8.484354400E+02  0.000000000E+00  0.00000E+00  9.000E+00
      25     1     1     2     0     0 -1.834278710E+02 -1.294809476E+02  2.285979105E+02  3.439376460E+02  1.250000000E+02  0.00000E+00  9.000E+00
      25     1     1     2     0     0  1.932748965E+02  1.262163945E+02 -5.506859765E+01  2.682225089E+02  1.250000000E+02  0.00000E+00  9.000E+00
       1     1     1     2   502     0 -9.847025518E+00  3.264553144E+00 -6.290772524E+02  6.291627855E+02  7.629394531E-06  0.00000E+00  9.000E+00
#rwgt            1           1   2.4664031968355361E-002           6       22642           0
</event>
<event>
      5   9999  3.19816E-02  2.66064E+02 -1.00000E+00  1.07314E-01
      21    -1     0     0   502   511  0.000000000E+00  0.000000000E+00  7.823903440E+01  7.823903440E+01  0.000000000E+00  0.00000E+00  9.000E+00
      21    -1     0     0   501   502  0.000000000E+00  0.000000000E+00 -1.723794403E+03  1.723794403E+03  0.000000000E+00  0.00000E+00  9.000E+00
      25     1     1     2     0     0 -1.300780752E+02 -4.648957820E+01 -6.449403101E+02  6.713081186E+02  1.250000000E+02  0.00000E+00  9.000E+00
      25     1     1     2     0     0 -1.040376203E+02  1.729006914E+02 -6.398545462E+02  6.824641498E+02  1.250000000E+02  0.00000E+00  9.000E+00
      21     1     1     2   501   511  2.341156955E+02 -1.264111132E+02 -3.607605126E+02  4.482611692E+02  3.814697266E-06  0.00000E+00  9.000E+00
#rwgt            1           1   3.0865225564433840E-002           6       22859           0
</event>
<event>
      5   9999  3.19816E-02  1.20502E+01 -1.00000E+00  1.86838E-01
      21    -1     0     0   502   501  0.000000000E+00  0.000000000E+00  5.622635998E+02  5.622635998E+02  0.000000000E+00  0.00000E+00  9.000E+00
      21    -1     0     0   501   512  0.000000000E+00  0.000000000E+00 -2.432498337E+02  2.432498337E+02  0.000000000E+00  0.00000E+00  9.000E+00
      25     1     1     2     0     0 -1.115199142E+01 -4.560166366E+01  5.203590695E+02  5.372173116E+02  1.250000000E+02  0.00000E+00  9.000E+00
      25     1     1     2     0     0 -7.859016848E-01  4.724320459E+01 -1.017128940E+02  1.679376397E+02  1.250000000E+02  0.00000E+00  9.000E+00
      21     1     1     2   502   512  1.193789310E+01 -1.641540930E+00 -9.963240945E+01  1.003584823E+02  1.348699152E-06  0.00000E+00  9.000E+00
#rwgt            1           1   2.8644797877738108E-002           6       22887           0
</event>
<event>
      5   9999  3.19816E-02  7.94586E+01 -1.00000E+00  1.28492E-01
      21    -1     0     0   502   511  0.000000000E+00  0.000000000E+00  1.644162484E+02  1.644162484E+02  0.000000000E+00  0.00000E+00  9.000E+00
      21    -1     0     0   501   502  0.000000000E+00  0.000000000E+00 -1.628296092E+03  1.628296092E+03  0.000000000E+00  0.00000E+00  9.000E+00
      25     1     1     2     0     0  5.882727378E+01 -2.096404592E+02 -4.289131208E+02  4.969921886E+02  1.250000000E+02  0.00000E+00  9.000E+00
      25     1     1     2     0     0 -5.186451271E+01  1.304874840E+02 -1.144813976E+03  1.160146952E+03  1.250000000E+02  0.00000E+00  9.000E+00
      21     1     1     2   501   511 -6.962761075E+00  7.915297526E+01  1.098472529E+02  1.355731998E+02  1.348699152E-06  0.00000E+00  9.000E+00
#rwgt            1           1   2.8734252395175363E-002           6       23094           0
</event>
<event>
      5   9999  3.19816E-02  4.02206E+01 -1.00000E+00  1.44692E-01
      21    -1     0     0   502   501  0.000000000E+00  0.000000000E+00  5.553774573E+01  5.553774573E+01  0.000000000E+00  0.00000E+00  9.000E+00
      21    -1     0     0   501   512  0.000000000E+00  0.000000000E+00 -8.173833123E+02  8.173833123E+02  0.000000000E+00  0.00000E+00  9.000E+00
      25     1     1     2     0     0  2.775332902E+01 -1.289169986E+02 -3.242059979E+02  3.716508696E+02  1.250000000E+02  0.00000E+00  9.000E+00
      25     1     1     2     0     0  6.151592475E+00  1.505539314E+02 -3.029615009E+02  3.607145678E+02  1.250000000E+02  0.00000E+00  9.000E+00
      21     1     1     2   502   512 -3.390492150E+01 -2.163693280E+01 -1.346780677E+02  1.405556206E+02  0.000000000E+00  0.00000E+00  9.000E+00
#rwgt            1           1   3.1236085469475698E-002           6       23170           0
</event>
<event>
      5   9999  3.19816E-02  1.53569E+01 -1.00000E+00  1.76427E-01
      21    -1     0     0   511   501  0.000000000E+00  0.000000000E+00  3.046219074E+02  3.046219074E+02  0.000000000E+00  0.00000E+00  9.000E+00
      21    -1     0     0   501   502  0.000000000E+00  0.000000000E+00 -2.510857714E+02  2.510857714E+02  0.000000000E+00  0.00000E+00  9.000E+00
      25     1     1     2     0     0  7.274940904E+01 -1.067910664E+02 -1.712514460E+02  2.482918970E+02  1.250000000E+02  0.00000E+00  9.000E+00
      25     1     1     2     0     0 -7.941322611E+01  1.206268542E+02  1.901036755E+02  2.694841478E+02  1.250000000E+02  0.00000E+00  9.000E+00
      21     1     1     2   511   502  6.663817074E+00 -1.383578786E+01  3.468390649E+01  3.793163393E+01  4.768371582E-07  0.00000E+00  9.000E+00
#rwgt            1           1   3.2917729295944657E-002           6       23258           0
</event>
<event>
      5   9999  3.19816E-02  5.86829E+01 -1.00000E+00  1.35221E-01
      21    -1     0     0   502   501  0.000000000E+00  0.000000000E+00  1.090701665E+03  1.090701665E+03  0.000000000E+00  0.00000E+00  9.000E+00
      21    -1     0     0   501   512  0.000000000E+00  0.000000000E+00 -1.113222454E+02  1.113222454E+02  0.000000000E+00  0.00000E+00  9.000E+00
      25     1     1     2     0     0  2.474769552E+01 -8.524504223E+01  9.375516574E+02  9.500038295E+02  1.250000000E+02  0.00000E+00  9.000E+00
      25     1     1     2     0     0  2.583274944E+01  1.149990608E+02 -1.222082406E+01  1.722395526E+02  1.250000000E+02  0.00000E+00  9.000E+00
      21     1     1     2   502   512 -5.058044497E+01 -2.975401859E+01  5.404858634E+01  7.978052845E+01  1.507891493E-06  0.00000E+00  9.000E+00
#rwgt            1           1   2.5472145052549966E-002           6       23454           0
</event>
<event>
      5   9999  3.19816E-02  2.90022E+01 -1.00000E+00  1.54067E-01
       3    -1     0     0   502     0  0.000000000E+00  0.000000000E+00  2.238827204E+02  2.238827204E+02  0.000000000E+00  0.00000E+00  9.000E+00
      21    -1     0     0   501   502  0.000000000E+00  0.000000000E+00 -2.454777584E+02  2.454777584E+02  0.000000000E+00  0.00000E+00  9.000E+00
      25     1     1     2     0     0  1.348243431E+02  2.812256265E+01 -1.462413785E+02  2.366009781E+02  1.250000000E+02  0.00000E+00  9.000E+00
      25     1     1     2     0     0 -1.059376626E+02 -3.070818019E+01  9.801463415E+01  1.933847181E+02  1.250000000E+02  0.00000E+00  9.000E+00
       3     1     1     2   501     0 -2.888668048E+01  2.585617534E+00  2.663170641E+01  3.937478270E+01  5.840038640E-07  0.00000E+00  9.000E+00
#rwgt            1           1   3.2112561319328971E-002           6       23602           0
</event>
<event>
      5   9999  3.19816E-02  2.35464E+01 -1.00000E+00  1.60724E-01
      21    -1     0     0   502   501  0.000000000E+00  0.000000000E+00  3.895124482E+02  3.895124482E+02  0.000000000E+00  0.00000E+00  9.000E+00
      21    -1     0     0   511   502  0.000000000E+00  0.000000000E+00 -1.191012940E+02  1.191012940E+02  0.000000000E+00  0.00000E+00  9.000E+00
      25     1     1     2     0     0  1.052876619E+02  6.096570136E+01  1.197921941E+02  2.116068956E+02  1.250000000E+02  0.00000E+00  9.000E+00
      25     1     1     2     0     0 -8.550939677E+01 -7.374272163E+01  1.882525463E+02  2.526140675E+02  1.250000000E+02  0.00000E+00  9.000E+00
      21     1     1     2   511   501 -1.977826516E+01  1.277702027E+01 -3.763358626E+01  4.439277908E+01  8.259061849E-07  0.00000E+00  9.000E+00
#rwgt            1           1   2.9292805670554735E-002           6       23692           0
</event>
<event>
      5   9999  3.19816E-02  1.31315E+02 -1.00000E+00  1.18730E-01
      21    -1     0     0   502   501  0.000000000E+00  0.000000000E+00  9.885484752E+01  9.885484752E+01  0.000000000E+00  0.00000E+00  9.000E+00
      -1    -1     0     0     0   502  0.000000000E+00  0.000000000E+00 -1.350221989E+03  1.350221989E+03  0.000000000E+00  0.00000E+00  9.000E+00
      25     1     1     2     0     0  1.768957604E+02 -1.852107200E+02 -5.023733575E+02  5.775803937E+02  1.250000000E+02  0.00000E+00  9.000E+00
      25     1     1     2     0     0 -2.722320949E+02  9.490775330E+01 -5.289936707E+02  6.152861926E+02  1.250000000E+02  0.00000E+00  9.000E+00
      -1     1     1     2     0   501  9.533633449E+01  9.030296674E+01 -2.200001133E+02  2.562102502E+02  3.814697266E-06  0.00000E+00  9.000E+00
#rwgt            1           1   2.8028468392290125E-002           6       23786           0
</event>
<event>
      5   9999  3.49606E-02  7.30754E+00 -1.00000E+00  2.12948E-01
      21    -1     0     0   511   501  0.000000000E+00  0.000000000E+00  2.309867199E+03  2.309867199E+03  0.000000000E+00  0.00000E+00  9.000E+00
      21    -1     0     0   501   502  0.000000000E+00  0.000000000E+00 -5.792868191E+01  5.792868191E+01  0.000000000E+00  0.00000E+00  9.000E+00
      25     1     1     2     0     0 -1.504399694E+02  3.001612678E+02  8.901896312E+02  9.595788402E+02  1.250000000E+02  0.00000E+00  9.000E+00
      25     1     1     2     0     0  1.477003289E+02 -2.933867139E+02  1.332282046E+03  1.377857612E+03  1.250000000E+02  0.00000E+00  9.000E+00
      21     1     1     2   511   502  2.739640499E+00 -6.774553871E+00  2.946684079E+01  3.035942879E+01  4.768371582E-07  0.00000E+00  9.000E+00
#rwgt            1           1   9.8999232216940056E-002           6       23831           0
</event>
<event>
      5   9999  3.19816E-02  1.05648E+02 -1.00000E+00  1.22764E-01
      21    -1     0     0   502   501  0.000000000E+00  0.000000000E+00  4.834448636E+02  4.834448636E+02  0.000000000E+00  0.00000E+00  9.000E+00
      21    -1     0     0   512   502  0.000000000E+00  0.000000000E+00 -5.112230248E+02  5.112230248E+02  0.000000000E+00  0.00000E+00  9.000E+00
      25     1     1     2     0     0 -8.329428156E+00  4.225553911E+02  2.055152526E+02  4.862961618E+02  1.250000000E+02  0.00000E+00  9.000E+00
      25     1     1     2     0     0  3.050546383E+01 -3.192609636E+02 -1.586547837E+02  3.790177919E+02  1.250000000E+02  0.00000E+00  9.000E+00
      21     1     1     2   512   501 -2.217603568E+01 -1.032944275E+02 -7.463863005E+01  1.293539347E+02  1.651812370E-06  0.00000E+00  9.000E+00
#rwgt            1           1   2.8150121965043011E-002           6       24162           0
</event>
<event>
      5   9999  3.19816E-02  7.42161E+01 -1.00000E+00  1.29947E-01
      21    -1     0     0   502   501  0.000000000E+00  0.000000000E+00  1.085377817E+02  1.085377817E+02  0.000000000E+00  0.00000E+00  9.000E+00
      21    -1     0     0   511   502  0.000000000E+00  0.000000000E+00 -9.231334976E+02  9.231334976E+02  0.000000000E+00  0.00000E+00  9.000E+00
      25     1     1     2     0     0 -1.780706779E+02 -7.299162335E+01 -1.590002566E+02  2.791827806E+02  1.250000000E+02  0.00000E+00  9.000E+00
      25     1     1     2     0     0  2.522485867E+02  7.537333688E+01 -4.755750363E+02  5.577697594E+02  1.250000000E+02  0.00000E+00  9.000E+00
      21     1     1     2   511   501 -7.417790884E+01 -2.381713535E+00 -1.800204230E+02  1.947187392E+02  2.697398305E-06  0.00000E+00  9.000E+00
#rwgt            1           1   2.2844835266344111E-002           6       24249           0
</event>
<event>
      5   9999  3.19816E-02  1.19713E+01 -1.00000E+00  1.87137E-01
       2    -1     0     0   502     0  0.000000000E+00  0.000000000E+00  2.495954208E+02  2.495954208E+02  0.000000000E+00  0.00000E+00  9.000E+00
      21    -1     0     0   501   502  0.000000000E+00  0.000000000E+00 -5.456452441E+02  5.456452441E+02  0.000000000E+00  0.00000E+00  9.000E+00
      25     1     1     2     0     0  8.745908960E+01 -2.865981808E+02  3.324332543E+01  3.263705383E+02  1.250000000E+02  0.00000E+00  9.000E+00
      25     1     1     2     0     0 -8.645159773E+01  2.746693357E+02 -2.884766046E+02  4.263342282E+02  1.250000000E+02  0.00000E+00  9.000E+00
       2     1     1     2   501     0 -1.007491870E+00  1.192884508E+01 -4.081654411E+01  4.253589846E+01  4.768371582E-07  0.00000E+00  9.000E+00
#rwgt            1           1   2.4494225619849805E-002           6       24335           0
</event>
<event>
      5   9999  3.19816E-02  6.69232E+01 -1.00000E+00  1.32217E-01
      21    -1     0     0   502   501  0.000000000E+00  0.000000000E+00  1.441008835E+02  1.441008835E+02  0.000000000E+00  0.00000E+00  9.000E+00
      -2    -1     0     0     0   502  0.000000000E+00  0.000000000E+00 -3.344557443E+02  3.344557443E+02  0.000000000E+00  0.00000E+00  9.000E+00
      25     1     1     2     0     0  1.355370916E+01  8.908836186E+00  6.577255598E+01  1.421762973E+02  1.250000000E+02  0.00000E+00  9.000E+00
      25     1     1     2     0     0  1.227887823E+01 -7.064534784E+01 -1.323066118E+02  1.956312234E+02  1.250000000E+02  0.00000E+00  9.000E+00
      -2     1     1     2     0   501 -2.583258740E+01  6.173651165E+01 -1.238208049E+02  1.407491072E+02  2.336015456E-06  0.00000E+00  9.000E+00
#rwgt            1           1   2.8815704932840535E-002           6       24513           0
</event>
<event>
      5   9999  3.19816E-02  1.87781E+02 -1.00000E+00  1.12654E-01
      21    -1     0     0   502   501  0.000000000E+00  0.000000000E+00  3.636599844E+02  3.636599844E+02  0.000000000E+00  0.00000E+00  9.000E+00
       2    -1     0     0   501     0  0.000000000E+00  0.000000000E+00 -1.414435400E+03  1.414435400E+03  0.000000000E+00  0.00000E+00  9.000E+00
      25     1     1     2     0     0  2.948304233E+02 -5.428417744E+02 -3.249587397E+02  7.091017932E+02  1.250000000E+02  0.00000E+00  9.000E+00
      25     1     1     2     0     0 -1.507028610E+02  4.224710376E+02 -1.929921527E+02  5.040477169E+02  1.250000000E+02  0.00000E+00  9.000E+00
       2     1     1     2   502     0 -1.441275623E+02  1.203707368E+02 -5.328245232E+02  5.649458745E+02  7.629394531E-06  0.00000E+00  9.000E+00
#rwgt            1           1   2.9151970879764268E-002           6       24593           0
</event>
<event>
      5   9999  3.19816E-02  3.14020E+01 -1.00000E+00  1.51675E-01
      21    -1     0     0   511   501  0.000000000E+00  0.000000000E+00  1.394057853E+02  1.394057853E+02  0.000000000E+00  0.00000E+00  9.000E+00
      21    -1     0     0   501   502  0.000000000E+00  0.000000000E+00 -9.972386054E+02  9.972386054E+02  0.000000000E+00  0.00000E+00  9.000E+00
      25     1     1     2     0     0  3.096004470E+02  7.489405586E+01 -6.200837728E+02  7.082305004E+02  1.250000000E+02  0.00000E+00  9.000E+00
      25     1     1     2     0     0 -2.955155441E+02 -4.682800457E+01 -2.241362613E+02  3.941882323E+02  1.250000000E+02  0.00000E+00  9.000E+00
      21     1     1     2   511   502 -1.408490287E+01 -2.806605129E+01 -1.361278597E+01  3.422565801E+01  5.591411304E-07  0.00000E+00  9.000E+00
#rwgt            1           1   2.7209854427985802E-002           6       24662           0
</event>
<event>
      5   9999  3.19816E-02  3.03663E+01 -1.00000E+00  1.52675E-01
      21    -1     0     0   512   501  0.000000000E+00  0.000000000E+00  3.061998445E+02  3.061998445E+02  0.000000000E+00  0.00000E+00  9.000E+00
      21    -1     0     0   501   502  0.000000000E+00  0.000000000E+00 -2.916918364E+03  2.916918364E+03  0.000000000E+00  0.00000E+00  9.000E+00
      25     1     1     2     0     0  6.010169565E+02 -1.420062135E+02 -2.152206192E+02  6.658318569E+02  1.250000000E+02  0.00000E+00  9.000E+00
      25     1     1     2     0     0 -6.301771857E+02  1.504791640E+02 -2.426066972E+03  2.514198325E+03  1.250000000E+02  0.00000E+00  9.000E+00
      21     1     1     2   512   502  2.916022915E+01 -8.472950503E+00  3.056907208E+01  4.308802644E+01  9.536743164E-07  0.00000E+00  9.000E+00
#rwgt            1           1   2.4882801333550100E-002           6       24799           0
</event>
<event>
      5   9999  3.19816E-02  1.43779E+02 -1.00000E+00  1.17127E-01
      21    -1     0     0   502   501  0.000000000E+00  0.000000000E+00  2.239612446E+03  2.239612446E+03  0.000000000E+00  0.00000E+00  9.000E+00
       2    -1     0     0   501     0  0.000000000E+00  0.000000000E+00 -1.534964988E+03  1.534964988E+03  0.000000000E+00  0.00000E+00  9.000E+00
      25     1     1     2     0     0 -7.094542305E+02  4.837583983E+02 -1.347458753E+02  8.781394787E+02  1.250000000E+02  0.00000E+00  9.000E+00
      25     1     1     2     0     0  7.552256430E+02 -6.200574948E+02  1.731875002E+03  1.992449019E+03  1.250000000E+02  0.00000E+00  9.000E+00
       2     1     1     2   502     0 -4.577141252E+01  1.362990965E+02 -8.924816692E+02  9.039889357E+02  1.078959322E-05  0.00000E+00  9.000E+00
#rwgt            1           1   7.2013365756670278E-002           6       25011           0
</event>
<event>
      5   9999  3.19816E-02  7.40226E+00 -1.00000E+00  2.12180E-01
      21    -1     0     0   502   511  0.000000000E+00  0.000000000E+00  1.292577753E+02  1.292577753E+02  0.000000000E+00  0.00000E+00  9.000E+00
      21    -1     0     0   501   502  0.000000000E+00  0.000000000E+00 -3.547411221E+02  3.547411221E+02  0.000000000E+00  0.00000E+00  9.000E+00
      25     1     1     2     0     0 -7.634465456E+01 -4.600417820E+01  4.390437849E+01  1.596793197E+02  1.250000000E+02  0.00000E+00  9.000E+00
      25     1     1     2     0     0  8.338125433E+01  4.830195635E+01 -2.735579301E+02  3.158234533E+02  1.250000000E+02  0.00000E+00  9.000E+00
      21     1     1     2   501   511 -7.036599763E+00 -2.297778142E+00  4.170204749E+00  8.496124309E+00  1.032382731E-07  0.00000E+00  9.000E+00
#rwgt            1           1   3.5890200663312131E-002           6       25117           0
</event>
<event>
      5   9999  3.19816E-02  4.84742E+01 -1.00000E+00  1.39848E-01
      21    -1     0     0   502   512  0.000000000E+00  0.000000000E+00  7.167898527E+02  7.167898527E+02  0.000000000E+00  0.00000E+00  9.000E+00
      21    -1     0     0   501   502  0.000000000E+00  0.000000000E+00 -7.915308218E+02  7.915308218E+02  0.000000000E+00  0.00000E+00  9.000E+00
      25     1     1     2     0     0 -1.070315562E+02  2.515557024E+02 -3.625366686E+02  4.709499565E+02  1.250000000E+02  0.00000E+00  9.000E+00
      25     1     1     2     0     0  1.526650673E+02 -2.352055474E+02 -3.107717757E+02  4.368436435E+02  1.250000000E+02  0.00000E+00  9.000E+00
      21     1     1     2   501   512 -4.563351119E+01 -1.635015508E+01  5.985674751E+02  6.005270745E+02  1.078959322E-05  0.00000E+00  9.000E+00
#rwgt            1           1   3.2476253237972180E-002           6       25354           0
</event>
<event>
      5   9999  3.19816E-02  7.12028E+01 -1.00000E+00  1.30847E-01
      21    -1     0     0   511   501  0.000000000E+00  0.000000000E+00  1.587775433E+03  1.587775433E+03  0.000000000E+00  0.00000E+00  9.000E+00
      21    -1     0     0   501   502  0.000000000E+00  0.000000000E+00 -3.177140592E+02  3.177140592E+02  0.000000000E+00  0.00000E+00  9.000E+00
      25     1     1     2     0     0 -5.038544567E+02  4.231520489E+02  7.418913486E+02  9.994772350E+02  1.250000000E+02  0.00000E+00  9.000E+00
      25     1     1     2     0     0  5.417940621E+02 -3.628990291E+02  4.627624593E+02  8.093272545E+02  1.250000000E+02  0.00000E+00  9.000E+00
      21     1     1     2   511   502 -3.793960543E+01 -6.025301979E+01  6.540756546E+01  9.668500231E+01  1.907348633E-06  0.00000E+00  9.000E+00
#rwgt            1           1   1.4919436346706630E-002           6       25466           0
</event>
<event>
      5   9999  3.19816E-02  3.31439E+01 -1.00000E+00  1.50093E-01
      21    -1     0     0   502   501  0.000000000E+00  0.000000000E+00  7.498652924E+02  7.498652924E+02  0.000000000E+00  0.00000E+00  9.000E+00
      21    -1     0     0   512   502  0.000000000E+00  0.000000000E+00 -6.097966200E+02  6.097966200E+02  0.000000000E+00  0.00000E+00  9.000E+00
      25     1     1     2     0     0 -2.183609516E+01 -3.931811583E+01  7.307689659E+02  7.427455896E+02  1.250000000E+02  0.00000E+00  9.000E+00
      25     1     1     2     0     0 -2.265548940E+00  1.656658541E+01 -5.507633460E+02  5.650175642E+02  1.250000000E+02  0.00000E+00  9.000E+00
      21     1     1     2   512   501  2.410164410E+01  2.275153042E+01 -3.993694747E+01  5.189875874E+01  4.768371582E-07  0.00000E+00  9.000E+00
#rwgt            1           1   3.0626625113715427E-002           6       25562           0
</event>
<event>
      5   9999  3.19816E-02  7.74027E+00 -1.00000E+00  2.09563E-01
      21    -1     0     0   502   501  0.000000000E+00  0.000000000E+00  6.654709586E+02  6.654709586E+02  0.000000000E+00  0.00000E+00  9.000E+00
      21    -1     0     0   501   511  0.000000000E+00  0.000000000E+00 -8.602080216E+02  8.602080216E+02  0.000000000E+00  0.00000E+00  9.000E+00
      25     1     1     2     0     0  1.508473780E+02 -6.143031517E+02 -4.602460563E+02  7.921961412E+02  1.250000000E+02  0.00000E+00  9.000E+00
      25     1     1     2     0     0 -1.558519807E+02  6.202078697E+02  2.859871521E+02  7.115906777E+02  1.250000000E+02  0.00000E+00  9.000E+00
      21     1     1     2   502   511  5.004602686E+00 -5.904717936E+00 -2.047815873E+01  2.189216131E+01  3.371747881E-07  0.00000E+00  9.000E+00
#rwgt            1           1   3.0643203431854355E-002           6       25698           0
</event>
<event>
      5   9999  3.19816E-02  5.17428E+01 -1.00000E+00  1.38232E-01
      21    -1     0     0   502   501  0.000000000E+00  0.000000000E+00  1.658563734E+02  1.658563734E+02  0.000000000E+00  0.00000E+00  9.000E+00
      21    -1     0     0   501   512  0.000000000E+00  0.000000000E+00 -2.497721041E+02  2.497721041E+02  0.000000000E+00  0.00000E+00  9.000E+00
      25     1     1     2     0     0 -3.609582603E+01 -4.599506796E+01  4.014846620E+01  1.437197073E+02  1.250000000E+02  0.00000E+00  9.000E+00
      25     1     1     2     0     0  5.821921971E+01  9.276978075E+01 -3.643249675E+01  1.701412254E+02  1.250000000E+02  0.00000E+00  9.000E+00
      21     1     1     2   502   512 -2.212339368E+01 -4.677471279E+01 -8.763170013E+01  1.017675448E+02  1.651812370E-06  0.00000E+00  9.000E+00
#rwgt            1           1   6.1034136932384568E-002           6       26180           0
</event>
<event>
      5   9999  3.19816E-02  7.99447E+01 -1.00000E+00  1.28364E-01
      21    -1     0     0   502   501  0.000000000E+00  0.000000000E+00  2.915992334E+02  2.915992334E+02  0.000000000E+00  0.00000E+00  9.000E+00
      21    -1     0     0   501   511  0.000000000E+00  0.000000000E+00 -7.168378176E+02  7.168378176E+02  0.000000000E+00  0.00000E+00  9.000E+00
      25     1     1     2     0     0 -2.642271046E+01 -1.647633622E+02 -5.755988426E+02  6.121961718E+02  1.250000000E+02  0.00000E+00  9.000E+00
      25     1     1     2     0     0 -5.178049196E+01  1.813588684E+02  2.001257351E+02  3.020721244E+02  1.250000000E+02  0.00000E+00  9.000E+00
      21     1     1     2   502   511  7.820320242E+01 -1.659550617E+01 -4.976547665E+01  9.416875469E+01  1.651812370E-06  0.00000E+00  9.000E+00
#rwgt            1           1   2.8056478785897430E-002           6       26257           0
</event>
<event>
      5   9999  3.19816E-02  5.32285E+01 -1.00000E+00  1.37543E-01
      21    -1     0     0   502   501  0.000000000E+00  0.000000000E+00  3.000228333E+02  3.000228333E+02  0.000000000E+00  0.00000E+00  9.000E+00
      21    -1     0     0   501   512  0.000000000E+00  0.000000000E+00 -2.976997826E+02  2.976997826E+02  0.000000000E+00  0.00000E+00  9.000E+00
      25     1     1     2     0     0  1.746250835E+02 -1.707834511E+02  9.655907015E+01  2.908772266E+02  1.250000000E+02  0.00000E+00  9.000E+00
      25     1     1     2     0     0 -1.399861938E+02  1.303678994E+02 -4.213589439E+01  2.323625556E+02  1.250000000E+02  0.00000E+00  9.000E+00
      21     1     1     2   502   512 -3.463888966E+01  4.041555166E+01 -5.210012501E+01  7.448283372E+01  9.536743164E-07  0.00000E+00  9.000E+00
#rwgt            1           1   2.6340052087589143E-002           6       26323           0
</event>
<event>
      5   9999  3.19816E-02  4.50945E+01 -1.00000E+00  1.41684E-01
      21    -1     0     0   502   501  0.000000000E+00  0.000000000E+00  1.467229619E+03  1.467229619E+03  0.000000000E+00  0.00000E+00  9.000E+00
      21    -1     0     0   501   511  0.000000000E+00  0.000000000E+00 -9.348801510E+02  9.348801510E+02  0.000000000E+00  0.00000E+00  9.000E+00
      25     1     1     2     0     0 -9.867902234E+01 -3.348386365E+01  1.352912030E+03  1.362664552E+03  1.250000000E+02  0.00000E+00  9.000E+00
      25     1     1     2     0     0  1.237674865E+02 -3.987269673E+00  3.774366462E+01  1.799551979E+02  1.250000000E+02  0.00000E+00  9.000E+00
      21     1     1     2   502   511 -2.508846416E+01  3.747113333E+01 -8.583062267E+02  8.594900207E+02  2.157918644E-05  0.00000E+00  9.000E+00
#rwgt            1           1   3.0450151583272165E-002           6       26446           0
</event>
<event>
      5   9999  3.19816E-02  1.19729E+02 -1.00000E+00  1.20410E-01
      21    -1     0     0   502   501  0.000000000E+00  0.000000000E+00  7.335150241E+02  7.335150241E+02  0.000000000E+00  0.00000E+00  9.000E+00
      21    -1     0     0   501   512  0.000000000E+00  0.000000000E+00 -3.609610601E+02  3.609610601E+02  0.000000000E+00  0.00000E+00  9.000E+00
      25     1     1     2     0     0 -8.191245153E+01 -2.190095043E+02 -1.768069158E+02  3.186855788E+02  1.250000000E+02  0.00000E+00  9.000E+00
      25     1     1     2     0     0  1.466074844E+02  1.182642348E+02  6.034545387E+02  6.444086933E+02  1.250000000E+02  0.00000E+00  9.000E+00
      21     1     1     2   502   512 -6.469503292E+01  1.007452695E+02 -5.409365888E+01  1.313818121E+02  1.907348633E-06  0.00000E+00  9.000E+00
#rwgt            1           1   2.6671960972776052E-002           6       26527           0
</event>
<event>
      5   9999  3.19816E-02  1.08771E+02 -1.00000E+00  1.22208E-01
      21    -1     0     0   502   501  0.000000000E+00  0.000000000E+00  1.460992697E+02  1.460992697E+02  0.000000000E+00  0.00000E+00  9.000E+00
       1    -1     0     0   501     0  0.000000000E+00  0.000000000E+00 -1.765753246E+03  1.765753246E+03  0.000000000E+00  0.00000E+00  9.000E+00
      25     1     1     2     0     0 -8.806691761E+01  3.000927806E+02 -1.248218151E+03  1.292859239E+03  1.250000000E+02  0.00000E+00  9.000E+00
      25     1     1     2     0     0  9.922668984E+01 -1.918954057E+02 -1.917869368E+01  2.503249988E+02  1.250000000E+02  0.00000E+00  9.000E+00
       1     1     1     2   502     0 -1.115977223E+01 -1.081973748E+02 -3.522571313E+02  3.686682777E+02  5.394796609E-06  0.00000E+00  9.000E+00
#rwgt            1           1   2.9398865175098484E-002           6       26593           0
</event>
<event>
      5   9999  3.19816E-02  2.26493E+02 -1.00000E+00  1.09716E-01
      21    -1     0     0   502   501  0.000000000E+00  0.000000000E+00  7.938120170E+02  7.938120170E+02  0.000000000E+00  0.00000E+00  9.000E+00
      21    -1     0     0   511   502  0.000000000E+00  0.000000000E+00 -2.139607282E+02  2.139607282E+02  0.000000000E+00  0.00000E+00  9.000E+00
      25     1     1     2     0     0 -2.785308733E+02  5.117800506E+01  5.582602936E+02  6.383401843E+02  1.250000000E+02  0.00000E+00  9.000E+00
      25     1     1     2     0     0  5.301787307E+01 -3.013624818E+01 -1.542279821E+01  1.399355245E+02  1.250000000E+02  0.00000E+00  9.000E+00
      21     1     1     2   511   501  2.255130002E+02 -2.104175688E+01  3.701379344E+01  2.294970364E+02  2.523185073E-06  0.00000E+00  9.000E+00
#rwgt            1           1   3.1833782152466870E-002           6       26684           0
</event>
<event>
      5   9999  3.19816E-02  8.25919E+01 -1.00000E+00  1.27683E-01
      21    -1     0     0   502   501  0.000000000E+00  0.000000000E+00  2.389993554E+02  2.389993554E+02  0.000000000E+00  0.00000E+00  9.000E+00
      21    -1     0     0   501   512  0.000000000E+00  0.000000000E+00 -5.905422854E+02  5.905422854E+02  0.000000000E+00  0.00000E+00  9.000E+00
      25     1     1     2     0     0  1.780915466E+02  1.980018658E-01  7.010656021E+01  2.285969553E+02  1.250000000E+02  0.00000E+00  9.000E+00
      25     1     1     2     0     0 -1.641729857E+02  8.121261187E+01 -5.963641226E+01  2.296296131E+02  1.250000000E+02  0.00000E+00  9.000E+00
      21     1     1     2   502   512 -1.391856090E+01 -8.141061374E+01 -3.620130780E+02  3.713150724E+02  5.394796609E-06  0.00000E+00  9.000E+00
#rwgt            1           1   2.5606190847229329E-002           6       26759           0
</event>
<event>
      5   9999  3.19816E-02  9.28064E+00 -1.00000E+00  1.99581E-01
      21    -1     0     0   502   511  0.000000000E+00  0.000000000E+00  2.086384239E+02  2.086384239E+02  0.000000000E+00  0.00000E+00  9.000E+00
      21    -1     0     0   501   502  0.000000000E+00  0.000000000E+00 -1.408295308E+03  1.408295308E+03  0.000000000E+00  0.00000E+00  9.000E+00
      25     1     1     2     0     0  1.776747061E+02 -1.225304258E+02 -1.982575322E+02  3.186111352E+02  1.250000000E+02  0.00000E+00  9.000E+00
      25     1     1     2     0     0 -1.696883776E+02  1.178029743E+02 -1.137025923E+03  1.162378869E+03  1.250000000E+02  0.00000E+00  9.000E+00
      21     1     1     2   501   511 -7.986328443E+00  4.727451502E+00  1.356265711E+02  1.359437274E+02  4.672030912E-06  0.00000E+00  9.000E+00
#rwgt            1           1   3.2502133806699245E-002           6       26833           0
</event>
<event>
      5   9999  3.19816E-02  3.22067E+01 -1.00000E+00  1.50929E-01
      21    -1     0     0   502   501  0.000000000E+00  0.000000000E+00  1.062335425E+03  1.062335425E+03  0.000000000E+00  0.00000E+00  9.000E+00
      21    -1     0     0   512   502  0.000000000E+00  0.000000000E+00 -1.424774287E+02  1.424774287E+02  0.000000000E+00  0.00000E+00  9.000E+00
      25     1     1     2     0     0 -7.019824042E+01 -3.245247542E+02  3.900032858E+02  5.272301888E+02  1.250000000E+02  0.00000E+00  9.000E+00
      25     1     1     2     0     0  4.347837526E+01  3.425059089E+02  5.307252165E+02  6.453641780E+02  1.250000000E+02  0.00000E+00  9.000E+00
      21     1     1     2   512   501  2.671986516E+01 -1.798115463E+01 -8.705059939E-01  3.221848688E+01  3.828177625E-07  0.00000E+00  9.000E+00
#rwgt            1           1   2.8667533997779920E-002           6       27046           0
</event>
<event>
      5   9999  3.19816E-02  3.51776E+01 -1.00000E+00  1.48388E-01
      21    -1     0     0   502   501  0.000000000E+00  0.000000000E+00  4.188169312E+02  4.188169312E+02  0.000000000E+00  0.00000E+00  9.000E+00
      21    -1     0     0   511   502  0.000000000E+00  0.000000000E+00 -3.263975147E+02  3.263975147E+02  0.000000000E+00  0.00000E+00  9.000E+00
      25     1     1     2     0     0 -1.619635366E+02 -1.115672682E+02  2.772149564E+02  3.621499338E+02  1.250000000E+02  0.00000E+00  9.000E+00
      25     1     1     2     0     0  1.853293288E+02  1.378636544E+02 -8.312135307E+01  2.754768713E+02  1.250000000E+02  0.00000E+00  9.000E+00
      21     1     1     2   511   501 -2.336579222E+01 -2.629638617E+01 -1.016741868E+02  1.075876407E+02  1.348699152E-06  0.00000E+00  9.000E+00
#rwgt            1           1   2.7378572099633396E-002           6       27202           0
</event>
<event>
      5   9999  3.19816E-02  1.51128E+02 -1.00000E+00  1.16265E-01
      21    -1     0     0   502   501  0.000000000E+00  0.000000000E+00  5.586665442E+02  5.586665442E+02  0.000000000E+00  0.00000E+00  9.000E+00
      21    -1     0     0   512   502  0.000000000E+00  0.000000000E+00 -7.294730948E+02  7.294730948E+02  0.000000000E+00  0.00000E+00  9.000E+00
      25     1     1     2     0     0 -2.822896231E+02 -7.885092061E+01 -2.519990016E+02  4.062430255E+02  1.250000000E+02  0.00000E+00  9.000E+00
      25     1     1     2     0     0  3.749541395E+02  1.982368599E+02  3.564017882E+02  5.679222605E+02  1.250000000E+02  0.00000E+00  9.000E+00
      21     1     1     2   512   501 -9.266451639E+01 -1.193859393E+02 -2.752093372E+02  3.139743530E+02  3.814697266E-06  0.00000E+00  9.000E+00
#rwgt            1           1   2.8941893678395069E-002           6       27322           0
</event>
<event>
      5   9999  3.19816E-02  2.04379E+01 -1.00000E+00  1.65597E-01
      21    -1     0     0   502   511  0.000000000E+00  0.000000000E+00  5.340207697E+02  5.340207697E+02  0.000000000E+00  0.00000E+00  9.000E+00
      21    -1     0     0   501   502  0.000000000E+00  0.000000000E+00 -8.033383315E+01  8.033383315E+01  0.000000000E+00  0.00000E+00  9.000E+00
      25     1     1     2     0     0 -6.910652316E+01  2.615962708E+01  3.760845953E+01  1.499981129E+02  1.250000000E+02  0.00000E+00  9.000E+00
      25     1     1     2     0     0  7.461538794E+01 -4.584111905E+01  2.231662322E+02  2.703646269E+02  1.250000000E+02  0.00000E+00  9.000E+00
      21     1     1     2   501   511 -5.508864783E+00  1.968149197E+01  1.929122449E+02  1.939918631E+02  0.000000000E+00  0.00000E+00  9.000E+00
#rwgt            1           1   2.4050772289741389E-002           6       27385           0
</event>
<event>
      5   9999  3.19816E-02  6.22322E+01 -1.00000E+00  1.33861E-01
      21    -1     0     0   502   501  0.000000000E+00  0.000000000E+00  3.754132004E+03  3.754132004E+03  0.000000000E+00  0.00000E+00  9.000E+00
      21    -1     0     0   512   502  0.000000000E+00  0.000000000E+00 -2.172959042E+03  2.172959042E+03  0.000000000E+00  0.00000E+00  9.000E+00
      25     1     1     2     0     0  1.286200335E+02  5.148518849E+02  7.035585947E+02  8.900759926E+02  1.250000000E+02  0.00000E+00  9.000E+00
      25     1     1     2     0     0 -1.340728967E+02 -5.768447056E+02  2.925867320E+03  2.987816917E+03  1.250000000E+02  0.00000E+00  9.000E+00
      21     1     1     2   512   501  5.452863245E+00  6.199282068E+01 -2.048252952E+03  2.049198136E+03  5.285799584E-05  0.00000E+00  9.000E+00
#rwgt            1           1   2.2256549923498879E-002           6       27546           0
</event>
<event>
      5   9999  3.19816E-02  7.54747E+01 -1.00000E+00  1.29586E-01
      21    -1     0     0   502   501  0.000000000E+00  0.000000000E+00  1.939172635E+03  1.939172635E+03  0.000000000E+00  0.00000E+00  9.000E+00
      21    -1     0     0   511   502  0.000000000E+00  0.000000000E+00 -6.119920269E+01  6.119920269E+01  0.000000000E+00  0.00000E+00  9.000E+00
      25     1     1     2     0     0 -1.567243479E+02  1.405629949E+02  2.892918537E+02  3.789924187E+02  1.250000000E+02  0.00000E+00  9.000E+00
      25     1     1     2     0     0  1.560470350E+02 -6.509134126E+01  1.433255348E+03  1.448597063E+03  1.250000000E+02  0.00000E+00  9.000E+00
      21     1     1     2   511   501  6.773128992E-01 -7.547165364E+01  1.554262315E+02  1.727823564E+02  4.672030912E-06  0.00000E+00  9.000E+00
#rwgt            1           1   2.9529319153859816E-002           6       27673           0
</event>
<event>
      5   9999  3.19816E-02  6.72445E+01 -1.00000E+00  1.32110E-01
      21    -1     0     0   502   512  0.000000000E+00  0.000000000E+00  1.382110171E+03  1.382110171E+03  0.000000000E+00  0.00000E+00  9.000E+00
      21    -1     0     0   501   502  0.000000000E+00  0.000000000E+00 -2.528429639E+02  2.528429639E+02  0.000000000E+00  0.00000E+00  9.000E+00
      25     1     1     2     0     0 -4.601179269E+02  1.704904574E+02  2.167216713E+02  5.507892388E+02  1.250000000E+02  0.00000E+00  9.000E+00
      25     1     1     2     0     0  4.897752015E+02 -1.101392108E+02  7.884697391E+02  9.430376043E+02  1.250000000E+02  0.00000E+00  9.000E+00
      21     1     1     2   501   512 -2.965727458E+01 -6.035124668E+01  1.240757970E+02  1.411262921E+02  1.348699152E-06  0.00000E+00  9.000E+00
#rwgt            1           1   2.6727932684188712E-002           6       27746           0
</event>
<event>
      5   9999  3.19816E-02  3.30515E+01 -1.00000E+00  1.50174E-01
      21    -1     0     0   502   511  0.000000000E+00  0.000000000E+00  6.366655654E+02  6.366655654E+02  0.000000000E+00  0.00000E+00  9.000E+00
      21    -1     0     0   501   502  0.000000000E+00  0.000000000E+00 -6.083967287E+02  6.083967287E+02  0.000000000E+00  0.00000E+00  9.000E+00
      25     1     1     2     0     0  1.359831651E+02  5.007146707E+02  3.045064522E+02  6.144556795E+02  1.250000000E+02  0.00000E+00  9.000E+00
      25     1     1     2     0     0 -1.161521462E+02 -4.742736024E+02 -3.029819990E+02  5.880900125E+02  1.250000000E+02  0.00000E+00  9.000E+00
      21     1     1     2   501   511 -1.983101890E+01 -2.644106828E+01  2.674438355E+01  4.251660209E+01  3.371747881E-07  0.00000E+00  9.000E+00
#rwgt            1           1   3.3524841275208044E-002           6       27816           0
</event>
<event>
      5   9999  3.19816E-02  1.70665E+01 -1.00000E+00  1.72261E-01
      21    -1     0     0   512   501  0.000000000E+00  0.000000000E+00  1.330280961E+02  1.330280961E+02  0.000000000E+00  0.00000E+00  9.000E+00
      21    -1     0     0   501   502  0.000000000E+00  0.000000000E+00 -9.598564770E+02  9.598564770E+02  0.000000000E+00  0.00000E+00  9.000E+00
      25     1     1     2     0     0  1.557722360E+02  4.287528032E+01 -3.828004419E+01  2.078307988E+02  1.250000000E+02  0.00000E+00  9.000E+00
      25     1     1     2     0     0 -1.673046399E+02 -5.545582334E+01 -8.206913110E+02  8.486609563E+02  1.250000000E+02  0.00000E+00  9.000E+00
      21     1     1     2   512   502  1.153240394E+01  1.258054301E+01  3.214297428E+01  3.639281796E+01  4.768371582E-07  0.00000E+00  9.000E+00
#rwgt            1           1   2.9505190904666610E-002           6       28008           0
</event>
<event>
      5   9999  3.19816E-02  1.44854E+02 -1.00000E+00  1.16998E-01
      21    -1     0     0   502   501  0.000000000E+00  0.000000000E+00  2.988019464E+02  2.988019464E+02  0.000000000E+00  0.00000E+00  9.000E+00
      -4    -1     0     0     0   502  0.000000000E+00  0.000000000E+00 -3.202817945E+02  3.202817945E+02  0.000000000E+00  0.00000E+00  9.000E+00
      25     1     1     2     0     0 -1.352530563E+01  1.833054409E+02 -1.831104466E+02  2.879900245E+02  1.250000000E+02  0.00000E+00  9.000E+00
      25     1     1     2     0     0  3.486908475E+01 -4.003233243E+01  3.898342841E+01  1.412910061E+02  1.250000000E+02  0.00000E+00  9.000E+00
      -4     1     1     2     0   501 -2.134377912E+01 -1.432731085E+02  1.226471701E+02  1.898027103E+02  0.000000000E+00  0.00000E+00  9.000E+00
#rwgt            2           7   5.4568919195871406E-006           6       28168           0
</event>
<event>
      5   9999  3.19816E-02  2.56412E+01 -1.00000E+00  1.57931E-01
      21    -1     0     0   502   501  0.000000000E+00  0.000000000E+00  3.503476126E+02  3.503476126E+02  0.000000000E+00  0.00000E+00  9.000E+00
      21    -1     0     0   511   502  0.000000000E+00  0.000000000E+00 -7.472990619E+01  7.472990619E+01  0.000000000E+00  0.00000E+00  9.000E+00
      25     1     1     2     0     0 -1.696026198E+01  7.221215631E+01  7.690156286E+01  1.644417720E+02  1.250000000E+02  0.00000E+00  9.000E+00
      25     1     1     2     0     0  3.705381091E+01 -5.628352278E+01  1.777755971E+02  2.275301799E+02  1.250000000E+02  0.00000E+00  9.000E+00
      21     1     1     2   511   501 -2.009354893E+01 -1.592863353E+01  2.094054648E+01  3.310556693E+01  2.384185791E-07  0.00000E+00  9.000E+00
#rwgt            1           1   4.0692693119446066E-002           6       28187           0
</event>
<event>
      5   9999  3.19816E-02  3.14879E+01 -1.00000E+00  1.51594E-01
      21    -1     0     0   512   501  0.000000000E+00  0.000000000E+00  5.444329373E+02  5.444329373E+02  0.000000000E+00  0.00000E+00  9.000E+00
      21    -1     0     0   501   502  0.000000000E+00  0.000000000E+00 -3.199600729E+02  3.199600729E+02  0.000000000E+00  0.00000E+00  9.000E+00
      25     1     1     2     0     0 -2.915877161E+02 -1.885569660E+02  1.361623833E+02  3.933730040E+02  1.250000000E+02  0.00000E+00  9.000E+00
      25     1     1     2     0     0  3.088551436E+02  2.148879693E+02  2.137950424E+01  3.970521656E+02  1.250000000E+02  0.00000E+00  9.000E+00
      21     1     1     2   512   502 -1.726742743E+01 -2.633100323E+01  6.693097691E+01  7.396784065E+01  1.348699152E-06  0.00000E+00  9.000E+00
#rwgt            1           1   2.8467867370358415E-002           6       28322           0
</event>
<event>
      5   9999  3.19816E-02  2.56162E+02 -1.00000E+00  1.07870E-01
      21    -1     0     0   502   501  0.000000000E+00  0.000000000E+00  5.189377160E+02  5.189377160E+02  0.000000000E+00  0.00000E+00  9.000E+00
       2    -1     0     0   501     0  0.000000000E+00  0.000000000E+00 -1.479128806E+03  1.479128806E+03  0.000000000E+00  0.00000E+00  9.000E+00
      25     1     1     2     0     0 -2.515794335E+02 -7.184722014E+01 -4.324893891E+01  2.931718014E+02  1.250000000E+02  0.00000E+00  9.000E+00
      25     1     1     2     0     0  5.059771828E+02  4.183598121E+01  1.993569537E+02  5.595814094E+02  1.250000000E+02  0.00000E+00  9.000E+00
       2     1     1     2   502     0 -2.543977493E+02  3.001123893E+01 -1.116299105E+03  1.145313311E+03  0.000000000E+00  0.00000E+00  9.000E+00
#rwgt            2          13   2.4139333273449346E-003           6       28468           0
</event>
<event>
      5   9999  3.19816E-02  1.12079E+02 -1.00000E+00  1.21641E-01
      -5    -1     0     0     0   501  0.000000000E+00  0.000000000E+00  1.029193397E+02  1.029193397E+02  0.000000000E+00  0.00000E+00  9.000E+00
      21    -1     0     0   501   502  0.000000000E+00  0.000000000E+00 -1.387080170E+03  1.387080170E+03  0.000000000E+00  0.00000E+00  9.000E+00
      25     1     1     2     0     0 -1.695728216E+02 -1.848000455E+01 -1.020935888E+02  2.348287744E+02  1.250000000E+02  0.00000E+00  9.000E+00
      25     1     1     2     0     0  2.799832602E+02 -7.848481266E-01 -9.318215320E+02  9.809727874E+02  1.250000000E+02  0.00000E+00  9.000E+00
      -5     1     1     2     0   502 -1.104104386E+02  1.926485268E+01 -2.502457097E+02  2.741979481E+02  2.697398305E-06  0.00000E+00  9.000E+00
#rwgt            1           1   2.8758829301044373E-002           6       28487           0
</event>
<event>
      5   9999  3.19816E-02  3.04143E+01 -1.00000E+00  1.52627E-01
      21    -1     0     0   502   501  0.000000000E+00  0.000000000E+00  1.896821387E+02  1.896821387E+02  0.000000000E+00  0.00000E+00  9.000E+00
      21    -1     0     0   511   502  0.000000000E+00  0.000000000E+00 -2.990541691E+02  2.990541691E+02  0.000000000E+00  0.00000E+00  9.000E+00
      25     1     1     2     0     0  6.776240767E+01  3.086241692E+01  7.958626050E+01  1.658409043E+02  1.250000000E+02  0.00000E+00  9.000E+00
      25     1     1     2     0     0 -8.306728436E+01 -5.714530563E+01 -3.293762959E+01  1.639379368E+02  1.250000000E+02  0.00000E+00  9.000E+00
      21     1     1     2   511   501  1.530487669E+01  2.628288871E+01 -1.560206613E+02  1.589574667E+02  2.697398305E-06  0.00000E+00  9.000E+00
#rwgt            1           1   2.7202675109295839E-002           6       28532           0
</event>
<event>
      5   9999  3.19816E-02  4.55274E+01 -1.00000E+00  1.41438E-01
      21    -1     0     0   502   512  0.000000000E+00  0.000000000E+00  4.385922090E+02  4.385922090E+02  0.000000000E+00  0.00000E+00  9.000E+00
      21    -1     0     0   501   502  0.000000000E+00  0.000000000E+00 -2.309167783E+02  2.309167783E+02  0.000000000E+00  0.00000E+00  9.000E+00
      25     1     1     2     0     0 -1.778341240E+02  1.755207008E+02  1.085088764E+02  2.997193159E+02  1.250000000E+02  0.00000E+00  9.000E+00
      25     1     1     2     0     0  2.224411423E+02 -1.664126304E+02  6.166727369E+01  3.108071395E+02  1.250000000E+02  0.00000E+00  9.000E+00
      21     1     1     2   501   512 -4.460701827E+01 -9.108070395E+00  3.749928063E+01  5.898253193E+01  8.259061849E-07  0.00000E+00  9.000E+00
#rwgt            1           1   2.7566153906200555E-002           6       28664           0
</event>
<event>
      5   9999  3.19816E-02  1.95420E+02 -1.00000E+00  1.12016E-01
      21    -1     0     0   502   501  0.000000000E+00  0.000000000E+00  1.137337723E+02  1.137337723E+02  0.000000000E+00  0.00000E+00  9.000E+00
      21    -1     0     0   511   502  0.000000000E+00  0.000000000E+00 -1.976159134E+03  1.976159134E+03  0.000000000E+00  0.00000E+00  9.000E+00
      25     1     1     2     0     0  3.542977611E+01  1.127283557E+02 -2.145687115E+01  1.733445947E+02  1.250000000E+02  0.00000E+00  9.000E+00
      25     1     1     2     0     0 -1.167305651E+02 -2.904334664E+02 -1.202435650E+03  1.248781052E+03  1.250000000E+02  0.00000E+00  9.000E+00
      21     1     1     2   511   501  8.130078900E+01  1.777051107E+02 -6.385328410E+02  6.677672601E+02  7.629394531E-06  0.00000E+00  9.000E+00
#rwgt            2          11   2.1067199257001237E-003           6       28750           0
</event>
<event>
      5   9999  3.19816E-02  2.22003E+02 -1.00000E+00  1.10022E-01
      21    -1     0     0   502   512  0.000000000E+00  0.000000000E+00  1.098659110E+03  1.098659110E+03  0.000000000E+00  0.00000E+00  9.000E+00
      21    -1     0     0   501   502  0.000000000E+00  0.000000000E+00 -3.575329516E+02  3.575329516E+02  0.000000000E+00  0.00000E+00  9.000E+00
      25     1     1     2     0     0  4.540982100E+02 -9.154017499E+01 -2.644883930E+01  4.805302582E+02  1.250000000E+02  0.00000E+00  9.000E+00
      25     1     1     2     0     0 -2.509919455E+02  1.811682805E+02  6.341420813E+02  7.166450180E+02  1.250000000E+02  0.00000E+00  9.000E+00
      21     1     1     2   501   512 -2.031062645E+02 -8.962810551E+01  1.334329166E+02  2.590167855E+02  4.264961200E-06  0.00000E+00  9.000E+00
#rwgt            1           1   2.8389128606300183E-002           6       28800           0
</event>
<event>
      5   9999  3.19816E-02  1.00902E+02 -1.00000E+00  1.23653E-01
      21    -1     0     0   502   501  0.000000000E+00  0.000000000E+00  2.504656947E+02  2.504656947E+02  0.000000000E+00  0.00000E+00  9.000E+00
      21    -1     0     0   501   511  0.000000000E+00  0.000000000E+00 -1.735143107E+03  1.735143107E+03  0.000000000E+00  0.00000E+00  9.000E+00
      25     1     1     2     0     0 -6.154336940E+00 -6.160895366E+02 -6.081765953E+02  8.747045010E+02  1.250000000E+02  0.00000E+00  9.000E+00
      25     1     1     2     0     0 -6.941102295E+01  5.492227264E+02 -6.496920255E+02  8.626634461E+02  1.250000000E+02  0.00000E+00  9.000E+00
      21     1     1     2   502   511  7.556535989E+01  6.686681018E+01 -2.268087911E+02  2.482408541E+02  2.697398305E-06  0.00000E+00  9.000E+00
#rwgt            1           1   2.5839623060946490E-002           6       28828           0
</event>
<event>
      5   9999  3.19816E-02  6.24019E+01 -1.00000E+00  1.33799E-01
      21    -1     0     0   502   501  0.000000000E+00  0.000000000E+00  1.706295178E+03  1.706295178E+03  0.000000000E+00  0.00000E+00  9.000E+00
      21    -1     0     0   501   512  0.000000000E+00  0.000000000E+00 -1.353125637E+02  1.353125637E+02  0.000000000E+00  0.00000E+00  9.000E+00
      25     1     1     2     0     0 -1.698272881E+02 -2.072643009E+01  1.420339258E+03  1.436056928E+03  1.250000000E+02  0.00000E+00  9.000E+00
      25     1     1     2     0     0  1.904694710E+02 -3.816238545E+01  2.152410337E+02  3.157351574E+02  1.250000000E+02  0.00000E+00  9.000E+00
      21     1     1     2   502   512 -2.064218297E+01  5.888881554E+01 -6.459767699E+01  8.981565668E+01  3.303624740E-06  0.00000E+00  9.000E+00
#rwgt            1           1   3.5340968454825483E-002           6       28904           0
</event>
<event>
      5   9999  3.19816E-02  2.59225E+01 -1.00000E+00  1.57581E-01
      21    -1     0     0   511   501  0.000000000E+00  0.000000000E+00  1.821492324E+02  1.821492324E+02  0.000000000E+00  0.00000E+00  9.000E+00
      21    -1     0     0   501   502  0.000000000E+00  0.000000000E+00 -4.712407965E+02  4.712407965E+02  0.000000000E+00  0.00000E+00  9.000E+00
      25     1     1     2     0     0  1.503926259E+02  1.278067276E+02 -8.806000887E+01  2.496639075E+02  1.250000000E+02  0.00000E+00  9.000E+00
      25     1     1     2     0     0 -1.762300060E+02 -1.299056692E+02 -2.457316743E+02  3.520533392E+02  1.250000000E+02  0.00000E+00  9.000E+00
      21     1     1     2   511   502  2.583738007E+01  2.098941585E+00  4.470011905E+01  5.167278208E+01  6.743495762E-07  0.00000E+00  9.000E+00
#rwgt            1           1   2.6741318817949444E-002           6       28959           0
</event>
<event>
      5   9999  3.19816E-02  5.73985E+01 -1.00000E+00  1.35740E-01
      21    -1     0     0   502   501  0.000000000E+00  0.000000000E+00  1.779021287E+03  1.779021287E+03  0.000000000E+00  0.00000E+00  9.000E+00
      21    -1     0     0   501   512  0.000000000E+00  0.000000000E+00 -3.667977299E+02  3.667977299E+02  0.000000000E+00  0.00000E+00  9.000E+00
      25     1     1     2     0     0  3.824157008E+02 -5.056989940E+02  1.546661210E+02  6.644696003E+02  1.250000000E+02  0.00000E+00  9.000E+00
      25     1     1     2     0     0 -3.258224730E+02  5.152798103E+02  1.277142916E+03  1.420701444E+03  1.250000000E+02  0.00000E+00  9.000E+00
      21     1     1     2   502   512 -5.659322782E+01 -9.580816381E+00 -1.958547990E+01  6.064797194E+01  1.450243599E-06  0.00000E+00  9.000E+00
#rwgt            1           1   3.7056749669533248E-002           6       29113           0
</event>
<event>
      5   9999  3.19816E-02  1.49541E+02 -1.00000E+00  1.16446E-01
      21    -1     0     0   502   501  0.000000000E+00  0.000000000E+00  4.734654949E+02  4.734654949E+02  0.000000000E+00  0.00000E+00  9.000E+00
      21    -1     0     0   501   511  0.000000000E+00  0.000000000E+00 -2.740538315E+02  2.740538315E+02  0.000000000E+00  0.00000E+00  9.000E+00
      25     1     1     2     0     0 -1.312439684E+02  1.009637926E+02 -4.623962732E+01  2.125600381E+02  1.250000000E+02  0.00000E+00  9.000E+00
      25     1     1     2     0     0 -2.431153615E+00 -3.392962585E+01  3.360932772E+02  3.601955316E+02  1.250000000E+02  0.00000E+00  9.000E+00
      21     1     1     2   502   511  1.336751220E+02 -6.703416673E+01 -9.044198649E+01  1.747637567E+02  1.651812370E-06  0.00000E+00  9.000E+00
#rwgt            1           1   2.6493447408731972E-002           6       29197           0
</event>
<event>
      5   9999  3.19816E-02  2.26891E+01 -1.00000E+00  1.61972E-01
      21    -1     0     0   512   501  0.000000000E+00  0.000000000E+00  8.514861773E+02  8.514861773E+02  0.000000000E+00  0.00000E+00  9.000E+00
      21    -1     0     0   501   502  0.000000000E+00  0.000000000E+00 -1.018404663E+02  1.018404663E+02  0.000000000E+00  0.00000E+00  9.000E+00
      25     1     1     2     0     0  1.410894167E+02  9.310137463E+01  2.806182795E+02  3.506361479E+02  1.250000000E+02  0.00000E+00  9.000E+00
      25     1     1     2     0     0 -1.199138118E+02 -8.495329707E+01  7.340988418E+01  2.064228574E+02  1.250000000E+02  0.00000E+00  9.000E+00
      21     1     1     2   512   502 -2.117560488E+01 -8.148077566E+00  3.956175473E+02  3.962676383E+02  7.629394531E-06  0.00000E+00  9.000E+00
#rwgt            1           1   2.8076619815880478E-002           6       29229           0
</event>
<event>
      5   9999  3.19816E-02  2.29429E+01 -1.00000E+00  1.61596E-01
      21    -1     0     0   502   511  0.000000000E+00  0.000000000E+00  1.804940619E+03  1.804940619E+03  0.000000000E+00  0.00000E+00  9.000E+00
      21    -1     0     0   501   502  0.000000000E+00  0.000000000E+00 -5.982011632E+01  5.982011632E+01  0.000000000E+00  0.00000E+00  9.000E+00
      25     1     1     2     0     0  1.416317874E+02 -2.107951851E+02  5.797652683E+02  6.451720233E+02  1.250000000E+02  0.00000E+00  9.000E+00
      25     1     1     2     0     0 -1.642409761E+02  2.068965542E+02  7.703973876E+02  8.239650582E+02  1.250000000E+02  0.00000E+00  9.000E+00
      21     1     1     2   501   511  2.260918870E+01  3.898630931E+00  3.949578465E+02  3.956236535E+02  5.394796609E-06  0.00000E+00  9.000E+00
#rwgt            1           1   3.4144806879355304E-002           6       29359           0
</event>
<event>
      5   9999  3.19816E-02  4.37098E+01 -1.00000E+00  1.42491E-01
      21    -1     0     0   502   512  0.000000000E+00  0.000000000E+00  2.750460043E+03  2.750460043E+03  0.000000000E+00  0.00000E+00  9.000E+00
      21    -1     0     0   501   502  0.000000000E+00  0.000000000E+00 -2.004462148E+02  2.004462148E+02  0.000000000E+00  0.00000E+00  9.000E+00
      25     1     1     2     0     0 -6.240524605E+02  6.067226157E+01  6.462385432E+02  9.090499719E+02  1.250000000E+02  0.00000E+00  9.000E+00
      25     1     1     2     0     0  6.585902540E+02 -8.746197403E+01  1.630240970E+03  1.764851648E+03  1.250000000E+02  0.00000E+00  9.000E+00
      21     1     1     2   501   512 -3.453779354E+01  2.678971247E+01  2.735343146E+02  2.770046374E+02  3.814697266E-06  0.00000E+00  9.000E+00
#rwgt            1           1   3.2025403596568379E-002           6       29499           0
</event>
<event>
      5   9999  3.19816E-02  3.88254E+01 -1.00000E+00  1.45648E-01
      21    -1     0     0   502   511  0.000000000E+00  0.000000000E+00  2.789037719E+02  2.789037719E+02  0.000000000E+00  0.00000E+00  9.000E+00
      21    -1     0     0   501   502  0.000000000E+00  0.000000000E+00 -2.045180595E+03  2.045180595E+03  0.000000000E+00  0.00000E+00  9.000E+00
      25     1     1     2     0     0  1.258860525E+02  3.663693455E+02 -1.793119030E+03  1.838742682E+03  1.250000000E+02  0.00000E+00  9.000E+00
      25     1     1     2     0     0 -1.416027466E+02 -4.018713989E+02  3.583078152E+01  4.454893984E+02  1.250000000E+02  0.00000E+00  9.000E+00
      21     1     1     2   501   511  1.571669417E+01  3.550205344E+01 -8.988574882E+00  3.985228667E+01  3.576278687E-07  0.00000E+00  9.000E+00
#rwgt            1           1   3.4104355237689066E-002           6       29712           0
</event>
<event>
      5   9999  3.19816E-02  1.22207E+02 -1.00000E+00  1.20033E-01
      21    -1     0     0   502   512  0.000000000E+00  0.000000000E+00  1.253345560E+03  1.253345560E+03  0.000000000E+00  0.00000E+00  9.000E+00
      21    -1     0     0   501   502  0.000000000E+00  0.000000000E+00 -3.041237198E+02  3.041237198E+02  0.000000000E+00  0.00000E+00  9.000E+00
      25     1     1     2     0     0 -1.395542915E+02  2.186293823E+02  2.233042031E+02  3.643679105E+02  1.250000000E+02  0.00000E+00  9.000E+00
      25     1     1     2     0     0  1.420289223E+02 -3.408109159E+02 -6.292138916E+01  3.948523729E+02  1.250000000E+02  0.00000E+00  9.000E+00
      21     1     1     2   501   512 -2.474630832E+00  1.221815336E+02  7.888390259E+02  7.982489961E+02  0.000000000E+00  0.00000E+00  9.000E+00
#rwgt            1           1   2.7035745153971447E-002           6       29846           0
</event>
<event>
      5   9999  3.19816E-02  1.12582E+02 -1.00000E+00  1.21556E-01
      21    -1     0     0   502   501  0.000000000E+00  0.000000000E+00  3.197384554E+03  3.197384554E+03  0.000000000E+00  0.00000E+00  9.000E+00
      21    -1     0     0   511   502  0.000000000E+00  0.000000000E+00 -6.419102735E+02  6.419102735E+02  0.000000000E+00  0.00000E+00  9.000E+00
      25     1     1     2     0     0 -3.188854396E+02 -3.608956498E+01  1.102036239E+03  1.154599174E+03  1.250000000E+02  0.00000E+00  9.000E+00
      25     1     1     2     0     0  2.278056120E+02  1.022641199E+02  2.054393842E+03  2.073285413E+03  1.250000000E+02  0.00000E+00  9.000E+00
      21     1     1     2   511   501  9.107982757E+01 -6.617455490E+01 -6.009558009E+02  6.114102399E+02  1.078959322E-05  0.00000E+00  9.000E+00
#rwgt            1           1   2.5928803117609103E-002           6       29898           0
</event>
<event>
      5   9999  3.19816E-02  4.74539E+02 -1.00000E+00  9.95011E-02
      21    -1     0     0   512   501  0.000000000E+00  0.000000000E+00  1.527325540E+03  1.527325540E+03  0.000000000E+00  0.00000E+00  9.000E+00
      21    -1     0     0   501   502  0.000000000E+00  0.000000000E+00 -1.032295187E+03  1.032295187E+03  0.000000000E+00  0.00000E+00  9.000E+00
      25     1     1     2     0     0  9.530292281E+02  4.143116626E+01 -5.336855645E+02  1.100193862E+03  1.250000000E+02  0.00000E+00  9.000E+00
      25     1     1     2     0     0 -4.967106053E+02 -1.716639421E+02  6.904660660E+02  8.766745820E+02  1.250000000E+02  0.00000E+00  9.000E+00
      21     1     1     2   512   502 -4.563186228E+02  1.302327759E+02  3.382498516E+02  5.827522832E+02  6.607249480E-06  0.00000E+00  9.000E+00
#rwgt            1           1   3.5238451200806688E-002           6       29934           0
</event>
<event>
      5   9999  3.19816E-02  1.52076E+02 -1.00000E+00  1.16158E-01
      21    -1     0     0   502   501  0.000000000E+00  0.000000000E+00  3.743584321E+02  3.743584321E+02  0.000000000E+00  0.00000E+00  9.000E+00
       2    -1     0     0   501     0  0.000000000E+00  0.000000000E+00 -7.855201685E+02  7.855201685E+02  0.000000000E+00  0.00000E+00  9.000E+00
      25     1     1     2     0     0  1.799282714E+02  6.060457318E+01  1.046312141E+01  2.275556505E+02  1.250000000E+02  0.00000E+00  9.000E+00
      25     1     1     2     0     0 -1.282836551E+02  8.243327605E+01  2.068155713E+02  2.857439793E+02  1.250000000E+02  0.00000E+00  9.000E+00
       2     1     1     2   502     0 -5.164461630E+01 -1.430378492E+02 -6.284404291E+02  6.465789709E+02  1.078959322E-05  0.00000E+00  9.000E+00
#rwgt            1           1   2.7855068790347288E-002           6       29988           0
</event>
<event>
      5   9999  3.19816E-02  6.75832E+00 -1.00000E+00  2.17733E-01
      21    -1     0     0   502   511  0.000000000E+00  0.000000000E+00  6.418126716E+01  6.418126716E+01  0.000000000E+00  0.00000E+00  9.000E+00
      21    -1     0     0   501   502  0.000000000E+00  0.000000000E+00 -6.934399184E+02  6.934399184E+02  0.000000000E+00  0.00000E+00  9.000E+00
      25     1     1     2     0     0 -8.835966355E+01  1.189257321E+02 -2.493309961E+02  3.158191025E+02  1.250000000E+02  0.00000E+00  9.000E+00
      25     1     1     2     0     0  8.212639891E+01 -1.163139760E+02 -3.876890035E+02  4.315106602E+02  1.250000000E+02  0.00000E+00  9.000E+00
      21     1     1     2   501   511  6.233264641E+00 -2.611756047E+00  7.761348313E+00  1.029142290E+01  2.528810911E-07  0.00000E+00  9.000E+00
#rwgt            1           1   3.9483703115606790E-002           6       30033           0
</event>
<event>
      5   9999  3.19816E-02  3.60581E+01 -1.00000E+00  1.47691E-01
      21    -1     0     0   512   501  0.000000000E+00  0.000000000E+00  3.170631855E+02  3.170631855E+02  0.000000000E+00  0.00000E+00  9.000E+00
      21    -1     0     0   501   502  0.000000000E+00  0.000000000E+00 -1.032874871E+03  1.032874871E+03  0.000000000E+00  0.00000E+00  9.000E+00
      25     1     1     2     0     0  1.838062492E+02  3.101122828E+02 -8.540899418E+02  9.354405347E+02  1.250000000E+02  0.00000E+00  9.000E+00
      25     1     1     2     0     0 -1.708336258E+02 -2.764686012E+02  1.008181427E+02  3.625028456E+02  1.250000000E+02  0.00000E+00  9.000E+00
      21     1     1     2   512   502 -1.297262341E+01 -3.364368163E+01  3.746011348E+01  5.199467639E+01  6.743495762E-07  0.00000E+00  9.000E+00
#rwgt            1           1   2.8805455998596883E-002           6       30251           0
</event>
<event>
      5   9999  3.19816E-02  3.41717E+01 -1.00000E+00  1.49213E-01
      21    -1     0     0   502   501  0.000000000E+00  0.000000000E+00  6.054024391E+02  6.054024391E+02  0.000000000E+00  0.00000E+00  9.000E+00
      21    -1     0     0   511   502  0.000000000E+00  0.000000000E+00 -6.017470260E+02  6.017470260E+02  0.000000000E+00  0.00000E+00  9.000E+00
      25     1     1     2     0     0  2.824643358E+02 -4.763380291E+02  1.330269103E+02  5.830996295E+02  1.250000000E+02  0.00000E+00  9.000E+00
      25     1     1     2     0     0 -2.753413549E+02  4.429169199E+02 -5.119827480E+01  5.387341858E+02  1.250000000E+02  0.00000E+00  9.000E+00
      21     1     1     2   511   501 -7.122980888E+00  3.342110927E+01 -7.817322241E+01  8.531564982E+01  0.000000000E+00  0.00000E+00  9.000E+00
#rwgt            1           1   2.9615068583278295E-002           6       30414           0
</event>
<event>
      5   9999  3.19816E-02  3.12076E+02 -1.00000E+00  1.05038E-01
      21    -1     0     0   502   512  0.000000000E+00  0.000000000E+00  3.081158302E+02  3.081158302E+02  0.000000000E+00  0.00000E+00  9.000E+00
      21    -1     0     0   501   502  0.000000000E+00  0.000000000E+00 -6.445947526E+02  6.445947526E+02  0.000000000E+00  0.00000E+00  9.000E+00
      25     1     1     2     0     0  2.315887916E+02  3.500567299E+01 -2.032585295E+02  3.343617731E+02  1.250000000E+02  0.00000E+00  9.000E+00
      25     1     1     2     0     0  7.109656500E+01  4.097257900E+01 -2.448599982E+02  2.869057206E+02  1.250000000E+02  0.00000E+00  9.000E+00
      21     1     1     2   501   512 -3.026853566E+02 -7.597825200E+01  1.116396052E+02  3.314430891E+02  3.303624740E-06  0.00000E+00  9.000E+00
#rwgt            1           1   4.1930406459733782E-002           6       30536           0
</event>
<event>
      5   9999  3.19816E-02  1.88281E+02 -1.00000E+00  1.12611E-01
      21    -1     0     0   502   501  0.000000000E+00  0.000000000E+00  2.359942423E+02  2.359942423E+02  0.000000000E+00  0.00000E+00  9.000E+00
      21    -1     0     0   501   511  0.000000000E+00  0.000000000E+00 -1.633540948E+03  1.633540948E+03  0.000000000E+00  0.00000E+00  9.000E+00
      25     1     1     2     0     0  4.582481361E+02 -2.146957823E+02 -2.664369139E+02  5.854052120E+02  1.250000000E+02  0.00000E+00  9.000E+00
      25     1     1     2     0     0 -3.804038571E+02  4.326054628E+01 -9.002155132E+02  9.862005575E+02  1.250000000E+02  0.00000E+00  9.000E+00
      21     1     1     2   502   511 -7.784427891E+01  1.714352360E+02 -2.308942789E+02  2.979294210E+02  6.607249480E-06  0.00000E+00  9.000E+00
#rwgt            1           1   3.2974085054732954E-002           6       30568           0
</event>
<event>
      5   9999  3.19816E-02  6.96373E+01 -1.00000E+00  1.31335E-01
      21    -1     0     0   502   501  0.000000000E+00  0.000000000E+00  7.762545589E+02  7.762545589E+02  0.000000000E+00  0.00000E+00  9.000E+00
      21    -1     0     0   501   512  0.000000000E+00  0.000000000E+00 -7.061266986E+02  7.061266986E+02  0.000000000E+00  0.00000E+00  9.000E+00
      25     1     1     2     0     0  4.021368814E+02  2.011710561E+02  5.425406588E+02  7.156530107E+02  1.250000000E+02  0.00000E+00  9.000E+00
      25     1     1     2     0     0 -4.532246314E+02 -2.484932417E+02 -4.386005757E+02  6.893162719E+02  1.250000000E+02  0.00000E+00  9.000E+00
      21     1     1     2   502   512  5.108774997E+01  4.732218567E+01 -3.381222280E+01  7.741197494E+01  1.168007728E-06  0.00000E+00  9.000E+00
#rwgt            1           1   2.7989532917478667E-002           6       30655           0
</event>
<event>
      5   9999  3.19816E-02  7.90217E+01 -1.00000E+00  1.28609E-01
      21    -1     0     0   511   501  0.000000000E+00  0.000000000E+00  1.139049663E+03  1.139049663E+03  0.000000000E+00  0.00000E+00  9.000E+00
      21    -1     0     0   501   502  0.000000000E+00  0.000000000E+00 -7.431902208E+02  7.431902208E+02  0.000000000E+00  0.00000E+00  9.000E+00
      25     1     1     2     0     0  2.647748979E+02  5.212831032E+02 -4.448788616E+02  7.452409152E+02  1.250000000E+02  0.00000E+00  9.000E+00
      25     1     1     2     0     0 -2.155024851E+02 -5.830621928E+02  5.619909671E+02  8.472671886E+02  1.250000000E+02  0.00000E+00  9.000E+00
      21     1     1     2   511   502 -4.927241282E+01  6.177908965E+01  2.787473364E+02  2.897317797E+02  3.814697266E-06  0.00000E+00  9.000E+00
#rwgt            1           1   2.1175497396678900E-002           6       30865           0
</event>
<event>
      5   9999  3.19816E-02  3.04085E+01 -1.00000E+00  1.52633E-01
      21    -1     0     0   502   501  0.000000000E+00  0.000000000E+00  2.054331474E+03  2.054331474E+03  0.000000000E+00  0.00000E+00  9.000E+00
      21    -1     0     0   501   512  0.000000000E+00  0.000000000E+00 -2.605158586E+02  2.605158586E+02  0.000000000E+00  0.00000E+00  9.000E+00
      25     1     1     2     0     0  3.984419721E+02 -1.175940832E+02  1.808381240E+03  1.859691395E+03  1.250000000E+02  0.00000E+00  9.000E+00
      25     1     1     2     0     0 -3.786219398E+02  1.406557695E+02 -2.351502993E+01  4.234578792E+02  1.250000000E+02  0.00000E+00  9.000E+00
      21     1     1     2   502   512 -1.982003232E+01 -2.306168624E+01  8.949404476E+00  3.169805821E+01  3.769728732E-07  0.00000E+00  9.000E+00
#rwgt            1           1   2.5033023666847933E-002           6       30977           0
</event>
<event>
      5   9999  3.19816E-02  2.06682E+01 -1.00000E+00  1.65200E-01
      21    -1     0     0   511   501  0.000000000E+00  0.000000000E+00  6.164751039E+02  6.164751039E+02  0.000000000E+00  0.00000E+00  9.000E+00
      21    -1     0     0   501   502  0.000000000E+00  0.000000000E+00 -2.938388298E+02  2.938388298E+02  0.000000000E+00  0.00000E+00  9.000E+00
      25     1     1     2     0     0 -2.714053540E+02  5.964918330E+01  4.091825700E+02  5.101708212E+02  1.250000000E+02  0.00000E+00  9.000E+00
      25     1     1     2     0     0  2.874853164E+02 -4.666422142E+01 -1.372559842E+02  3.453832102E+02  1.250000000E+02  0.00000E+00  9.000E+00
      21     1     1     2   511   502 -1.607996238E+01 -1.298496187E+01  5.070968824E+01  5.475990236E+01  6.743495762E-07  0.00000E+00  9.000E+00
#rwgt            2          11   1.6953479234677418E-003           6       31160           0
</event>
<event>
      5   9999  3.19816E-02  4.32465E+01 -1.00000E+00  1.42769E-01
       4    -1     0     0   502     0  0.000000000E+00  0.000000000E+00  8.976253488E+02  8.976253488E+02  0.000000000E+00  0.00000E+00  9.000E+00
      21    -1     0     0   501   502  0.000000000E+00  0.000000000E+00 -2.349854901E+02  2.349854901E+02  0.000000000E+00  0.00000E+00  9.000E+00
      25     1     1     2     0     0 -1.736065601E+02  4.082743469E+01  5.110207115E+02  5.554937306E+02  1.250000000E+02  0.00000E+00  9.000E+00
      25     1     1     2     0     0  2.054643278E+02 -7.007364334E+01  3.182241417E+02  4.049907528E+02  1.250000000E+02  0.00000E+00  9.000E+00
       4     1     1     2   501     0 -3.185776768E+01  2.924620864E+01 -1.666049945E+02  1.721263555E+02  1.907348633E-06  0.00000E+00  9.000E+00
#rwgt            1           1   3.2005280456713622E-002           6       31195           0
</event>
<event>
      5   9999  3.19816E-02  2.57064E+01 -1.00000E+00  1.57850E-01
      21    -1     0     0   502   511  0.000000000E+00  0.000000000E+00  1.674375275E+03  1.674375275E+03  0.000000000E+00  0.00000E+00  9.000E+00
      21    -1     0     0   501   502  0.000000000E+00  0.000000000E+00 -6.754287893E+01  6.754287893E+01  0.000000000E+00  0.00000E+00  9.000E+00
      25     1     1     2     0     0  1.244884422E+02 -2.790439249E+02  9.468903107E+02  1.002790678E+03  1.250000000E+02  0.00000E+00  9.000E+00
      25     1     1     2     0     0 -1.145621493E+02  2.553313536E+02  5.955433731E+02  6.697876495E+02  1.250000000E+02  0.00000E+00  9.000E+00
      21     1     1     2   501   511 -9.926292857E+00  2.371257131E+01  6.439871260E+01  6.933982631E+01  1.348699152E-06  0.00000E+00  9.000E+00
#rwgt            1           1   2.9138135133344605E-002           6       31289           0
</event>
<event>
      5   9999  3.19816E-02  6.06902E+01 -1.00000E+00  1.34439E-01
      21    -1     0     0   502   501  0.000000000E+00  0.000000000E+00  1.406820662E+02  1.406820662E+02  0.000000000E+00  0.00000E+00  9.000E+00
      21    -1     0     0   512   502  0.000000000E+00  0.000000000E+00 -3.351500779E+02  3.351500779E+02  0.000000000E+00  0.00000E+00  9.000E+00
      25     1     1     2     0     0 -4.068062916E+01 -3.461649086E+01  4.381758665E+01  1.428222529E+02  1.250000000E+02  0.00000E+00  9.000E+00
      25     1     1     2     0     0  9.945755584E+01  4.973502888E+01 -1.432665719E+02  2.202627729E+02  1.250000000E+02  0.00000E+00  9.000E+00
      21     1     1     2   512   501 -5.877692668E+01 -1.511853802E+01 -9.501902642E+01  1.127471183E+02  1.348699152E-06  0.00000E+00  9.000E+00
#rwgt            1           1   2.4623247039339595E-002           6       31460           0
</event>
<event>
      5   9999  3.19816E-02  1.58497E+02 -1.00000E+00  1.15453E-01
      21    -1     0     0   511   501  0.000000000E+00  0.000000000E+00  2.304992133E+02  2.304992133E+02  0.000000000E+00  0.00000E+00  9.000E+00
      21    -1     0     0   501   502  0.000000000E+00  0.000000000E+00 -1.237082660E+03  1.237082660E+03  0.000000000E+00  0.00000E+00  9.000E+00
      25     1     1     2     0     0 -9.581854484E+01 -1.221840635E+02 -1.155234193E+02  2.303927067E+02  1.250000000E+02  0.00000E+00  9.000E+00
      25     1     1     2     0     0  1.658076387E+02  2.643907514E+02 -9.932522862E+02  1.048603713E+03  1.250000000E+02  0.00000E+00  9.000E+00
      21     1     1     2   511   502 -6.998909382E+01 -1.422066878E+02  1.021922593E+02  1.885854532E+02  2.336015456E-06  0.00000E+00  9.000E+00
#rwgt            1           1   3.2013186357144389E-002           6       31536           0
</event>
<event>
      5   9999  3.19816E-02  1.27812E+01 -1.00000E+00  1.84193E-01
      21    -1     0     0   512   501  0.000000000E+00  0.000000000E+00  6.662173192E+02  6.662173192E+02  0.000000000E+00  0.00000E+00  9.000E+00
      21    -1     0     0   501   502  0.000000000E+00  0.000000000E+00 -2.164896723E+02  2.164896723E+02  0.000000000E+00  0.00000E+00  9.000E+00
      25     1     1     2     0     0 -2.432194991E+02 -1.152471315E+02  4.837100959E+00  2.967928968E+02  1.250000000E+02  0.00000E+00  9.000E+00
      25     1     1     2     0     0  2.514441445E+02  1.250305259E+02  2.657872456E+02  4.063553249E+02  1.250000000E+02  0.00000E+00  9.000E+00
      21     1     1     2   512   502 -8.224645433E+00 -9.783394365E+00  1.791033004E+02  1.795587698E+02  1.907348633E-06  0.00000E+00  9.000E+00
#rwgt            1           1   1.9600275785267320E-002           6       31573           0
</event>
<event>
      5   9999  3.19816E-02  1.64694E+01 -1.00000E+00  1.73644E-01
       1    -1     0     0   502     0  0.000000000E+00  0.000000000E+00  1.113321510E+03  1.113321510E+03  0.000000000E+00  0.00000E+00  9.000E+00
      21    -1     0     0   501   502  0.000000000E+00  0.000000000E+00 -6.490261223E+02  6.490261223E+02  0.000000000E+00  0.00000E+00  9.000E+00
      25     1     1     2     0     0  6.313575656E+01 -1.164064021E+02 -5.873417577E+02  6.149243161E+02  1.250000000E+02  0.00000E+00  9.000E+00
      25     1     1     2     0     0 -5.806158375E+01  1.007382026E+02  1.045385179E+02  2.001815044E+02  1.250000000E+02  0.00000E+00  9.000E+00
       1     1     1     2   501     0 -5.074172817E+00  1.566819944E+01  9.470986280E+02  9.472418122E+02  1.078959322E-05  0.00000E+00  9.000E+00
#rwgt            1           1   2.7457115281037805E-002           6       31823           0
</event>
<event>
      5   9999  3.19816E-02  9.86750E+01 -1.00000E+00  1.24089E-01
      21    -1     0     0   502   501  0.000000000E+00  0.000000000E+00  3.029897713E+02  3.029897713E+02  0.000000000E+00  0.00000E+00  9.000E+00
      21    -1     0     0   511   502  0.000000000E+00  0.000000000E+00 -4.056087212E+02  4.056087212E+02  0.000000000E+00  0.00000E+00  9.000E+00
      25     1     1     2     0     0  2.862280404E+01  2.202452752E+02  7.312345208E+01  2.651401241E+02  1.250000000E+02  0.00000E+00  9.000E+00
      25     1     1     2     0     0  1.222728305E+01 -1.304230782E+02  5.768452239E+01  1.900320760E+02  1.250000000E+02  0.00000E+00  9.000E+00
      21     1     1     2   511   501 -4.085008709E+01 -8.982219701E+01 -2.334269244E+02  2.534262924E+02  0.000000000E+00  0.00000E+00  9.000E+00
#rwgt            1           1   2.5892130576434122E-002           6       31981           0
</event>
<event>
      5   9999  3.19816E-02  1.16684E+01 -1.00000E+00  1.88317E-01
      21    -1     0     0   512   501  0.000000000E+00  0.000000000E+00  4.373412934E+02  4.373412934E+02  0.000000000E+00  0.00000E+00  9.000E+00
      21    -1     0     0   501   502  0.000000000E+00  0.000000000E+00 -1.623123630E+02  1.623123630E+02  0.000000000E+00  0.00000E+00  9.000E+00
      25     1     1     2     0     0 -1.511908097E+01  1.115076717E+02 -8.898978517E+01  1.902806594E+02  1.250000000E+02  0.00000E+00  9.000E+00
      25     1     1     2     0     0  1.175352100E+01 -1.226801587E+02  3.441100045E+02  3.862968571E+02  1.250000000E+02  0.00000E+00  9.000E+00
      21     1     1     2   512   502  3.365559975E+00  1.117248695E+01  1.990871103E+01  2.307613992E+01  2.384185791E-07  0.00000E+00  9.000E+00
#rwgt            1           1   2.8060930520853587E-002           6       32045           0
</event>
<event>
      5   9999  3.19816E-02  1.62107E+02 -1.00000E+00  1.15073E-01
      -1    -1     0     0     0   501  0.000000000E+00  0.000000000E+00  7.697612008E+02  7.697612008E+02  0.000000000E+00  0.00000E+00  9.000E+00
      21    -1     0     0   501   502  0.000000000E+00  0.000000000E+00 -8.921867602E+02  8.921867602E+02  0.000000000E+00  0.00000E+00  9.000E+00
      25     1     1     2     0     0 -6.690786920E+02 -3.088079872E+02  2.791573162E+02  7.978611886E+02  1.250000000E+02  0.00000E+00  9.000E+00
      25     1     1     2     0     0  5.416971789E+02  2.085457962E+02 -2.574602766E+02  6.471769284E+02  1.250000000E+02  0.00000E+00  9.000E+00
      -1     1     1     2     0   502  1.273815131E+02  1.002621910E+02 -1.441225991E+02  2.169098440E+02  1.907348633E-06  0.00000E+00  9.000E+00
#rwgt            1           1   3.0374196540356488E-002           6       32293           0
</event>
<event>
      5   9999  3.19816E-02  2.51048E+02 -1.00000E+00  1.08168E-01
      21    -1     0     0   511   501  0.000000000E+00  0.000000000E+00  8.525621252E+02  8.525621252E+02  0.000000000E+00  0.00000E+00  9.000E+00
      21    -1     0     0   501   502  0.000000000E+00  0.000000000E+00 -2.156222049E+03  2.156222049E+03  0.000000000E+00  0.00000E+00  9.000E+00
      25     1     1     2     0     0  9.405564982E+01  4.422537018E+02 -8.230671276E+02  9.473643958E+02  1.250000000E+02  0.00000E+00  9.000E+00
      25     1     1     2     0     0 -3.372866808E+02 -3.800962978E+02 -1.194797233E+03  1.304377602E+03  1.250000000E+02  0.00000E+00  9.000E+00
      21     1     1     2   511   502  2.432310310E+02 -6.215740399E+01  7.142044375E+02  7.570421757E+02  1.321449896E-05  0.00000E+00  9.000E+00
#rwgt            2          11   1.1190916543854233E-002           6       32403           0
</event>
<event>
      5   9999  3.19816E-02  1.96315E+02 -1.00000E+00  1.11943E-01
      21    -1     0     0   502   501  0.000000000E+00  0.000000000E+00  2.047707568E+03  2.047707568E+03  0.000000000E+00  0.00000E+00  9.000E+00
      21    -1     0     0   501   512  0.000000000E+00  0.000000000E+00 -3.371013577E+02  3.371013577E+02  0.000000000E+00  0.00000E+00  9.000E+00
      25     1     1     2     0     0 -4.702691119E+02 -5.879572945E+02  7.987432737E+02  1.104745507E+03  1.250000000E+02  0.00000E+00  9.000E+00
      25     1     1     2     0     0  5.537760606E+02  4.102882868E+02  7.429809754E+02  1.021102411E+03  1.250000000E+02  0.00000E+00  9.000E+00
      21     1     1     2   502   512 -8.350694870E+01  1.776690077E+02  1.688819609E+02  2.589610077E+02  2.697398305E-06  0.00000E+00  9.000E+00
#rwgt            2          11   6.2212411998194515E-003           6       32423           0
</event>
<event>
      5   9999  3.19816E-02  3.88431E+01 -1.00000E+00  1.45635E-01
      21    -1     0     0   502   511  0.000000000E+00  0.000000000E+00  2.976489224E+02  2.976489224E+02  0.000000000E+00  0.00000E+00  9.000E+00
      21    -1     0     0   501   502  0.000000000E+00  0.000000000E+00 -5.217193503E+02  5.217193503E+02  0.000000000E+00  0.00000E+00  9.000E+00
      25     1     1     2     0     0 -1.516324469E+01  1.302654553E+02 -3.630692372E+02  4.057625954E+02  1.250000000E+02  0.00000E+00  9.000E+00
      25     1     1     2     0     0 -6.998269836E+00 -9.836473250E+01 -8.894535674E+01  1.823756367E+02  1.250000000E+02  0.00000E+00  9.000E+00
      21     1     1     2   501   511  2.216151452E+01 -3.190072276E+01  2.279441661E+02  2.312300406E+02  3.814697266E-06  0.00000E+00  9.000E+00
#rwgt            1           1   3.4439457989321388E-002           6       32533           0
</event>
<event>
      5   9999  3.19816E-02  1.15521E+02 -1.00000E+00  1.21074E-01
      21    -1     0     0   512   501  0.000000000E+00  0.000000000E+00  1.954912393E+03  1.954912393E+03  0.000000000E+00  0.00000E+00  9.000E+00
      21    -1     0     0   501   502  0.000000000E+00  0.000000000E+00 -1.912772160E+02  1.912772160E+02  0.000000000E+00  0.00000E+00  9.000E+00
      25     1     1     2     0     0 -2.408445204E+02  2.335634570E+01 -1.839157274E+01  2.729740864E+02  1.250000000E+02  0.00000E+00  9.000E+00
      25     1     1     2     0     0  3.300013293E+02 -9.681437560E+01  7.475013416E+02  8.322602696E+02  1.250000000E+02  0.00000E+00  9.000E+00
      21     1     1     2   512   502 -8.915680890E+01  7.345802989E+01  1.034525408E+03  1.040955253E+03  0.000000000E+00  0.00000E+00  9.000E+00
#rwgt            1           1   2.8562744994615447E-002           6       32638           0
</event>
<event>
      5   9999  3.19816E-02  2.44527E+01 -1.00000E+00  1.59474E-01
      21    -1     0     0   502   511  0.000000000E+00  0.000000000E+00  8.552181831E+02  8.552181831E+02  0.000000000E+00  0.00000E+00  9.000E+00
      21    -1     0     0   501   502  0.000000000E+00  0.000000000E+00 -9.181649965E+01  9.181649965E+01  0.000000000E+00  0.00000E+00  9.000E+00
      25     1     1     2     0     0  7.491232668E+01  1.880254543E+02  1.973805408E+02  3.091108313E+02  1.250000000E+02  0.00000E+00  9.000E+00
      25     1     1     2     0     0 -8.554123220E+01 -2.100472337E+02  4.485749063E+02  5.179590614E+02  1.250000000E+02  0.00000E+00  9.000E+00
      21     1     1     2   501   511  1.062890552E+01  2.202177935E+01  1.174462364E+02  1.199647900E+02  0.000000000E+00  0.00000E+00  9.000E+00
#rwgt            1           1   2.7685377962311915E-002           6       32714           0
</event>
<event>
      5   9999  3.19816E-02  1.74393E+02 -1.00000E+00  1.13858E-01
      21    -1     0     0   512   501  0.000000000E+00  0.000000000E+00  4.821906052E+02  4.821906052E+02  0.000000000E+00  0.00000E+00  9.000E+00
      21    -1     0     0   501   502  0.000000000E+00  0.000000000E+00 -3.826870741E+02  3.826870741E+02  0.000000000E+00  0.00000E+00  9.000E+00
      25     1     1     2     0     0 -3.112513796E+01  1.780026908E+02  1.417227399E+02  2.614652312E+02  1.250000000E+02  0.00000E+00  9.000E+00
      25     1     1     2     0     0 -3.741743495E+01 -3.383613823E+02 -1.564309494E+02  3.949482642E+02  1.250000000E+02  0.00000E+00  9.000E+00
      21     1     1     2   512   502  6.854257291E+01  1.603586916E+02  1.142117406E+02  2.084641838E+02  2.697398305E-06  0.00000E+00  9.000E+00
#rwgt            1           1   2.5277959096245615E-002           6       32839           0
</event>
<event>
      5   9999  3.19816E-02  6.91911E+01 -1.00000E+00  1.31477E-01
      21    -1     0     0   511   501  0.000000000E+00  0.000000000E+00  4.169003664E+01  4.169003664E+01  0.000000000E+00  0.00000E+00  9.000E+00
      21    -1     0     0   501   502  0.000000000E+00  0.000000000E+00 -1.405407287E+03  1.405407287E+03  0.000000000E+00  0.00000E+00  9.000E+00
      25     1     1     2     0     0  3.927038507E+01 -1.403378856E+02 -8.194889255E+02  8.416792645E+02  1.250000000E+02  0.00000E+00  9.000E+00
      25     1     1     2     0     0 -1.008716367E+02  1.088309334E+02 -4.320863435E+02  4.736484639E+02  1.250000000E+02  0.00000E+00  9.000E+00
      21     1     1     2   511   502  6.160125166E+01  3.150695217E+01 -1.121419816E+02  1.317695954E+02  1.907348633E-06  0.00000E+00  9.000E+00
#rwgt            1           1   3.3201929931099272E-002           6       32885           0
</event>
<event>
      5   9999  3.19816E-02  1.03784E+02 -1.00000E+00  1.23107E-01
      21    -1     0     0   502   501  0.000000000E+00  0.000000000E+00  8.167603756E+01  8.167603756E+01  0.000000000E+00  0.00000E+00  9.000E+00
      21    -1     0     0   512   502  0.000000000E+00  0.000000000E+00 -2.090113918E+03  2.090113918E+03  0.000000000E+00  0.00000E+00  9.000E+00
      25     1     1     2     0     0  1.049838183E+02  1.428602636E+01 -1.596729426E+03  1.605115432E+03  1.250000000E+02  0.00000E+00  9.000E+00
      25     1     1     2     0     0 -5.824780217E+01  7.837964118E+01 -1.814537108E+01  1.596572238E+02  1.250000000E+02  0.00000E+00  9.000E+00
      21     1     1     2   512   501 -4.673601610E+01 -9.266566754E+01 -3.935630840E+02  4.070172997E+02  9.344061824E-06  0.00000E+00  9.000E+00
#rwgt            1           1   2.9233810199935446E-002           6       32954           0
</event>
<event>
      5   9999  3.19816E-02  4.45286E+01 -1.00000E+00  1.42009E-01
      21    -1     0     0   502   511  0.000000000E+00  0.000000000E+00  6.042573140E+02  6.042573140E+02  0.000000000E+00  0.00000E+00  9.000E+00
      21    -1     0     0   501   502  0.000000000E+00  0.000000000E+00 -1.931016989E+02  1.931016989E+02  0.000000000E+00  0.00000E+00  9.000E+00
      25     1     1     2     0     0  4.746834878E+01 -2.219222791E+02  9.604813782E+01  2.763204424E+02  1.250000000E+02  0.00000E+00  9.000E+00
      25     1     1     2     0     0 -8.411081651E+01  2.472229797E+02  1.076892717E+02  3.088944971E+02  1.250000000E+02  0.00000E+00  9.000E+00
      21     1     1     2   501   511  3.664246774E+01 -2.530070057E+01  2.074182055E+02  2.121440734E+02  2.697398305E-06  0.00000E+00  9.000E+00
#rwgt            1           1   2.8991540754480950E-002           6       33093           0
</event>
<event>
      5   9999  3.19816E-02  5.75355E+01 -1.00000E+00  1.35684E-01
      21    -1     0     0   502   501  0.000000000E+00  0.000000000E+00  2.377740123E+02  2.377740123E+02  0.000000000E+00  0.00000E+00  9.000E+00
      21    -1     0     0   501   512  0.000000000E+00  0.000000000E+00 -3.412672244E+03  3.412672244E+03  0.000000000E+00  0.00000E+00  9.000E+00
      25     1     1     2     0     0  4.045164590E+02  2.107912619E+02 -1.062106986E+03  1.162653333E+03  1.250000000E+02  0.00000E+00  9.000E+00
      25     1     1     2     0     0 -4.181083630E+02 -1.548842910E+02 -9.944186010E+01  4.736216109E+02  1.250000000E+02  0.00000E+00  9.000E+00
      21     1     1     2   502   512  1.359190401E+01 -5.590697096E+01 -2.013349385E+03  2.014171312E+03  3.051757812E-05  0.00000E+00  9.000E+00
#rwgt            1           1   2.2711519375799381E-002           6       33184           0
</event>
<event>
      5   9999  3.19816E-02  7.52165E+02 -1.00000E+00  9.40621E-02
      21    -1     0     0   502   501  0.000000000E+00  0.000000000E+00  8.179011000E+02  8.179011000E+02  0.000000000E+00  0.00000E+00  9.000E+00
       1    -1     0     0   501     0  0.000000000E+00  0.000000000E+00 -1.549432690E+03  1.549432690E+03  0.000000000E+00  0.00000E+00  9.000E+00
      25     1     1     2     0     0 -1.597046782E+02  6.410280616E+01  2.868060749E+02  3.570678908E+02  1.250000000E+02  0.00000E+00  9.000E+00
      25     1     1     2     0     0  5.590688956E+01  6.808654498E+02  5.826673004E+01  6.969385574E+02  1.250000000E+02  0.00000E+00  9.000E+00
       1     1     1     2   502     0  1.037977887E+02 -7.449682559E+02 -1.076604395E+03  1.313327342E+03  2.157918644E-05  0.00000E+00  9.000E+00
#rwgt            2          12   9.7281247914589634E-004           6       33275           0
</event>
<event>
      5   9999  3.19816E-02  5.08588E+01 -1.00000E+00  1.38655E-01
      21    -1     0     0   511   501  0.000000000E+00  0.000000000E+00  6.586323728E+02  6.586323728E+02  0.000000000E+00  0.00000E+00  9.000E+00
      21    -1     0     0   501   502  0.000000000E+00  0.000000000E+00 -2.660749361E+02  2.660749361E+02  0.000000000E+00  0.00000E+00  9.000E+00
      25     1     1     2     0     0  1.942231897E+02 -1.226351706E+02 -1.361079362E+02  2.948090955E+02  1.250000000E+02  0.00000E+00  9.000E+00
      25     1     1     2     0     0 -1.563404653E+02  1.565691732E+02  2.887563768E+02  3.846576299E+02  1.250000000E+02  0.00000E+00  9.000E+00
      21     1     1     2   511   502 -3.788272435E+01 -3.393400262E+01  2.399089962E+02  2.452405835E+02  3.814697266E-06  0.00000E+00  9.000E+00
#rwgt            1           1   2.4903611837800883E-002           6       33294           0
</event>
<event>
      5   9999  3.19816E-02  4.70094E+01 -1.00000E+00  1.40621E-01
      21    -1     0     0   502   501  0.000000000E+00  0.000000000E+00  2.425854506E+02  2.425854506E+02  0.000000000E+00  0.00000E+00  9.000E+00
       2    -1     0     0   501     0  0.000000000E+00  0.000000000E+00 -2.881155772E+02  2.881155772E+02  0.000000000E+00  0.00000E+00  9.000E+00
      25     1     1     2     0     0 -4.202615589E-01 -1.169994536E+02 -6.880541201E+01  1.845216342E+02  1.250000000E+02  0.00000E+00  9.000E+00
      25     1     1     2     0     0  2.097986726E+01  1.592745734E+02  1.216615116E+02  2.371393429E+02  1.250000000E+02  0.00000E+00  9.000E+00
       2     1     1     2   502     0 -2.055960570E+01 -4.227511983E+01 -9.838622625E+01  1.090400507E+02  0.000000000E+00  0.00000E+00  9.000E+00
#rwgt            1           1   2.5409189946700383E-002           6       33342           0
</event>
<event>
      5   9999  3.19816E-02  7.62059E+01 -1.00000E+00  1.29379E-01
       2    -1     0     0   502     0  0.000000000E+00  0.000000000E+00  1.028863795E+03  1.028863795E+03  0.000000000E+00  0.00000E+00  9.000E+00
      21    -1     0     0   501   502  0.000000000E+00  0.000000000E+00 -1.355128501E+03  1.355128501E+03  0.000000000E+00  0.00000E+00  9.000E+00
      25     1     1     2     0     0  1.959787097E+02  5.993627069E+01 -6.394702311E+02  6.830425958E+02  1.250000000E+02  0.00000E+00  9.000E+00
      25     1     1     2     0     0 -1.920591517E+02  1.616878728E+01 -6.733482966E+02  7.114570092E+02  1.250000000E+02  0.00000E+00  9.000E+00
       2     1     1     2   501     0 -3.919558055E+00 -7.610505797E+01  9.865538221E+02  9.894926916E+02  1.078959322E-05  0.00000E+00  9.000E+00
#rwgt            1           1   2.7768693757283341E-002           6       33435           0
</event>
<event>
      5   9999  3.19816E-02  7.06930E+01 -1.00000E+00  1.31004E-01
      21    -1     0     0   502   501  0.000000000E+00  0.000000000E+00  2.679922947E+03  2.679922947E+03  0.000000000E+00  0.00000E+00  9.000E+00
      21    -1     0     0   501   511  0.000000000E+00  0.000000000E+00 -2.953448871E+01  2.953448871E+01  0.000000000E+00  0.00000E+00  9.000E+00
      25     1     1     2     0     0 -1.193361528E+02 -7.377048577E+01  1.586144382E+03  1.597235801E+03  1.250000000E+02  0.00000E+00  9.000E+00
      25     1     1     2     0     0  1.900128624E+02  7.225394477E+01  9.342625295E+02  9.642598169E+02  1.250000000E+02  0.00000E+00  9.000E+00
      21     1     1     2   502   511 -7.067670957E+01  1.516540999E+00  1.299815467E+02  1.479618182E+02  4.672030912E-06  0.00000E+00  9.000E+00
#rwgt            1           1   5.5602399190920582E-002           6       33538           0
</event>
<event>
      5   9999  3.19816E-02  1.36189E+02 -1.00000E+00  1.18081E-01
      21    -1     0     0   502   512  0.000000000E+00  0.000000000E+00  3.907154052E+02  3.907154052E+02  0.000000000E+00  0.00000E+00  9.000E+00
      21    -1     0     0   501   502  0.000000000E+00  0.000000000E+00 -1.736065439E+02  1.736065439E+02  0.000000000E+00  0.00000E+00  9.000E+00
      25     1     1     2     0     0 -1.062796648E+02 -1.363334121E+02  6.773182351E+01  2.238186014E+02  1.250000000E+02  0.00000E+00  9.000E+00
      25     1     1     2     0     0  1.148294906E+02  4.133353872E-01  8.627988644E+01  1.904079871E+02  1.250000000E+02  0.00000E+00  9.000E+00
      21     1     1     2   501   512 -8.549825769E+00  1.359200767E+02  6.309715135E+01  1.500953606E+02  3.162979880E-06  0.00000E+00  9.000E+00
#rwgt            1           1   3.2214180744492921E-002           6       33630           0
</event>
<event>
      5   9999  3.19816E-02  1.51526E+02 -1.00000E+00  1.16220E-01
      21    -1     0     0   502   501  0.000000000E+00  0.000000000E+00  2.156408289E+02  2.156408289E+02  0.000000000E+00  0.00000E+00  9.000E+00
      21    -1     0     0   511   502  0.000000000E+00  0.000000000E+00 -8.752934325E+02  8.752934325E+02  0.000000000E+00  0.00000E+00  9.000E+00
      25     1     1     2     0     0  1.968698610E+02  4.337273791E+00  1.171297403E+02  2.609998663E+02  1.250000000E+02  0.00000E+00  9.000E+00
      25     1     1     2     0     0 -4.686688691E+01  1.709599764E+01 -4.506833682E+02  4.703501638E+02  1.250000000E+02  0.00000E+00  9.000E+00
      21     1     1     2   511   501 -1.500029741E+02 -2.143327143E+01 -3.260989757E+02  3.595842312E+02  5.394796609E-06  0.00000E+00  9.000E+00
#rwgt            1           1   2.8245212925851040E-002           6       33688           0
</event>
<event>
      5   9999  3.19816E-02  3.15589E+01 -1.00000E+00  1.51527E-01
      21    -1     0     0   502   501  0.000000000E+00  0.000000000E+00  1.174058368E+03  1.174058368E+03  0.000000000E+00  0.00000E+00  9.000E+00
      21    -1     0     0   512   502  0.000000000E+00  0.000000000E+00 -2.457621274E+02  2.457621274E+02  0.000000000E+00  0.00000E+00  9.000E+00
      25     1     1     2     0     0  1.444897544E+02  2.608343753E+02 -9.425259693E+01  3.367794716E+02  1.250000000E+02  0.00000E+00  9.000E+00
      25     1     1     2     0     0 -1.287368638E+02 -2.334882054E+02  1.004308668E+03  1.046590093E+03  1.250000000E+02  0.00000E+00  9.000E+00
      21     1     1     2   512   501 -1.575289060E+01 -2.734616986E+01  1.824016970E+01  3.645093084E+01  5.331201500E-07  0.00000E+00  9.000E+00
#rwgt            1           1   2.7029788888556214E-002           6       33743           0
</event>
<event>
      5   9999  3.19816E-02  5.42889E+01 -1.00000E+00  1.37067E-01
      21    -1     0     0   511   501  0.000000000E+00  0.000000000E+00  2.850034683E+02  2.850034683E+02  0.000000000E+00  0.00000E+00  9.000E+00
      21    -1     0     0   501   502  0.000000000E+00  0.000000000E+00 -1.422790814E+03  1.422790814E+03  0.000000000E+00  0.00000E+00  9.000E+00
      25     1     1     2     0     0  3.824079840E+02  3.690509739E+02 -9.282146117E+02  1.076866683E+03  1.250000000E+02  0.00000E+00  9.000E+00
      25     1     1     2     0     0 -4.118511831E+02 -3.234398166E+02 -2.062392354E+02  5.765364986E+02  1.250000000E+02  0.00000E+00  9.000E+00
      21     1     1     2   511   502  2.944319914E+01 -4.561115734E+01 -3.333498932E+00  5.439110097E+01  8.301966356E-07  0.00000E+00  9.000E+00
#rwgt            1           1   3.1687248748134743E-002           6       33889           0
</event>
<event>
      5   9999  3.19816E-02  2.51180E+01 -1.00000E+00  1.58598E-01
      21    -1     0     0   502   501  0.000000000E+00  0.000000000E+00  4.376107681E+02  4.376107681E+02  0.000000000E+00  0.00000E+00  9.000E+00
      21    -1     0     0   512   502  0.000000000E+00  0.000000000E+00 -1.004080467E+03  1.004080467E+03  0.000000000E+00  0.00000E+00  9.000E+00
      25     1     1     2     0     0  3.525845893E+02 -2.528949637E+01 -1.202708513E+02  3.937582113E+02  1.250000000E+02  0.00000E+00  9.000E+00
      25     1     1     2     0     0 -3.773914785E+02  2.923071742E+01  1.684597443E+02  4.327614220E+02  1.250000000E+02  0.00000E+00  9.000E+00
      21     1     1     2   512   501  2.480688921E+01 -3.941221047E+00 -6.146585915E+02  6.151716014E+02  1.078959322E-05  0.00000E+00  9.000E+00
#rwgt            1           1   2.8477952063741714E-002           6       33995           0
</event>
<event>
      5   9999  3.19816E-02  1.31906E+02 -1.00000E+00  1.18650E-01
      21    -1     0     0   511   501  0.000000000E+00  0.000000000E+00  1.194511129E+02  1.194511129E+02  0.000000000E+00  0.00000E+00  9.000E+00
      21    -1     0     0   501   502  0.000000000E+00  0.000000000E+00 -8.727874799E+02  8.727874799E+02  0.000000000E+00  0.00000E+00  9.000E+00
      25     1     1     2     0     0  1.591593419E+02  1.564459265E+01 -8.493868487E+01  2.200364278E+02  1.250000000E+02  0.00000E+00  9.000E+00
      25     1     1     2     0     0 -7.400178861E+01 -1.163781868E+02 -5.902109472E+02  6.188651786E+02  1.250000000E+02  0.00000E+00  9.000E+00
      21     1     1     2   511   502 -8.515755325E+01  1.007335942E+02 -7.818673491E+01  1.533369864E+02  2.132480600E-06  0.00000E+00  9.000E+00
#rwgt            1           1   3.1011900520104965E-002           6       34133           0
</event>
<event>
      5   9999  3.19816E-02  1.35346E+02 -1.00000E+00  1.18191E-01
      21    -1     0     0   512   501  0.000000000E+00  0.000000000E+00  1.637563975E+02  1.637563975E+02  0.000000000E+00  0.00000E+00  9.000E+00
      21    -1     0     0   501   502  0.000000000E+00  0.000000000E+00 -9.341143676E+02  9.341143676E+02  0.000000000E+00  0.00000E+00  9.000E+00
      25     1     1     2     0     0  2.491413603E+01  1.093397504E+02  2.325428669E+01  1.695336457E+02  1.250000000E+02  0.00000E+00  9.000E+00
      25     1     1     2     0     0 -1.235770011E+02 -1.668877294E+01 -7.711928467E+02  7.911467608E+02  1.250000000E+02  0.00000E+00  9.000E+00
      21     1     1     2   512   502  9.866286504E+01 -9.265097743E+01 -2.241941010E+01  1.371903586E+02  7.539457465E-07  0.00000E+00  9.000E+00
#rwgt            1           1   2.7378594971525987E-002           6       34196           0
</event>
<event>
      5   9999  3.19816E-02  6.92374E+00 -1.00000E+00  2.16228E-01
       2    -1     0     0   502     0  0.000000000E+00  0.000000000E+00  2.187178972E+03  2.187178972E+03  0.000000000E+00  0.00000E+00  9.000E+00
      21    -1     0     0   501   502  0.000000000E+00  0.000000000E+00 -2.407326336E+02  2.407326336E+02  0.000000000E+00  0.00000E+00  9.000E+00
      25     1     1     2     0     0  3.568041421E+02 -1.546785494E+02  4.098479068E+02  5.786492514E+02  1.250000000E+02  0.00000E+00  9.000E+00
      25     1     1     2     0     0 -3.632286934E+02  1.572598843E+02  1.192120796E+02  4.318590914E+02  1.250000000E+02  0.00000E+00  9.000E+00
       2     1     1     2   501     0  6.424551317E+00 -2.581334902E+00  1.417386352E+03  1.417403262E+03  1.525878906E-05  0.00000E+00  9.000E+00
#rwgt            1           1   3.0485511374067867E-002           6       34250           0
</event>
<event>
      5   9999  3.19816E-02  7.80916E+00 -1.00000E+00  2.09051E-01
      21    -1     0     0   502   501  0.000000000E+00  0.000000000E+00  3.041868906E+01  3.041868906E+01  0.000000000E+00  0.00000E+00  9.000E+00
      21    -1     0     0   511   502  0.000000000E+00  0.000000000E+00 -1.139099239E+03  1.139099239E+03  0.000000000E+00  0.00000E+00  9.000E+00
      25     1     1     2     0     0 -1.361761233E+01 -8.172917270E+01 -2.290024448E+02  2.737374961E+02  1.250000000E+02  0.00000E+00  9.000E+00
      25     1     1     2     0     0  7.624522120E+00  7.672258892E+01 -6.678222802E+02  6.837807301E+02  1.250000000E+02  0.00000E+00  9.000E+00
      21     1     1     2   511   501  5.993090212E+00  5.006583774E+00 -2.118558247E+02  2.119997016E+02  3.814697266E-06  0.00000E+00  9.000E+00
#rwgt            1           1   3.5556780268827623E-002           6       34608           0
</event>
<event>
      5   9999  3.19816E-02  1.81285E+01 -1.00000E+00  1.69968E-01
      21    -1     0     0   502   512  0.000000000E+00  0.000000000E+00  2.389162512E+02  2.389162512E+02  0.000000000E+00  0.00000E+00  9.000E+00
      21    -1     0     0   501   502  0.000000000E+00  0.000000000E+00 -1.988357378E+02  1.988357378E+02  0.000000000E+00  0.00000E+00  9.000E+00
      25     1     1     2     0     0  1.357341048E+02 -6.504294429E+01 -5.105646908E+01  2.022031029E+02  1.250000000E+02  0.00000E+00  9.000E+00
      25     1     1     2     0     0 -1.180889486E+02  6.920108701E+01  5.215680514E+01  1.925594000E+02  1.250000000E+02  0.00000E+00  9.000E+00
      21     1     1     2   501   512 -1.764515618E+01 -4.158142722E+00  3.898017734E+01  4.298948607E+01  0.000000000E+00  0.00000E+00  9.000E+00
#rwgt            1           1   2.5225523458643793E-002           6       34798           0
</event>
<event>
      5   9999  3.19816E-02  4.28748E+01 -1.00000E+00  1.42995E-01
      21    -1     0     0   502   501  0.000000000E+00  0.000000000E+00  1.153976445E+03  1.153976445E+03  0.000000000E+00  0.00000E+00  9.000E+00
      21    -1     0     0   501   511  0.000000000E+00  0.000000000E+00 -9.103374215E+01  9.103374215E+01  0.000000000E+00  0.00000E+00  9.000E+00
      25     1     1     2     0     0 -1.926132952E+02 -1.503268372E+02  6.197018370E+02  6.777561555E+02  1.250000000E+02  0.00000E+00  9.000E+00
      25     1     1     2     0     0  2.038805513E+02  1.916946700E+02  4.150120647E+02  5.159206717E+02  1.250000000E+02  0.00000E+00  9.000E+00
      21     1     1     2   502   511 -1.126725605E+01 -4.136783278E+01  2.822880154E+01  5.133336035E+01  3.371747881E-07  0.00000E+00  9.000E+00
#rwgt            1           1   3.0441218702205272E-002           6       34940           0
</event>
<event>
      5   9999  3.19816E-02  3.86775E+01 -1.00000E+00  1.45752E-01
      21    -1     0     0   512   501  0.000000000E+00  0.000000000E+00  3.310806860E+02  3.310806860E+02  0.000000000E+00  0.00000E+00  9.000E+00
      21    -1     0     0   501   502  0.000000000E+00  0.000000000E+00 -2.827381603E+02  2.827381603E+02  0.000000000E+00  0.00000E+00  9.000E+00
      25     1     1     2     0     0 -1.099471263E+02  3.341594823E+01 -2.114651257E+02  2.711964151E+02  1.250000000E+02  0.00000E+00  9.000E+00
      25     1     1     2     0     0  1.188912105E+02  4.213240527E+00  1.589870396E+02  2.346374865E+02  1.250000000E+02  0.00000E+00  9.000E+00
      21     1     1     2   512   502 -8.944084119E+00 -3.762918875E+01  1.008206119E+02  1.079849446E+02  1.907348633E-06  0.00000E+00  9.000E+00
#rwgt            1           1   2.5997163930384353E-002           6       35038           0
</event>
<event>
      5   9999  3.19816E-02  2.23938E+01 -1.00000E+00  1.62417E-01
      21    -1     0     0   502   501  0.000000000E+00  0.000000000E+00  1.692873270E+02  1.692873270E+02  0.000000000E+00  0.00000E+00  9.000E+00
      21    -1     0     0   501   511  0.000000000E+00  0.000000000E+00 -5.144759229E+02  5.144759229E+02  0.000000000E+00  0.00000E+00  9.000E+00
      25     1     1     2     0     0 -1.573324497E+02 -2.040006868E+02 -2.438036093E+02  3.760784225E+02  1.250000000E+02  0.00000E+00  9.000E+00
      25     1     1     2     0     0  1.443264562E+02  1.857709060E+02 -8.396551205E+01  2.793137352E+02  1.250000000E+02  0.00000E+00  9.000E+00
      21     1     1     2   502   511  1.300599356E+01  1.822978080E+01 -1.741947454E+01  2.837109215E+01  2.384185791E-07  0.00000E+00  9.000E+00
#rwgt            1           1   2.4544552913871243E-002           6       35176           0
</event>
<event>
      5   9999  3.19816E-02  1.07834E+02 -1.00000E+00  1.22372E-01
      21    -1     0     0   502   501  0.000000000E+00  0.000000000E+00  2.801648795E+02  2.801648795E+02  0.000000000E+00  0.00000E+00  9.000E+00
      21    -1     0     0   501   512  0.000000000E+00  0.000000000E+00 -7.328377554E+02  7.328377554E+02  0.000000000E+00  0.00000E+00  9.000E+00
      25     1     1     2     0     0 -1.935775228E+02  1.091951931E+02  1.174947120E+02  2.807594253E+02  1.250000000E+02  0.00000E+00  9.000E+00
      25     1     1     2     0     0  2.516186631E+02 -2.000763729E+02 -4.833873017E+02  5.938272392E+02  1.250000000E+02  0.00000E+00  9.000E+00
      21     1     1     2   502   512 -5.804114032E+01  9.088117973E+01 -8.678028612E+01  1.384159704E+02  1.907348633E-06  0.00000E+00  9.000E+00
#rwgt            1           1   2.8015778644433036E-002           6       35298           0
</event>
<event>
      5   9999  3.19816E-02  3.60191E+01 -1.00000E+00  1.47721E-01
      21    -1     0     0   502   511  0.000000000E+00  0.000000000E+00  1.347460645E+02  1.347460645E+02  0.000000000E+00  0.00000E+00  9.000E+00
      21    -1     0     0   501   502  0.000000000E+00  0.000000000E+00 -1.155788163E+03  1.155788163E+03  0.000000000E+00  0.00000E+00  9.000E+00
      25     1     1     2     0     0 -3.425973249E+02 -8.996970393E+00 -5.047669346E+02  6.227909206E+02  1.250000000E+02  0.00000E+00  9.000E+00
      25     1     1     2     0     0  3.662329160E+02 -1.818274850E+01 -4.755148912E+02  6.133486552E+02  1.250000000E+02  0.00000E+00  9.000E+00
      21     1     1     2   501   511 -2.363559111E+01  2.717971889E+01 -4.076027240E+01  5.439465132E+01  6.743495762E-07  0.00000E+00  9.000E+00
#rwgt            1           1   2.8141506262198922E-002           6       35354           0
</event>
<event>
      5   9999  3.19816E-02  2.40383E+01 -1.00000E+00  1.60038E-01
      21    -1     0     0   502   501  0.000000000E+00  0.000000000E+00  1.387853833E+03  1.387853833E+03  0.000000000E+00  0.00000E+00  9.000E+00
      21    -1     0     0   512   502  0.000000000E+00  0.000000000E+00 -4.879551234E+02  4.879551234E+02  0.000000000E+00  0.00000E+00  9.000E+00
      25     1     1     2     0     0  6.154968474E+02 -4.638656941E+02  6.608569514E+02  1.022919675E+03  1.250000000E+02  0.00000E+00  9.000E+00
      25     1     1     2     0     0 -5.969339847E+02  4.485928427E+02  2.784940399E+02  8.066905546E+02  1.250000000E+02  0.00000E+00  9.000E+00
      21     1     1     2   512   501 -1.856286272E+01  1.527285132E+01 -3.945228156E+01  4.619872703E+01  4.768371582E-07  0.00000E+00  9.000E+00
#rwgt            1           1   3.3047395614758827E-002           6       35521           0
</event>
<event>
      5   9999  3.19816E-02  1.56184E+02 -1.00000E+00  1.15702E-01
      21    -1     0     0   511   501  0.000000000E+00  0.000000000E+00  2.163257043E+03  2.163257043E+03  0.000000000E+00  0.00000E+00  9.000E+00
      21    -1     0     0   501   502  0.000000000E+00  0.000000000E+00 -1.538882444E+02  1.538882444E+02  0.000000000E+00  0.00000E+00  9.000E+00
      25     1     1     2     0     0 -1.316752930E+02  2.149552708E+02  1.218694554E+03  1.250754000E+03  1.250000000E+02  0.00000E+00  9.000E+00
      25     1     1     2     0     0  2.190199854E+02 -3.444325929E+02  2.310876294E+02  4.854174054E+02  1.250000000E+02  0.00000E+00  9.000E+00
      21     1     1     2   511   502 -8.734469236E+01  1.294773221E+02  5.595866148E+02  5.809738821E+02  1.078959322E-05  0.00000E+00  9.000E+00
#rwgt            2          11   2.5682330259831350E-003           6       35789           0
</event>
<event>
      5   9999  3.19816E-02  3.42271E+01 -1.00000E+00  1.49167E-01
      21    -1     0     0   502   512  0.000000000E+00  0.000000000E+00  4.563169634E+02  4.563169634E+02  0.000000000E+00  0.00000E+00  9.000E+00
      21    -1     0     0   501   502  0.000000000E+00  0.000000000E+00 -1.695620973E+03  1.695620973E+03  0.000000000E+00  0.00000E+00  9.000E+00
      25     1     1     2     0     0 -5.339334280E+00  2.131612653E+02 -3.177468510E+02  4.025596786E+02  1.250000000E+02  0.00000E+00  9.000E+00
      25     1     1     2     0     0 -1.574738976E+01 -1.862012522E+02 -1.325276604E+03  1.344210535E+03  1.250000000E+02  0.00000E+00  9.000E+00
      21     1     1     2   501   512  2.108672404E+01 -2.696001310E+01  4.037194457E+02  4.051677221E+02  7.629394531E-06  0.00000E+00  9.000E+00
#rwgt            1           1   3.0023916115692703E-002           6       35809           0
</event>
<event>
      5   9999  3.19816E-02  2.03232E+02 -1.00000E+00  1.11395E-01
      21    -1     0     0   511   501  0.000000000E+00  0.000000000E+00  1.559458745E+02  1.559458745E+02  0.000000000E+00  0.00000E+00  9.000E+00
      21    -1     0     0   501   502  0.000000000E+00  0.000000000E+00 -1.108184742E+03  1.108184742E+03  0.000000000E+00  0.00000E+00  9.000E+00
      25     1     1     2     0     0  1.591053030E+02  2.039796363E+02 -2.792445209E+02  4.006553280E+02  1.250000000E+02  0.00000E+00  9.000E+00
      25     1     1     2     0     0 -2.269506420E+02 -1.240674210E+01 -5.889652896E+02  6.435570165E+02  1.250000000E+02  0.00000E+00  9.000E+00
      21     1     1     2   511   502  6.784533904E+01 -1.915728942E+02 -8.402905682E+01  2.199182717E+02  4.862803949E-06  0.00000E+00  9.000E+00
#rwgt            1           1   3.1435498665273939E-002           6       35906           0
</event>
<event>
      5   9999  3.19816E-02  6.00020E+01 -1.00000E+00  1.34703E-01
      21    -1     0     0   502   512  0.000000000E+00  0.000000000E+00  5.491811626E+01  5.491811626E+01  0.000000000E+00  0.00000E+00  9.000E+00
      21    -1     0     0   501   502  0.000000000E+00  0.000000000E+00 -1.554529868E+03  1.554529868E+03  0.000000000E+00  0.00000E+00  9.000E+00
      25     1     1     2     0     0  1.790055233E+02 -6.597465199E+01 -1.185672983E+03  1.207410889E+03  1.250000000E+02  0.00000E+00  9.000E+00
      25     1     1     2     0     0 -1.233994746E+02  4.343132644E+01 -1.797607371E+02  2.550541767E+02  1.250000000E+02  0.00000E+00  9.000E+00
      21     1     1     2   501   512 -5.560604870E+01  2.254332555E+01 -1.341780312E+02  1.469829181E+02  1.907348633E-06  0.00000E+00  9.000E+00
#rwgt            1           1   3.0756678801858343E-002           6       35949           0
</event>
<event>
      5   9999  3.19816E-02  7.55911E+01 -1.00000E+00  1.29553E-01
      21    -1     0     0   502   501  0.000000000E+00  0.000000000E+00  1.713627459E+02  1.713627459E+02  0.000000000E+00  0.00000E+00  9.000E+00
       2    -1     0     0   501     0  0.000000000E+00  0.000000000E+00 -1.402362361E+03  1.402362361E+03  0.000000000E+00  0.00000E+00  9.000E+00
      25     1     1     2     0     0 -1.923287324E+02  2.404012971E+02 -1.780122875E+02  3.769568933E+02  1.250000000E+02  0.00000E+00  9.000E+00
      25     1     1     2     0     0  1.770784297E+02 -1.663645115E+02 -1.955469809E+02  3.360022957E+02  1.250000000E+02  0.00000E+00  9.000E+00
       2     1     1     2   502     0  1.525030264E+01 -7.403678558E+01 -8.574403464E+02  8.607659176E+02  1.078959322E-05  0.00000E+00  9.000E+00
#rwgt            1           1   2.6560694393444807E-002           6       36017           0
</event>
<event>
      5   9999  3.19816E-02  1.24219E+02 -1.00000E+00  1.19735E-01
      21    -1     0     0   502   501  0.000000000E+00  0.000000000E+00  7.175299871E+02  7.175299871E+02  0.000000000E+00  0.00000E+00  9.000E+00
      21    -1     0     0   501   511  0.000000000E+00  0.000000000E+00 -2.005217278E+02  2.005217278E+02  0.000000000E+00  0.00000E+00  9.000E+00
      25     1     1     2     0     0 -2.309604707E+02 -1.935256447E+02  3.896227456E+02  5.081592251E+02  1.250000000E+02  0.00000E+00  9.000E+00
      25     1     1     2     0     0  1.067773341E+02  1.964918878E+02  4.314066377E+01  2.598010353E+02  1.250000000E+02  0.00000E+00  9.000E+00
      21     1     1     2   502   511  1.241831365E+02 -2.966243114E+00  8.424484991E+01  1.500914546E+02  1.348699152E-06  0.00000E+00  9.000E+00
#rwgt            1           1   2.9347936342507486E-002           6       36150           0
</event>
<event>
      5   9999  3.19816E-02  1.80659E+01 -1.00000E+00  1.70098E-01
      21    -1     0     0   502   501  0.000000000E+00  0.000000000E+00  4.805461393E+02  4.805461393E+02  0.000000000E+00  0.00000E+00  9.000E+00
      21    -1     0     0   512   502  0.000000000E+00  0.000000000E+00 -2.029507630E+02  2.029507630E+02  0.000000000E+00  0.00000E+00  9.000E+00
      25     1     1     2     0     0  3.868733793E+01  1.523943963E+02  3.816746114E+02  4.313018329E+02  1.250000000E+02  0.00000E+00  9.000E+00
      25     1     1     2     0     0 -2.800580746E+01 -1.669643360E+02 -1.024481950E+02  2.340556502E+02  1.250000000E+02  0.00000E+00  9.000E+00
      21     1     1     2   512   501 -1.068153048E+01  1.456993971E+01 -1.631040079E+00  1.813941918E+01  1.299053116E-07  0.00000E+00  9.000E+00
#rwgt            1           1   2.9565435715889092E-002           6       36237           0
</event>
<event>
      5   9999  3.19816E-02  1.72033E+02 -1.00000E+00  1.14083E-01
      21    -1     0     0   502   501  0.000000000E+00  0.000000000E+00  4.863115598E+02  4.863115598E+02  0.000000000E+00  0.00000E+00  9.000E+00
      21    -1     0     0   501   511  0.000000000E+00  0.000000000E+00 -4.995950803E+02  4.995950803E+02  0.000000000E+00  0.00000E+00  9.000E+00
      25     1     1     2     0     0 -3.399931351E+02 -5.063531255E+01 -9.230901845E+01  3.772336433E+02  1.250000000E+02  0.00000E+00  9.000E+00
      25     1     1     2     0     0  3.398293873E+02  2.226677623E+02  9.607235710E+01  4.357979379E+02  1.250000000E+02  0.00000E+00  9.000E+00
      21     1     1     2   502   511  1.637477292E-01 -1.720324497E+02 -1.704685919E+01  1.728750589E+02  2.821006671E-06  0.00000E+00  9.000E+00
#rwgt            1           1   2.7216441991462621E-002           6       36400           0
</event>
<event>
      5   9999  3.19816E-02  1.60404E+01 -1.00000E+00  1.74683E-01
      21    -1     0     0   512   501  0.000000000E+00  0.000000000E+00  1.590054206E+02  1.590054206E+02  0.000000000E+00  0.00000E+00  9.000E+00
      21    -1     0     0   501   502  0.000000000E+00  0.000000000E+00 -9.040068337E+02  9.040068337E+02  0.000000000E+00  0.00000E+00  9.000E+00
      25     1     1     2     0     0 -1.161193915E+02  2.565060644E+02 -3.360027754E+02  4.558529798E+02  1.250000000E+02  0.00000E+00  9.000E+00
      25     1     1     2     0     0  1.038190457E+02 -2.668014244E+02 -4.586793500E+02  5.549532777E+02  1.250000000E+02  0.00000E+00  9.000E+00
      21     1     1     2   512   502  1.230034586E+01  1.029535999E+01  4.968071221E+01  5.220599689E+01  1.168007728E-06  0.00000E+00  9.000E+00
#rwgt            1           1   2.8414929699138940E-002           6       36447           0
</event>
<event>
      5   9999  3.19816E-02  4.53739E+01 -1.00000E+00  1.41525E-01
      21    -1     0     0   511   501  0.000000000E+00  0.000000000E+00  8.762727059E+02  8.762727059E+02  0.000000000E+00  0.00000E+00  9.000E+00
      21    -1     0     0   501   502  0.000000000E+00  0.000000000E+00 -3.092170298E+02  3.092170298E+02  0.000000000E+00  0.00000E+00  9.000E+00
      25     1     1     2     0     0 -8.227636530E+01  3.507504183E+02 -8.135045063E+01  3.899206997E+02  1.250000000E+02  0.00000E+00  9.000E+00
      25     1     1     2     0     0  1.198795610E+02 -3.761431666E+02  6.019367077E+02  7.306213732E+02  1.250000000E+02  0.00000E+00  9.000E+00
      21     1     1     2   511   502 -3.760319573E+01  2.539274838E+01  4.646941904E+01  6.494766282E+01  9.536743164E-07  0.00000E+00  9.000E+00
#rwgt            1           1   2.2201787074108845E-002           6       36581           0
</event>
<event>
      5   9999  3.19816E-02  3.42480E+01 -1.00000E+00  1.49150E-01
      21    -1     0     0   502   512  0.000000000E+00  0.000000000E+00  3.516093214E+01  3.516093214E+01  0.000000000E+00  0.00000E+00  9.000E+00
      21    -1     0     0   501   502  0.000000000E+00  0.000000000E+00 -9.769893442E+02  9.769893442E+02  0.000000000E+00  0.00000E+00  9.000E+00
      25     1     1     2     0     0 -8.143551962E+01 -5.879773917E+01 -5.856023108E+02  6.071605920E+02  1.250000000E+02  0.00000E+00  9.000E+00
      25     1     1     2     0     0  9.100496403E+01  2.591382135E+01 -3.107758197E+02  3.480805075E+02  1.250000000E+02  0.00000E+00  9.000E+00
      21     1     1     2   501   512 -9.569444410E+00  3.288391782E+01 -4.545028154E+01  5.690917685E+01  1.168007728E-06  0.00000E+00  9.000E+00
#rwgt            1           1   2.8085296770615348E-002           6       36677           0
</event>
<event>
      5   9999  3.19816E-02  3.17109E+02 -1.00000E+00  1.04815E-01
      21    -1     0     0   502   501  0.000000000E+00  0.000000000E+00  6.902852668E+02  6.902852668E+02  0.000000000E+00  0.00000E+00  9.000E+00
       2    -1     0     0   501     0  0.000000000E+00  0.000000000E+00 -1.288561076E+03  1.288561076E+03  0.000000000E+00  0.00000E+00  9.000E+00
      25     1     1     2     0     0 -5.957775008E+02 -3.858808887E+02  2.501739302E+02  7.629330810E+02  1.250000000E+02  0.00000E+00  9.000E+00
      25     1     1     2     0     0  5.334878070E+02  7.495032343E+01 -5.643701069E+02  7.901679624E+02  1.250000000E+02  0.00000E+00  9.000E+00
       2     1     1     2   502     0  6.228969379E+01  3.109305653E+02 -2.840796323E+02  4.257452993E+02  6.607249480E-06  0.00000E+00  9.000E+00
#rwgt            2          13   9.1173549179922612E-004           6       36864           0
</event>
<event>
      5   9999  3.19816E-02  6.50899E+01 -1.00000E+00  1.32840E-01
      21    -1     0     0   502   511  0.000000000E+00  0.000000000E+00  1.840653471E+03  1.840653471E+03  0.000000000E+00  0.00000E+00  9.000E+00
      21    -1     0     0   501   502  0.000000000E+00  0.000000000E+00 -6.242001943E+02  6.242001943E+02  0.000000000E+00  0.00000E+00  9.000E+00
      25     1     1     2     0     0 -3.416550719E+02 -2.439635487E+01 -5.389779436E+02  6.507269735E+02  1.250000000E+02  0.00000E+00  9.000E+00
      25     1     1     2     0     0  2.901419465E+02  6.418451989E+01  1.694748109E+03  1.725137141E+03  1.250000000E+02  0.00000E+00  9.000E+00
      21     1     1     2   501   511  5.151312544E+01 -3.978816502E+01  6.068311122E+01  8.898955082E+01  9.536743164E-07  0.00000E+00  9.000E+00
#rwgt            1           1   1.4233020594042654E-002           6       36898           0
</event>
<event>
      5   9999  3.19816E-02  1.05293E+01 -1.00000E+00  1.93203E-01
      21    -1     0     0   502   501  0.000000000E+00  0.000000000E+00  3.529828251E+02  3.529828251E+02  0.000000000E+00  0.00000E+00  9.000E+00
      21    -1     0     0   512   502  0.000000000E+00  0.000000000E+00 -1.091845777E+03  1.091845777E+03  0.000000000E+00  0.00000E+00  9.000E+00
      25     1     1     2     0     0 -2.774715127E+02 -3.193325688E+02  6.027476269E+00  4.411633035E+02  1.250000000E+02  0.00000E+00  9.000E+00
      25     1     1     2     0     0  2.777371375E+02  3.298585536E+02 -2.603109870E+02  5.189714760E+02  1.250000000E+02  0.00000E+00  9.000E+00
      21     1     1     2   512   501 -2.656248254E-01 -1.052598481E+01 -4.845794407E+02  4.846938222E+02  0.000000000E+00  0.00000E+00  9.000E+00
#rwgt            1           1   3.0878030480047763E-002           6       37041           0
</event>
<event>
      5   9999  3.19816E-02  1.16069E+02 -1.00000E+00  1.20985E-01
      21    -1     0     0   502   501  0.000000000E+00  0.000000000E+00  2.816553697E+02  2.816553697E+02  0.000000000E+00  0.00000E+00  9.000E+00
       1    -1     0     0   501     0  0.000000000E+00  0.000000000E+00 -1.948216440E+03  1.948216440E+03  0.000000000E+00  0.00000E+00  9.000E+00
      25     1     1     2     0     0 -1.360938636E+00  5.092568932E+02 -1.096467658E+02  5.357162016E+02  1.250000000E+02  0.00000E+00  9.000E+00
      25     1     1     2     0     0 -1.028067904E+02 -4.580603190E+02 -8.607744277E+02  9.884058415E+02  1.250000000E+02  0.00000E+00  9.000E+00
       1     1     1     2   502     0  1.041677290E+02 -5.119657421E+01 -6.961398767E+02  7.057497665E+02  7.629394531E-06  0.00000E+00  9.000E+00
#rwgt            1           1   2.7106472853574454E-002           6       37275           0
</event>
<event>
      5   9999  3.19816E-02  2.39492E+02 -1.00000E+00  1.08871E-01
      21    -1     0     0   502   501  0.000000000E+00  0.000000000E+00  2.645768437E+02  2.645768437E+02  0.000000000E+00  0.00000E+00  9.000E+00
       2    -1     0     0   501     0  0.000000000E+00  0.000000000E+00 -1.036950863E+03  1.036950863E+03  0.000000000E+00  0.00000E+00  9.000E+00
      25     1     1     2     0     0 -7.411208347E+01 -3.379843787E+02 -7.620393636E+01  3.757101024E+02  1.250000000E+02  0.00000E+00  9.000E+00
      25     1     1     2     0     0 -1.610596545E+02  2.926975141E+02 -3.162319318E+02  4.766966350E+02  1.250000000E+02  0.00000E+00  9.000E+00
       2     1     1     2   502     0  2.351717379E+02  4.528686451E+01 -3.799381507E+02  4.491209690E+02  7.629394531E-06  0.00000E+00  9.000E+00
#rwgt            2          13   7.6706416344625591E-004           6       37605           0
</event>
<event>
      5   9999  3.19816E-02  1.16629E+02 -1.00000E+00  1.20896E-01
      21    -1     0     0   502   501  0.000000000E+00  0.000000000E+00  2.708431330E+03  2.708431330E+03  0.000000000E+00  0.00000E+00  9.000E+00
      21    -1     0     0   501   511  0.000000000E+00  0.000000000E+00 -2.738003358E+02  2.738003358E+02  0.000000000E+00  0.00000E+00  9.000E+00
      25     1     1     2     0     0  5.473862176E+02 -2.686069196E+02  5.571156835E+02  8.353348031E+02  1.250000000E+02  0.00000E+00  9.000E+00
      25     1     1     2     0     0 -5.455905715E+02  3.852220899E+02  1.908811358E+03  2.026141883E+03  1.250000000E+02  0.00000E+00  9.000E+00
      21     1     1     2   502   511 -1.795646121E+00 -1.166151703E+02 -3.129604794E+01  1.207549788E+02  1.390207266E-06  0.00000E+00  9.000E+00
#rwgt            1           1   2.8818474669273789E-002           6       37624           0
</event>
<event>
      5   9999  3.19816E-02  3.79581E+01 -1.00000E+00  1.46266E-01
      21    -1     0     0   502   501  0.000000000E+00  0.000000000E+00  9.316622140E+02  9.316622140E+02  0.000000000E+00  0.00000E+00  9.000E+00
      21    -1     0     0   512   502  0.000000000E+00  0.000000000E+00 -3.299013071E+02  3.299013071E+02  0.000000000E+00  0.00000E+00  9.000E+00
      25     1     1     2     0     0  2.960393129E+02  1.998007556E+02 -2.708920411E-01  3.783975292E+02  1.250000000E+02  0.00000E+00  9.000E+00
      25     1     1     2     0     0 -3.254083571E+02 -2.238481328E+02  6.801100247E+02  7.963499426E+02  1.250000000E+02  0.00000E+00  9.000E+00
      21     1     1     2   512   501  2.936904414E+01  2.404737718E+01 -7.807822566E+01  8.681604935E+01  1.907348633E-06  0.00000E+00  9.000E+00
#rwgt            2          11   2.0873460119339026E-003           6       37855           0
</event>
<event>
      5   9999  3.19816E-02  5.24328E+01 -1.00000E+00  1.37908E-01
       1    -1     0     0   502     0  0.000000000E+00  0.000000000E+00  1.319637978E+03  1.319637978E+03  0.000000000E+00  0.00000E+00  9.000E+00
      21    -1     0     0   501   502  0.000000000E+00  0.000000000E+00 -8.767170154E+02  8.767170154E+02  0.000000000E+00  0.00000E+00  9.000E+00
      25     1     1     2     0     0 -7.412385946E+02 -6.146170590E+02  1.351291354E+01  9.710800081E+02  1.250000000E+02  0.00000E+00  9.000E+00
      25     1     1     2     0     0  7.690496816E+02  6.590663666E+02  2.673473724E+02  1.054943366E+03  1.250000000E+02  0.00000E+00  9.000E+00
       1     1     1     2   501     0 -2.781108701E+01 -4.444930760E+01  1.620606765E+02  1.703316188E+02  0.000000000E+00  0.00000E+00  9.000E+00
#rwgt            1           1   3.0404534217306892E-002           6       37920           0
</event>
<event>
      5   9999  3.19816E-02  8.89609E+01 -1.00000E+00  1.26157E-01
      21    -1     0     0   511   501  0.000000000E+00  0.000000000E+00  3.473785293E+02  3.473785293E+02  0.000000000E+00  0.00000E+00  9.000E+00
      21    -1     0     0   501   502  0.000000000E+00  0.000000000E+00 -9.887604348E+02  9.887604348E+02  0.000000000E+00  0.00000E+00  9.000E+00
      25     1     1     2     0     0  5.336852923E+01 -2.190712266E+02 -8.430621832E+02  8.816003897E+02  1.250000000E+02  0.00000E+00  9.000E+00
      25     1     1     2     0     0  8.784255409E+00  2.827193305E+02  1.944179250E+02  3.652816893E+02  1.250000000E+02  0.00000E+00  9.000E+00
      21     1     1     2   511   502 -6.215278464E+01 -6.364810390E+01  7.262352798E+00  8.925688509E+01  2.019533437E-06  0.00000E+00  9.000E+00
#rwgt            1           1   3.0484285515283330E-002           6       38139           0
</event>
<event>
      5   9999  3.19816E-02  4.08154E+01 -1.00000E+00  1.44299E-01
      21    -1     0     0   502   512  0.000000000E+00  0.000000000E+00  3.170685344E+02  3.170685344E+02  0.000000000E+00  0.00000E+00  9.000E+00
      21    -1     0     0   501   502  0.000000000E+00  0.000000000E+00 -1.333195271E+02  1.333195271E+02  0.000000000E+00  0.00000E+00  9.000E+00
      25     1     1     2     0     0  2.628945287E+01  5.697674022E+01 -3.525768888E+01  1.442414257E+02  1.250000000E+02  0.00000E+00  9.000E+00
      25     1     1     2     0     0 -4.284626635E+01 -9.428313454E+01  1.290866502E+02  2.073969027E+02  1.250000000E+02  0.00000E+00  9.000E+00
      21     1     1     2   501   512  1.655681348E+01  3.730639432E+01  8.992004595E+01  9.874973313E+01  1.348699152E-06  0.00000E+00  9.000E+00
#rwgt            1           1   3.3335620003222412E-002           6       38285           0
</event>
<event>
      5   9999  3.19816E-02  1.34450E+02 -1.00000E+00  1.18309E-01
      21    -1     0     0   502   501  0.000000000E+00  0.000000000E+00  7.610024071E+02  7.610024071E+02  0.000000000E+00  0.00000E+00  9.000E+00
       1    -1     0     0   501     0  0.000000000E+00  0.000000000E+00 -2.490287745E+03  2.490287745E+03  0.000000000E+00  0.00000E+00  9.000E+00
      25     1     1     2     0     0  6.047237826E+02 -1.255291160E+02 -1.254904910E+01  6.302625571E+02  1.250000000E+02  0.00000E+00  9.000E+00
      25     1     1     2     0     0 -7.126473427E+02  2.057129031E+02  1.351664648E+02  7.642506177E+02  1.250000000E+02  0.00000E+00  9.000E+00
       1     1     1     2   502     0  1.079235601E+02 -8.018378707E+01 -1.851902753E+03  1.856776977E+03  2.157918644E-05  0.00000E+00  9.000E+00
#rwgt            1           1   2.9818197094616639E-002           6       38388           0
</event>
<event>
      5   9999  3.19816E-02  3.36599E+01 -1.00000E+00  1.49647E-01
      21    -1     0     0   502   501  0.000000000E+00  0.000000000E+00  4.680427685E+02  4.680427685E+02  0.000000000E+00  0.00000E+00  9.000E+00
       2    -1     0     0   501     0  0.000000000E+00  0.000000000E+00 -2.977774764E+03  2.977774764E+03  0.000000000E+00  0.00000E+00  9.000E+00
      25     1     1     2     0     0 -2.220780874E+01  1.059164556E+02  3.590770282E+02  3.953135395E+02  1.250000000E+02  0.00000E+00  9.000E+00
      25     1     1     2     0     0  3.212231550E+01 -1.380830548E+02 -7.665745282E+00  1.891627258E+02  1.250000000E+02  0.00000E+00  9.000E+00
       2     1     1     2   502     0 -9.914506751E+00  3.216659914E+01 -2.861143278E+03  2.861341267E+03  3.051757812E-05  0.00000E+00  9.000E+00
#rwgt            1           1   2.8965426004113958E-002           6       38482           0
</event>
<event>
      5   9999  3.19816E-02  1.23683E+02 -1.00000E+00  1.19814E-01
      21    -1     0     0   502   501  0.000000000E+00  0.000000000E+00  6.806361033E+02  6.806361033E+02  0.000000000E+00  0.00000E+00  9.000E+00
      21    -1     0     0   511   502  0.000000000E+00  0.000000000E+00 -1.702028444E+02  1.702028444E+02  0.000000000E+00  0.00000E+00  9.000E+00
      25     1     1     2     0     0  6.551926968E+00  2.170748597E+02  4.078641423E+02  4.786883966E+02  1.250000000E+02  0.00000E+00  9.000E+00
      25     1     1     2     0     0  1.025707510E+02 -1.588527515E+02  1.017578945E+02  2.484645341E+02  1.250000000E+02  0.00000E+00  9.000E+00
      21     1     1     2   511   501 -1.091226780E+02 -5.822210822E+01  8.112221139E-01  1.236860171E+02  8.728316215E-07  0.00000E+00  9.000E+00
#rwgt            1           1   2.8610378027509670E-002           6       38553           0
</event>
<event>
      5   9999  3.19816E-02  4.10207E+01 -1.00000E+00  1.44165E-01
      21    -1     0     0   502   501  0.000000000E+00  0.000000000E+00  3.092425339E+02  3.092425339E+02  0.000000000E+00  0.00000E+00  9.000E+00
      21    -1     0     0   501   512  0.000000000E+00  0.000000000E+00 -5.412296401E+02  5.412296401E+02  0.000000000E+00  0.00000E+00  9.000E+00
      25     1     1     2     0     0  2.065296084E+02 -2.238099901E+02  1.035685063E+02  3.451040804E+02  1.250000000E+02  0.00000E+00  9.000E+00
      25     1     1     2     0     0 -1.802981509E+02  2.553474501E+02 -3.042685265E+02  4.537775663E+02  1.250000000E+02  0.00000E+00  9.000E+00
      21     1     1     2   502   512 -2.623145753E+01 -3.153746007E+01 -3.128708605E+01  5.159052729E+01  9.536743164E-07  0.00000E+00  9.000E+00
#rwgt            1           1   2.9189252174473494E-002           6       38599           0
</event>
<event>
      5   9999  3.19816E-02  1.18320E+02 -1.00000E+00  1.20629E-01
       2    -1     0     0   502     0  0.000000000E+00  0.000000000E+00  1.028264370E+03  1.028264370E+03  0.000000000E+00  0.00000E+00  9.000E+00
      21    -1     0     0   501   502  0.000000000E+00  0.000000000E+00 -4.601871694E+01  4.601871694E+01  0.000000000E+00  0.00000E+00  9.000E+00
      25     1     1     2     0     0 -3.046874357E+01  2.613220056E+01  2.672779321E+02  2.977813446E+02  1.250000000E+02  0.00000E+00  9.000E+00
      25     1     1     2     0     0 -1.635320937E+01 -1.347940792E+02  4.276728320E+02  4.657960095E+02  1.250000000E+02  0.00000E+00  9.000E+00
       2     1     1     2   501     0  4.682195294E+01  1.086618787E+02  2.872948891E+02  3.107057329E+02  0.000000000E+00  0.00000E+00  9.000E+00
#rwgt            1           1   4.0812501805365033E-002           6       38736           0
</event>
<event>
      5   9999  3.19816E-02  2.97842E+01 -1.00000E+00  1.53258E-01
      21    -1     0     0   511   501  0.000000000E+00  0.000000000E+00  6.905766843E+01  6.905766843E+01  0.000000000E+00  0.00000E+00  9.000E+00
      21    -1     0     0   501   502  0.000000000E+00  0.000000000E+00 -1.295233672E+03  1.295233672E+03  0.000000000E+00  0.00000E+00  9.000E+00
      25     1     1     2     0     0  9.669187349E+01  1.149362940E+02 -1.085429545E+03  1.102878945E+03  1.250000000E+02  0.00000E+00  9.000E+00
      25     1     1     2     0     0 -6.898680087E+01 -1.258692887E+02 -1.251314893E+02  2.277831121E+02  1.250000000E+02  0.00000E+00  9.000E+00
      21     1     1     2   511   502 -2.770507262E+01  1.093299473E+01 -1.561496895E+01  3.362928305E+01  3.371747881E-07  0.00000E+00  9.000E+00
#rwgt            1           1   3.0365377545731428E-002           6       38804           0
</event>
<event>
      5   9999  3.19816E-02  3.18299E+01 -1.00000E+00  1.51275E-01
      21    -1     0     0   512   501  0.000000000E+00  0.000000000E+00  5.371542990E+02  5.371542990E+02  0.000000000E+00  0.00000E+00  9.000E+00
      21    -1     0     0   501   502  0.000000000E+00  0.000000000E+00 -8.397137863E+02  8.397137863E+02  0.000000000E+00  0.00000E+00  9.000E+00
      25     1     1     2     0     0  5.330886645E+01  4.585100218E+01 -8.110341611E+02  8.236173627E+02  1.250000000E+02  0.00000E+00  9.000E+00
      25     1     1     2     0     0 -2.158597189E+01 -4.845821811E+01  1.919261578E+02  2.351059403E+02  1.250000000E+02  0.00000E+00  9.000E+00
      21     1     1     2   512   502 -3.172289457E+01  2.607215929E+00  3.165485159E+02  3.181447823E+02  5.394796609E-06  0.00000E+00  9.000E+00
#rwgt            1           1   3.2458599806805107E-002           6       38929           0
</event>
<event>
      5   9999  3.19816E-02  2.53691E+02 -1.00000E+00  1.08013E-01
      21    -1     0     0   511   501  0.000000000E+00  0.000000000E+00  3.132755126E+03  3.132755126E+03  0.000000000E+00  0.00000E+00  9.000E+00
      21    -1     0     0   501   502  0.000000000E+00  0.000000000E+00 -2.131000508E+03  2.131000508E+03  0.000000000E+00  0.00000E+00  9.000E+00
      25     1     1     2     0     0  9.574768224E+02 -1.785579105E+03  1.645549694E+02  2.036604513E+03  1.250000000E+02  0.00000E+00  9.000E+00
      25     1     1     2     0     0 -9.354221964E+02  1.532848651E+03 -4.982989983E+02  1.867770480E+03  1.250000000E+02  0.00000E+00  9.000E+00
      21     1     1     2   511   502 -2.205462599E+01  2.527304537E+02  1.335498648E+03  1.359380641E+03  1.525878906E-05  0.00000E+00  9.000E+00
#rwgt            2          11   1.4568673935591685E-003           6       39403           0
</event>
<event>
      5   9999  3.19816E-02  1.34104E+02 -1.00000E+00  1.18355E-01
      21    -1     0     0   502   501  0.000000000E+00  0.000000000E+00  1.761772656E+02  1.761772656E+02  0.000000000E+00  0.00000E+00  9.000E+00
      21    -1     0     0   501   512  0.000000000E+00  0.000000000E+00 -8.400563997E+02  8.400563997E+02  0.000000000E+00  0.00000E+00  9.000E+00
      25     1     1     2     0     0  1.536822541E+02  2.522204049E+02 -2.333366430E+02  3.966161328E+02  1.250000000E+02  0.00000E+00  9.000E+00
      25     1     1     2     0     0 -1.968546705E+01 -2.468656498E+02 -1.666779036E+02  3.236304840E+02  1.250000000E+02  0.00000E+00  9.000E+00
      21     1     1     2   502   512 -1.339967871E+02 -5.354755063E+00 -2.638645875E+02  2.959870485E+02  5.394796609E-06  0.00000E+00  9.000E+00
#rwgt            1           1   3.0688136861104064E-002           6       39423           0
</event>
<event>
      5   9999  3.19816E-02  3.32841E+01 -1.00000E+00  1.49971E-01
      21    -1     0     0   511   501  0.000000000E+00  0.000000000E+00  7.071083361E+02  7.071083361E+02  0.000000000E+00  0.00000E+00  9.000E+00
      21    -1     0     0   501   502  0.000000000E+00  0.000000000E+00 -1.630379498E+02  1.630379498E+02  0.000000000E+00  0.00000E+00  9.000E+00
      25     1     1     2     0     0  1.353638410E+02  1.863457197E+02  1.352919321E+02  2.949186389E+02  1.250000000E+02  0.00000E+00  9.000E+00
      25     1     1     2     0     0 -1.021856150E+02 -1.836935668E+02  9.927994290E+01  2.639445651E+02  1.250000000E+02  0.00000E+00  9.000E+00
      21     1     1     2   511   502 -3.317822591E+01 -2.652152902E+00  3.094985113E+02  3.112830819E+02  5.394796609E-06  0.00000E+00  9.000E+00
#rwgt            1           1   2.9123307825122610E-002           6       39470           0
</event>
<event>
      5   9999  3.19816E-02  1.28631E+01 -1.00000E+00  1.83911E-01
      21    -1     0     0   512   501  0.000000000E+00  0.000000000E+00  7.667337279E+02  7.667337279E+02  0.000000000E+00  0.00000E+00  9.000E+00
      21    -1     0     0   501   502  0.000000000E+00  0.000000000E+00 -2.076934986E+02  2.076934986E+02  0.000000000E+00  0.00000E+00  9.000E+00
      25     1     1     2     0     0 -2.973357154E+02 -5.095723412E+01  4.094457174E+02  5.237136268E+02  1.250000000E+02  0.00000E+00  9.000E+00
      25     1     1     2     0     0  2.863656939E+02  4.424030297E+01  1.544903953E+01  3.159528254E+02  1.250000000E+02  0.00000E+00  9.000E+00
      21     1     1     2   512   502  1.097002147E+01  6.716931150E+00  1.341454724E+02  1.347607743E+02  1.907348633E-06  0.00000E+00  9.000E+00
#rwgt            1           1   2.8518084632145467E-002           6       39605           0
</event>
<event>
      5   9999  3.19816E-02  1.62576E+01 -1.00000E+00  1.74152E-01
      21    -1     0     0   502   501  0.000000000E+00  0.000000000E+00  7.836061551E+02  7.836061551E+02  0.000000000E+00  0.00000E+00  9.000E+00
      21    -1     0     0   501   511  0.000000000E+00  0.000000000E+00 -7.476954358E+02  7.476954358E+02  0.000000000E+00  0.00000E+00  9.000E+00
      25     1     1     2     0     0 -5.615382264E+02  2.525761562E+02  3.193667085E+02  7.047978355E+02  1.250000000E+02  0.00000E+00  9.000E+00
      25     1     1     2     0     0  5.478003103E+02 -2.438824564E+02 -7.464189534E+01  6.170577323E+02  1.250000000E+02  0.00000E+00  9.000E+00
      21     1     1     2   502   511  1.373791611E+01 -8.693699832E+00 -2.088140939E+02  2.094460230E+02  0.000000000E+00  0.00000E+00  9.000E+00
#rwgt            1           1   1.6735374534749863E-002           6       39807           0
</event>
<event>
      5   9999  3.19816E-02  8.65398E+01 -1.00000E+00  1.26719E-01
      21    -1     0     0   502   501  0.000000000E+00  0.000000000E+00  7.583325742E+02  7.583325742E+02  0.000000000E+00  0.00000E+00  9.000E+00
      21    -1     0     0   501   512  0.000000000E+00  0.000000000E+00 -4.551651951E+02  4.551651951E+02  0.000000000E+00  0.00000E+00  9.000E+00
      25     1     1     2     0     0 -1.229449264E+02  3.443961056E+01  1.137900573E+02  2.118365380E+02  1.250000000E+02  0.00000E+00  9.000E+00
      25     1     1     2     0     0  1.975993872E+02  9.330807915E+00  5.674527477E+02  6.138079527E+02  1.250000000E+02  0.00000E+00  9.000E+00
      21     1     1     2   502   512 -7.465446086E+01 -4.377041847E+01 -3.780754259E+02  3.878532786E+02  0.000000000E+00  0.00000E+00  9.000E+00
#rwgt            1           1   2.6181153309688784E-002           6       40172           0
</event>
<event>
      5   9999  3.19816E-02  5.33399E+01 -1.00000E+00  1.37492E-01
      21    -1     0     0   502   501  0.000000000E+00  0.000000000E+00  5.018782255E+02  5.018782255E+02  0.000000000E+00  0.00000E+00  9.000E+00
      21    -1     0     0   501   511  0.000000000E+00  0.000000000E+00 -3.232129752E+02  3.232129752E+02  0.000000000E+00  0.00000E+00  9.000E+00
      25     1     1     2     0     0  3.041251824E+02 -2.965764080E-01  2.895418162E+02  4.381229027E+02  1.250000000E+02  0.00000E+00  9.000E+00
      25     1     1     2     0     0 -2.824272948E+02 -4.843066591E+01 -7.158264867E+01  3.207176045E+02  1.250000000E+02  0.00000E+00  9.000E+00
      21     1     1     2   502   511 -2.169788761E+01  4.872724231E+01 -3.929391725E+01  6.625069361E+01  1.507891493E-06  0.00000E+00  9.000E+00
#rwgt            1           1   2.6405167048076390E-002           6       40218           0
</event>
<event>
      5   9999  3.19816E-02  2.06353E+02 -1.00000E+00  1.11156E-01
      -4    -1     0     0     0   501  0.000000000E+00  0.000000000E+00  1.647860271E+03  1.647860271E+03  0.000000000E+00  0.00000E+00  9.000E+00
      21    -1     0     0   501   502  0.000000000E+00  0.000000000E+00 -7.737337903E+01  7.737337903E+01  0.000000000E+00  0.00000E+00  9.000E+00
      25     1     1     2     0     0 -3.276627734E+01  1.876848782E+01  9.249981215E+02  9.341693690E+02  1.250000000E+02  0.00000E+00  9.000E+00
      25     1     1     2     0     0  3.692996867E+01  1.875429186E+02  2.149656538E+02  3.136421547E+02  1.250000000E+02  0.00000E+00  9.000E+00
      -4     1     1     2     0   502 -4.163691331E+00 -2.063114064E+02  4.305231164E+02  4.774221262E+02  5.394796609E-06  0.00000E+00  9.000E+00
#rwgt            1           1   2.6258353441784982E-002           6       40381           0
</event>
<event>
      5   9999  3.19816E-02  2.95937E+01 -1.00000E+00  1.53452E-01
      21    -1     0     0   502   501  0.000000000E+00  0.000000000E+00  3.907426254E+02  3.907426254E+02  0.000000000E+00  0.00000E+00  9.000E+00
      21    -1     0     0   501   511  0.000000000E+00  0.000000000E+00 -6.642297185E+02  6.642297185E+02  0.000000000E+00  0.00000E+00  9.000E+00
      25     1     1     2     0     0 -2.006271727E+02  1.048325573E+02  3.025013968E+02  3.979613330E+02  1.250000000E+02  0.00000E+00  9.000E+00
      25     1     1     2     0     0  2.291143331E+02 -1.128494137E+02 -5.410889696E+02  6.112533361E+02  1.250000000E+02  0.00000E+00  9.000E+00
      21     1     1     2   502   511 -2.848716035E+01  8.016856447E+00 -3.489952028E+01  4.575767486E+01  4.768371582E-07  0.00000E+00  9.000E+00
#rwgt            1           1   2.3308168905455715E-002           6       40412           0
</event>
<event>
      5   9999  3.19816E-02  2.06073E+01 -1.00000E+00  1.65304E-01
      21    -1     0     0   502   501  0.000000000E+00  0.000000000E+00  3.051339499E+03  3.051339499E+03  0.000000000E+00  0.00000E+00  9.000E+00
      21    -1     0     0   512   502  0.000000000E+00  0.000000000E+00 -1.276443618E+01  1.276443618E+01  0.000000000E+00  0.00000E+00  9.000E+00
      25     1     1     2     0     0 -4.592659359E+01  1.066520179E+02  1.824402325E+03  1.832362614E+03  1.250000000E+02  0.00000E+00  9.000E+00
      25     1     1     2     0     0  6.633491703E+01 -1.095086502E+02  1.161128263E+03  1.174834588E+03  1.250000000E+02  0.00000E+00  9.000E+00
      21     1     1     2   512   501 -2.040832344E+01  2.856632324E+00  5.304447481E+01  5.690673354E+01  1.168007728E-06  0.00000E+00  9.000E+00
#rwgt            1           1   2.3865843387155784E-002           6       40574           0
</event>
<event>
      5   9999  3.19816E-02  2.71510E+01 -1.00000E+00  1.56112E-01
      21    -1     0     0   511   501  0.000000000E+00  0.000000000E+00  2.111778140E+03  2.111778140E+03  0.000000000E+00  0.00000E+00  9.000E+00
      21    -1     0     0   501   502  0.000000000E+00  0.000000000E+00 -9.466959188E+02  9.466959188E+02  0.000000000E+00  0.00000E+00  9.000E+00
      25     1     1     2     0     0 -1.312357859E+03 -3.451432977E+01  3.097987341E+02  1.354649270E+03  1.250000000E+02  0.00000E+00  9.000E+00
      25     1     1     2     0     0  1.339098207E+03  3.921838709E+01  6.455497869E+02  1.492340985E+03  1.250000000E+02  0.00000E+00  9.000E+00
      21     1     1     2   511   502 -2.674034786E+01 -4.704057312E+00  2.097337000E+02  2.114838038E+02  2.697398305E-06  0.00000E+00  9.000E+00
#rwgt            1           1   2.8741253998673170E-002           6       40679           0
</event>
<event>
      5   9999  3.19816E-02  6.25369E+01 -1.00000E+00  1.33749E-01
      21    -1     0     0   512   501  0.000000000E+00  0.000000000E+00  6.451705804E+02  6.451705804E+02  0.000000000E+00  0.00000E+00  9.000E+00
      21    -1     0     0   501   502  0.000000000E+00  0.000000000E+00 -3.936829612E+02  3.936829612E+02  0.000000000E+00  0.00000E+00  9.000E+00
      25     1     1     2     0     0  4.636200525E+01 -5.941965446E+00 -3.587447771E+02  3.827630567E+02  1.250000000E+02  0.00000E+00  9.000E+00
      25     1     1     2     0     0 -1.065147981E+02  2.304477425E+01  3.344591180E+02  3.733153699E+02  1.250000000E+02  0.00000E+00  9.000E+00
      21     1     1     2   512   502  6.015279287E+01 -1.710280881E+01  2.757732784E+02  2.827751149E+02  3.814697266E-06  0.00000E+00  9.000E+00
#rwgt            1           1   2.8056097086148341E-002           6       40875           0
</event>
<event>
      5   9999  3.19816E-02  2.67756E+01 -1.00000E+00  1.56551E-01
      21    -1     0     0   502   511  0.000000000E+00  0.000000000E+00  2.822046707E+03  2.822046707E+03  0.000000000E+00  0.00000E+00  9.000E+00
      21    -1     0     0   501   502  0.000000000E+00  0.000000000E+00 -3.895403515E+01  3.895403515E+01  0.000000000E+00  0.00000E+00  9.000E+00
      25     1     1     2     0     0 -4.070661373E+01  1.803157324E+02  2.202726857E+03  2.214001219E+03  1.250000000E+02  0.00000E+00  9.000E+00
      25     1     1     2     0     0  6.495435649E+01 -1.916727259E+02  4.056930938E+02  4.702864963E+02  1.250000000E+02  0.00000E+00  9.000E+00
      21     1     1     2   501   511 -2.424774275E+01  1.135699348E+01  1.746727211E+02  1.767130268E+02  1.907348633E-06  0.00000E+00  9.000E+00
#rwgt            1           1   5.8157524658895302E-002           6       40943           0
</event>
<event>
      5   9999  3.19816E-02  2.40080E+01 -1.00000E+00  1.60079E-01
      21    -1     0     0   502   501  0.000000000E+00  0.000000000E+00  1.988712668E+02  1.988712668E+02  0.000000000E+00  0.00000E+00  9.000E+00
      21    -1     0     0   512   502  0.000000000E+00  0.000000000E+00 -6.364535084E+02  6.364535084E+02  0.000000000E+00  0.00000E+00  9.000E+00
      25     1     1     2     0     0  9.309044173E+01 -2.943733373E+02 -1.273563430E+02  3.566036037E+02  1.250000000E+02  0.00000E+00  9.000E+00
      25     1     1     2     0     0 -7.286705186E+01  3.073115603E+02 -2.805422981E+02  4.405439630E+02  1.250000000E+02  0.00000E+00  9.000E+00
      21     1     1     2   512   501 -2.022338987E+01 -1.293822299E+01 -2.968360038E+01  3.817720843E+01  5.840038640E-07  0.00000E+00  9.000E+00
#rwgt            1           1   2.4387587752844969E-002           6       41097           0
</event>
<event>
      5   9999  3.19816E-02  2.29556E+01 -1.00000E+00  1.61577E-01
      21    -1     0     0   502   511  0.000000000E+00  0.000000000E+00  7.840859019E+02  7.840859019E+02  0.000000000E+00  0.00000E+00  9.000E+00
      21    -1     0     0   501   502  0.000000000E+00  0.000000000E+00 -7.110928409E+01  7.110928409E+01  0.000000000E+00  0.00000E+00  9.000E+00
      25     1     1     2     0     0  1.189640483E+02 -6.784228572E+01  5.455905061E+02  5.762369486E+02  1.250000000E+02  0.00000E+00  9.000E+00
      25     1     1     2     0     0 -1.254029783E+02  4.580826206E+01  1.014588210E+02  2.091487418E+02  1.250000000E+02  0.00000E+00  9.000E+00
      21     1     1     2   501   511  6.438930043E+00  2.203402366E+01  6.592729069E+01  6.980949561E+01  9.536743164E-07  0.00000E+00  9.000E+00
#rwgt            1           1   3.0206597428345187E-002           6       41309           0
</event>
<event>
      5   9999  3.19816E-02  2.90868E+02 -1.00000E+00  1.06030E-01
      21    -1     0     0   502   501  0.000000000E+00  0.000000000E+00  3.561523887E+02  3.561523887E+02  0.000000000E+00  0.00000E+00  9.000E+00
       1    -1     0     0   501     0  0.000000000E+00  0.000000000E+00 -1.409994253E+03  1.409994253E+03  0.000000000E+00  0.00000E+00  9.000E+00
      25     1     1     2     0     0 -2.700881875E+02 -6.523194387E+01  1.379018897E+02  3.344320061E+02  1.250000000E+02  0.00000E+00  9.000E+00
      25     1     1     2     0     0  4.431911496E+02 -1.685188263E+02 -6.222024161E+02  7.921981044E+02  1.250000000E+02  0.00000E+00  9.000E+00
       1     1     1     2   502     0 -1.731029622E+02  2.337507702E+02 -5.695413382E+02  6.395165315E+02  7.629394531E-06  0.00000E+00  9.000E+00
#rwgt            1           1   2.7881081281504124E-002           6       41413           0
</event>
<event>
      5   9999  3.19816E-02  2.06956E+02 -1.00000E+00  1.11110E-01
      21    -1     0     0   511   501  0.000000000E+00  0.000000000E+00  1.507871551E+02  1.507871551E+02  0.000000000E+00  0.00000E+00  9.000E+00
      21    -1     0     0   501   502  0.000000000E+00  0.000000000E+00 -1.447109924E+03  1.447109924E+03  0.000000000E+00  0.00000E+00  9.000E+00
      25     1     1     2     0     0  2.663193934E+02  2.660708596E+01 -1.110382566E+03  1.149003220E+03  1.250000000E+02  0.00000E+00  9.000E+00
      25     1     1     2     0     0 -8.635803104E+01 -1.288061452E+02 -1.156727479E+02  2.303343595E+02  1.250000000E+02  0.00000E+00  9.000E+00
      21     1     1     2   511   502 -1.799613623E+02  1.021990593E+02 -7.026745493E+01  2.185594996E+02  0.000000000E+00  0.00000E+00  9.000E+00
#rwgt            1           1   3.0186979389706332E-002           6       41486           0
</event>
<event>
      5   9999  3.19816E-02  1.87252E+01 -1.00000E+00  1.68764E-01
      21    -1     0     0   502   501  0.000000000E+00  0.000000000E+00  3.536473044E+02  3.536473044E+02  0.000000000E+00  0.00000E+00  9.000E+00
      21    -1     0     0   501   512  0.000000000E+00  0.000000000E+00 -1.662989546E+02  1.662989546E+02  0.000000000E+00  0.00000E+00  9.000E+00
      25     1     1     2     0     0 -9.421669490E+01 -1.481164432E+02  1.399687168E+02  2.569659666E+02  1.250000000E+02  0.00000E+00  9.000E+00
      25     1     1     2     0     0  8.125289639E+01  1.616284113E+02  7.260471300E+01  2.315647228E+02  1.250000000E+02  0.00000E+00  9.000E+00
      21     1     1     2   502   512  1.296379851E+01 -1.351196812E+01 -2.522507988E+01  3.141556954E+01  4.768371582E-07  0.00000E+00  9.000E+00
#rwgt            1           1   2.7375573908147561E-002           6       41516           0
</event>
<event>
      5   9999  3.19816E-02  1.77457E+02 -1.00000E+00  1.13572E-01
       1    -1     0     0   502     0  0.000000000E+00  0.000000000E+00  1.087085172E+03  1.087085172E+03  0.000000000E+00  0.00000E+00  9.000E+00
      21    -1     0     0   501   502  0.000000000E+00  0.000000000E+00 -8.251662206E+02  8.251662206E+02  0.000000000E+00  0.00000E+00  9.000E+00
      25     1     1     2     0     0 -1.880597749E+02  3.685763943E+02 -5.371962217E+02  6.895069383E+02  1.250000000E+02  0.00000E+00  9.000E+00
      25     1     1     2     0     0  2.584356449E+02 -2.056708599E+02 -4.875830348E+01  3.564994493E+02  1.250000000E+02  0.00000E+00  9.000E+00
       1     1     1     2   501     0 -7.037587010E+01 -1.629055344E+02  8.478734767E+02  8.662450050E+02  1.078959322E-05  0.00000E+00  9.000E+00
#rwgt            1           1   2.9030046447010589E-002           6       41636           0
</event>
<event>
      5   9999  3.19816E-02  3.79619E+02 -1.00000E+00  1.02374E-01
      21    -1     0     0   511   501  0.000000000E+00  0.000000000E+00  3.510935394E+03  3.510935394E+03  0.000000000E+00  0.00000E+00  9.000E+00
      21    -1     0     0   501   502  0.000000000E+00  0.000000000E+00 -1.890763979E+02  1.890763979E+02  0.000000000E+00  0.00000E+00  9.000E+00
      25     1     1     2     0     0  1.357496880E+02 -5.964908992E+01  1.737007748E+02  2.603515909E+02  1.250000000E+02  0.00000E+00  9.000E+00
      25     1     1     2     0     0 -2.619616144E+02 -2.983745330E+02  1.905783114E+02  4.578169308E+02  1.250000000E+02  0.00000E+00  9.000E+00
      21     1     1     2   511   502  1.262119264E+02  3.580236229E+02  2.957579910E+03  2.981843270E+03  4.315837288E-05  0.00000E+00  9.000E+00
#rwgt            2          11   4.5969976480636206E-004           6       41736           0
</event>
<event>
      5   9999  3.19816E-02  4.24443E+01 -1.00000E+00  1.43260E-01
      21    -1     0     0   502   501  0.000000000E+00  0.000000000E+00  2.303704777E+02  2.303704777E+02  0.000000000E+00  0.00000E+00  9.000E+00
      21    -1     0     0   512   502  0.000000000E+00  0.000000000E+00 -3.964091032E+02  3.964091032E+02  0.000000000E+00  0.00000E+00  9.000E+00
      25     1     1     2     0     0 -6.641572643E+01 -2.040401810E+02  4.716014091E+00  2.483760958E+02  1.250000000E+02  0.00000E+00  9.000E+00
      25     1     1     2     0     0  6.464533488E+01  2.464475923E+02 -1.101700440E+02  3.044304086E+02  1.250000000E+02  0.00000E+00  9.000E+00
      21     1     1     2   512   501  1.770391549E+00 -4.240741129E+01 -6.058459564E+01  7.397307650E+01  1.348699152E-06  0.00000E+00  9.000E+00
#rwgt            1           1   3.2565640180867564E-002           6       41786           0
</event>
<event>
      5   9999  3.19816E-02  1.87888E+02 -1.00000E+00  1.12645E-01
      21    -1     0     0   502   511  0.000000000E+00  0.000000000E+00  2.236571380E+03  2.236571380E+03  0.000000000E+00  0.00000E+00  9.000E+00
      21    -1     0     0   501   502  0.000000000E+00  0.000000000E+00 -5.718302717E+02  5.718302717E+02  0.000000000E+00  0.00000E+00  9.000E+00
      25     1     1     2     0     0 -8.485796656E+02  5.645037744E+02  3.633493134E+02  1.089219759E+03  1.250000000E+02  0.00000E+00  9.000E+00
      25     1     1     2     0     0  7.511670537E+02 -4.038400484E+02  7.708841077E+02  1.156384899E+03  1.250000000E+02  0.00000E+00  9.000E+00
      21     1     1     2   501   511  9.741261184E+01 -1.606637261E+02  5.305076872E+02  5.627969936E+02  0.000000000E+00  0.00000E+00  9.000E+00
#rwgt            2          11   3.3972741919541028E-003           6       41981           0
</event>
<event>
      5   9999  3.19816E-02  1.31482E+02 -1.00000E+00  1.18708E-01
      21    -1     0     0   512   501  0.000000000E+00  0.000000000E+00  3.454994484E+02  3.454994484E+02  0.000000000E+00  0.00000E+00  9.000E+00
      21    -1     0     0   501   502  0.000000000E+00  0.000000000E+00 -6.918815229E+02  6.918815229E+02  0.000000000E+00  0.00000E+00  9.000E+00
      25     1     1     2     0     0  4.085529788E+02 -5.131418874E+01 -3.752788921E+02  5.709710406E+02  1.250000000E+02  0.00000E+00  9.000E+00
      25     1     1     2     0     0 -2.875310963E+02  1.027060267E+02  4.852891433E+01  3.334707105E+02  1.250000000E+02  0.00000E+00  9.000E+00
      21     1     1     2   512   502 -1.210218825E+02 -5.139183793E+01 -1.963209674E+01  1.329392202E+02  3.216442481E-06  0.00000E+00  9.000E+00
#rwgt            1           1   2.8782178519743032E-002           6       42001           0
</event>
<event>
      5   9999  3.19816E-02  6.60302E+01 -1.00000E+00  1.32518E-01
      21    -1     0     0   502   501  0.000000000E+00  0.000000000E+00  1.033035378E+03  1.033035378E+03  0.000000000E+00  0.00000E+00  9.000E+00
      21    -1     0     0   511   502  0.000000000E+00  0.000000000E+00 -2.571150679E+02  2.571150679E+02  0.000000000E+00  0.00000E+00  9.000E+00
      25     1     1     2     0     0 -3.544786633E+02  1.816274430E+02  3.073053598E+02  5.183678568E+02  1.250000000E+02  0.00000E+00  9.000E+00
      25     1     1     2     0     0  4.189253095E+02 -1.672534114E+02  5.112671556E+02  6.931747420E+02  1.250000000E+02  0.00000E+00  9.000E+00
      21     1     1     2   511   501 -6.444664628E+01 -1.437403163E+01 -4.265220532E+01  7.860784707E+01  1.719260824E-06  0.00000E+00  9.000E+00
#rwgt            2          11   3.0428359555909061E-003           6       42089           0
</event>
<event>
      5   9999  3.19816E-02  7.83678E+01 -1.00000E+00  1.28784E-01
      21    -1     0     0   512   501  0.000000000E+00  0.000000000E+00  1.337444119E+02  1.337444119E+02  0.000000000E+00  0.00000E+00  9.000E+00
      21    -1     0     0   501   502  0.000000000E+00  0.000000000E+00 -7.184168215E+02  7.184168215E+02  0.000000000E+00  0.00000E+00  9.000E+00
      25     1     1     2     0     0 -2.184384620E+01 -2.046220387E+02 -1.567073674E+02  2.872795352E+02  1.250000000E+02  0.00000E+00  9.000E+00
      25     1     1     2     0     0 -3.727546765E+01  2.560653844E+02 -3.637103721E+02  4.635398325E+02  1.250000000E+02  0.00000E+00  9.000E+00
      21     1     1     2   512   502  5.911931384E+01 -5.144334578E+01 -6.425467017E+01  1.013418656E+02  1.348699152E-06  0.00000E+00  9.000E+00
#rwgt            1           1   2.8412414556761075E-002           6       42124           0
</event>
<event>
      5   9999  3.19816E-02  8.66191E+01 -1.00000E+00  1.26700E-01
      21    -1     0     0   502   501  0.000000000E+00  0.000000000E+00  1.283142436E+03  1.283142436E+03  0.000000000E+00  0.00000E+00  9.000E+00
      21    -1     0     0   501   511  0.000000000E+00  0.000000000E+00 -1.059304696E+02  1.059304696E+02  0.000000000E+00  0.00000E+00  9.000E+00
      25     1     1     2     0     0 -1.574560282E+01 -1.877429330E+02  8.792472632E+02  9.078524565E+02  1.250000000E+02  0.00000E+00  9.000E+00
      25     1     1     2     0     0 -4.023253807E+01  2.538437033E+02  1.917458555E+02  3.441609448E+02  1.250000000E+02  0.00000E+00  9.000E+00
      21     1     1     2   502   511  5.597814090E+01 -6.610077034E+01  1.062188479E+02  1.370595044E+02  2.697398305E-06  0.00000E+00  9.000E+00
#rwgt            1           1   3.2057699724382910E-002           6       42193           0
</event>
<event>
      5   9999  3.19816E-02  6.44992E+01 -1.00000E+00  1.33046E-01
      21    -1     0     0   502   512  0.000000000E+00  0.000000000E+00  3.915212322E+02  3.915212322E+02  0.000000000E+00  0.00000E+00  9.000E+00
      21    -1     0     0   501   502  0.000000000E+00  0.000000000E+00 -3.701984454E+03  3.701984454E+03  0.000000000E+00  0.00000E+00  9.000E+00
      25     1     1     2     0     0 -7.608170131E+01 -7.480422122E+02 -3.049365946E+03  3.143185208E+03  1.250000000E+02  0.00000E+00  9.000E+00
      25     1     1     2     0     0  4.499645194E+01  6.915280423E+02 -3.908851797E+02  8.053893081E+02  1.250000000E+02  0.00000E+00  9.000E+00
      21     1     1     2   501   512  3.108524937E+01  5.651416996E+01  1.297879039E+02  1.449311704E+02  1.907348633E-06  0.00000E+00  9.000E+00
#rwgt            1           1   4.9293671210429629E-002           6       42271           0
</event>
<event>
      5   9999  3.19816E-02  9.52987E+01 -1.00000E+00  1.24776E-01
      21    -1     0     0   502   501  0.000000000E+00  0.000000000E+00  1.915016264E+03  1.915016264E+03  0.000000000E+00  0.00000E+00  9.000E+00
      21    -1     0     0   501   511  0.000000000E+00  0.000000000E+00 -6.369151471E+01  6.369151471E+01  0.000000000E+00  0.00000E+00  9.000E+00
      25     1     1     2     0     0 -1.449540992E+01  1.092251106E+02  2.924485874E+02  3.365879053E+02  1.250000000E+02  0.00000E+00  9.000E+00
      25     1     1     2     0     0  2.157330007E+01 -1.418957233E+01  1.539611683E+03  1.544893487E+03  1.250000000E+02  0.00000E+00  9.000E+00
      21     1     1     2   502   511 -7.077890146E+00 -9.503553822E+01  1.926447852E+01  9.722638626E+01  2.299225512E-06  0.00000E+00  9.000E+00
#rwgt            2          11   1.2049506625616302E-002           6       42470           0
</event>
<event>
      5   9999  3.19816E-02  1.94207E+02 -1.00000E+00  1.12115E-01
      21    -1     0     0   502   501  0.000000000E+00  0.000000000E+00  1.032723769E+03  1.032723769E+03  0.000000000E+00  0.00000E+00  9.000E+00
      21    -1     0     0   512   502  0.000000000E+00  0.000000000E+00 -1.657714726E+02  1.657714726E+02  0.000000000E+00  0.00000E+00  9.000E+00
      25     1     1     2     0     0 -8.882089698E+01  1.482738375E+01  1.051685798E+02  1.865326599E+02  1.250000000E+02  0.00000E+00  9.000E+00
      25     1     1     2     0     0  2.126031319E+02 -1.644743464E+02  7.621333291E+02  8.177555342E+02  1.250000000E+02  0.00000E+00  9.000E+00
      21     1     1     2   512   501 -1.237822349E+02  1.496469627E+02 -3.496124146E-01  1.942070476E+02  1.590637886E-06  0.00000E+00  9.000E+00
#rwgt            1           1   2.6442245198464782E-002           6       42490           0
</event>
<event>
      5   9999  3.19816E-02  2.65570E+01 -1.00000E+00  1.56810E-01
      21    -1     0     0   502   511  0.000000000E+00  0.000000000E+00  4.364522161E+02  4.364522161E+02  0.000000000E+00  0.00000E+00  9.000E+00
      21    -1     0     0   501   502  0.000000000E+00  0.000000000E+00 -4.141653715E+02  4.141653715E+02  0.000000000E+00  0.00000E+00  9.000E+00
      25     1     1     2     0     0  4.481967926E+01 -2.994517825E+02  1.830411389E+01  3.280856813E+02  1.250000000E+02  0.00000E+00  9.000E+00
      25     1     1     2     0     0 -4.190048759E+01  3.258478541E+02 -1.383416008E+02  3.777510733E+02  1.250000000E+02  0.00000E+00  9.000E+00
      21     1     1     2   501   511 -2.919191667E+00 -2.639607163E+01  1.423243314E+02  1.447808330E+02  1.907348633E-06  0.00000E+00  9.000E+00
#rwgt            1           1   3.4985783612616742E-002           6       42549           0
</event>
<event>
      5   9999  3.19816E-02  3.72922E+01 -1.00000E+00  1.46754E-01
      21    -1     0     0   502   501  0.000000000E+00  0.000000000E+00  8.576342470E+01  8.576342470E+01  0.000000000E+00  0.00000E+00  9.000E+00
      21    -1     0     0   501   512  0.000000000E+00  0.000000000E+00 -1.595279845E+03  1.595279845E+03  0.000000000E+00  0.00000E+00  9.000E+00
      25     1     1     2     0     0 -6.233846614E+00 -5.222472650E+01  2.448229025E+01  1.378066233E+02  1.250000000E+02  0.00000E+00  9.000E+00
      25     1     1     2     0     0 -2.071026354E+01  2.644252853E+01 -1.277672216E+03  1.284211592E+03  1.250000000E+02  0.00000E+00  9.000E+00
      21     1     1     2   502   512  2.694411015E+01  2.578219797E+01 -2.563264945E+02  2.590250540E+02  3.814697266E-06  0.00000E+00  9.000E+00
#rwgt            1           1   2.9597129803861495E-002           6       42720           0
</event>
<event>
      5   9999  3.19816E-02  1.64283E+01 -1.00000E+00  1.73741E-01
      21    -1     0     0   502   501  0.000000000E+00  0.000000000E+00  3.162187415E+02  3.162187415E+02  0.000000000E+00  0.00000E+00  9.000E+00
      21    -1     0     0   511   502  0.000000000E+00  0.000000000E+00 -1.741454600E+02  1.741454600E+02  0.000000000E+00  0.00000E+00  9.000E+00
      25     1     1     2     0     0 -9.102858915E+01  7.328881291E+01  2.107730276E+02  2.714916634E+02  1.250000000E+02  0.00000E+00  9.000E+00
      25     1     1     2     0     0  1.007329423E+02 -8.654457362E+01 -4.141255155E+01  1.870216253E+02  1.250000000E+02  0.00000E+00  9.000E+00
      21     1     1     2   511   501 -9.704353191E+00  1.325576071E+01 -2.728719448E+01  3.185091279E+01  3.371747881E-07  0.00000E+00  9.000E+00
#rwgt            1           1   2.9855644588695916E-002           6       42832           0
</event>
<event>
      5   9999  3.19816E-02  1.19850E+01 -1.00000E+00  1.87085E-01
      21    -1     0     0   502   512  0.000000000E+00  0.000000000E+00  4.946832461E+02  4.946832461E+02  0.000000000E+00  0.00000E+00  9.000E+00
      21    -1     0     0   501   502  0.000000000E+00  0.000000000E+00 -1.530646882E+02  1.530646882E+02  0.000000000E+00  0.00000E+00  9.000E+00
      25     1     1     2     0     0  1.050710971E+02 -2.015480654E+02  1.593377621E+02  3.044258211E+02  1.250000000E+02  0.00000E+00  9.000E+00
      25     1     1     2     0     0 -1.150605983E+02  2.081700351E+02  1.474707975E+02  3.065066735E+02  1.250000000E+02  0.00000E+00  9.000E+00
      21     1     1     2   501   512  9.989501222E+00 -6.621969683E+00  3.480999822E+01  3.681543961E+01  0.000000000E+00  0.00000E+00  9.000E+00
#rwgt            1           1   2.8987722777372327E-002           6       43026           0
</event>
<event>
      5   9999  3.19816E-02  8.61689E+01 -1.00000E+00  1.26807E-01
      21    -1     0     0   502   501  0.000000000E+00  0.000000000E+00  4.902493203E+02  4.902493203E+02  0.000000000E+00  0.00000E+00  9.000E+00
      21    -1     0     0   511   502  0.000000000E+00  0.000000000E+00 -1.900034965E+02  1.900034965E+02  0.000000000E+00  0.00000E+00  9.000E+00
      25     1     1     2     0     0  1.356734540E+02  5.851111099E+00  2.601162049E+02  3.189466439E+02  1.250000000E+02  0.00000E+00  9.000E+00
      25     1     1     2     0     0 -2.208975883E+02 -1.857635911E+01  7.942904283E+01  2.665985718E+02  1.250000000E+02  0.00000E+00  9.000E+00
      21     1     1     2   511   501  8.522413429E+01  1.272524801E+01 -3.929942392E+01  9.470760119E+01  1.907348633E-06  0.00000E+00  9.000E+00
#rwgt            1           1   2.9488574561545647E-002           6       43262           0
</event>
<event>
      5   9999  3.19816E-02  5.10678E+01 -1.00000E+00  1.38554E-01
      21    -1     0     0   502   512  0.000000000E+00  0.000000000E+00  6.396702183E+02  6.396702183E+02  0.000000000E+00  0.00000E+00  9.000E+00
      21    -1     0     0   501   502  0.000000000E+00  0.000000000E+00 -1.765612898E+02  1.765612898E+02  0.000000000E+00  0.00000E+00  9.000E+00
      25     1     1     2     0     0 -2.063855918E+02 -2.564978544E+01 -1.812244104E+01  2.433235436E+02  1.250000000E+02  0.00000E+00  9.000E+00
      25     1     1     2     0     0  2.208598450E+02 -2.332385053E+01  4.342915691E+02  5.035446754E+02  1.250000000E+02  0.00000E+00  9.000E+00
      21     1     1     2   501   512 -1.447425321E+01  4.897363596E+01  4.693980040E+01  6.936328919E+01  9.536743164E-07  0.00000E+00  9.000E+00
#rwgt            1           1   2.9806859933130116E-002           6       43306           0
</event>
<event>
      5   9999  3.19816E-02  1.07807E+01 -1.00000E+00  1.92057E-01
      21    -1     0     0   502   511  0.000000000E+00  0.000000000E+00  6.570362004E+02  6.570362004E+02  0.000000000E+00  0.00000E+00  9.000E+00
      21    -1     0     0   501   502  0.000000000E+00  0.000000000E+00 -1.267173663E+02  1.267173663E+02  0.000000000E+00  0.00000E+00  9.000E+00
      25     1     1     2     0     0  1.331486126E+02 -3.980553707E+01  1.926694060E+02  2.684390691E+02  1.250000000E+02  0.00000E+00  9.000E+00
      25     1     1     2     0     0 -1.377579382E+02  3.005989554E+01  1.128022886E+01  1.887672917E+02  1.250000000E+02  0.00000E+00  9.000E+00
      21     1     1     2   501   511  4.609325579E+00  9.745641532E+00  3.263691992E+02  3.265472058E+02  6.607249480E-06  0.00000E+00  9.000E+00
#rwgt            1           1   2.5376896972838806E-002           6       43378           0
</event>
<event>
      5   9999  3.19816E-02  5.61617E+01 -1.00000E+00  1.36256E-01
      21    -1     0     0   502   512  0.000000000E+00  0.000000000E+00  2.261176905E+02  2.261176905E+02  0.000000000E+00  0.00000E+00  9.000E+00
      21    -1     0     0   501   502  0.000000000E+00  0.000000000E+00 -4.857957977E+02  4.857957977E+02  0.000000000E+00  0.00000E+00  9.000E+00
      25     1     1     2     0     0  1.942603472E+02  1.272056524E+02 -1.630307807E+02  3.100361204E+02  1.250000000E+02  0.00000E+00  9.000E+00
      25     1     1     2     0     0 -2.190502872E+02 -1.776000891E+02 -1.319944576E+02  3.355180424E+02  1.250000000E+02  0.00000E+00  9.000E+00
      21     1     1     2   501   512  2.478993994E+01  5.039443675E+01  3.534713108E+01  6.635932529E+01  1.066240300E-06  0.00000E+00  9.000E+00
#rwgt            1           1   2.9420221296633284E-002           6       43590           0
</event>
<event>
      5   9999  3.19816E-02  5.17259E+01 -1.00000E+00  1.38240E-01
      21    -1     0     0   511   501  0.000000000E+00  0.000000000E+00  3.776953393E+02  3.776953393E+02  0.000000000E+00  0.00000E+00  9.000E+00
      21    -1     0     0   501   502  0.000000000E+00  0.000000000E+00 -3.088899593E+02  3.088899593E+02  0.000000000E+00  0.00000E+00  9.000E+00
      25     1     1     2     0     0  1.248961402E+02  5.789547969E+01 -2.113907442E+02  2.815350407E+02  1.250000000E+02  0.00000E+00  9.000E+00
      25     1     1     2     0     0 -1.151617055E+02 -7.093762776E+00  6.239695665E+01  1.811930465E+02  1.250000000E+02  0.00000E+00  9.000E+00
      21     1     1     2   511   502 -9.734434625E+00 -5.080171692E+01  2.177991676E+02  2.238572114E+02  3.814697266E-06  0.00000E+00  9.000E+00
#rwgt            1           1   2.7045019572826616E-002           6       43687           0
</event>
<event>
      5   9999  3.19816E-02  2.52653E+01 -1.00000E+00  1.58408E-01
      21    -1     0     0   502   501  0.000000000E+00  0.000000000E+00  3.116610591E+02  3.116610591E+02  0.000000000E+00  0.00000E+00  9.000E+00
      21    -1     0     0   501   512  0.000000000E+00  0.000000000E+00 -3.289284719E+02  3.289284719E+02  0.000000000E+00  0.00000E+00  9.000E+00
      25     1     1     2     0     0 -2.719345276E+02 -1.010101101E+02  4.168281625E+00  3.159015736E+02  1.250000000E+02  0.00000E+00  9.000E+00
      25     1     1     2     0     0  2.593434796E+02  7.910571340E+01 -1.711924655E+01  2.990565547E+02  1.250000000E+02  0.00000E+00  9.000E+00
      21     1     1     2   502   512  1.259104805E+01  2.190439665E+01 -4.316447944E+00  2.563140274E+01  0.000000000E+00  0.00000E+00  9.000E+00
#rwgt            1           1   2.8947084927277565E-002           6       43798           0
</event>
<event>
      5   9999  3.19816E-02  1.89531E+01 -1.00000E+00  1.68319E-01
      21    -1     0     0   511   501  0.000000000E+00  0.000000000E+00  2.894075098E+02  2.894075098E+02  0.000000000E+00  0.00000E+00  9.000E+00
      21    -1     0     0   501   502  0.000000000E+00  0.000000000E+00 -1.605872453E+03  1.605872453E+03  0.000000000E+00  0.00000E+00  9.000E+00
      25     1     1     2     0     0 -1.742703193E+02 -2.726666883E+02  1.370242022E+02  3.729851191E+02  1.250000000E+02  0.00000E+00  9.000E+00
      25     1     1     2     0     0  1.754781023E+02  2.537521026E+02 -1.463486565E+03  1.500866623E+03  1.250000000E+02  0.00000E+00  9.000E+00
      21     1     1     2   511   502 -1.207782993E+00  1.891458566E+01  9.997418802E+00  2.142822142E+01  2.665600750E-07  0.00000E+00  9.000E+00
#rwgt            1           1   2.7226729222534055E-002           6       43946           0
</event>
<event>
      5   9999  3.19816E-02  1.11571E+02 -1.00000E+00  1.21726E-01
      -2    -1     0     0     0   501  0.000000000E+00  0.000000000E+00  4.209353695E+02  4.209353695E+02  0.000000000E+00  0.00000E+00  9.000E+00
      21    -1     0     0   501   502  0.000000000E+00  0.000000000E+00 -6.191046486E+02  6.191046486E+02  0.000000000E+00  0.00000E+00  9.000E+00
      25     1     1     2     0     0 -9.641739897E+01 -2.403096551E+02 -4.897412905E+02  5.679054295E+02  1.250000000E+02  0.00000E+00  9.000E+00
      25     1     1     2     0     0  6.733491689E+00  1.739411264E+02  2.899518884E+02  3.605522887E+02  1.250000000E+02  0.00000E+00  9.000E+00
      -2     1     1     2     0   502  8.968390728E+01  6.636852877E+01  1.620123035E+00  1.115822998E+02  1.630162517E-06  0.00000E+00  9.000E+00
#rwgt            1           1   3.0042842968064091E-002           6       44191           0
</event>
<event>
      5   9999  3.19816E-02  1.79273E+02 -1.00000E+00  1.13406E-01
      21    -1     0     0   502   511  0.000000000E+00  0.000000000E+00  1.042842864E+03  1.042842864E+03  0.000000000E+00  0.00000E+00  9.000E+00
      21    -1     0     0   501   502  0.000000000E+00  0.000000000E+00 -5.012054987E+02  5.012054987E+02  0.000000000E+00  0.00000E+00  9.000E+00
      25     1     1     2     0     0  1.980003435E+02 -1.384326085E+02 -2.189760368E+02  3.492037053E+02  1.250000000E+02  0.00000E+00  9.000E+00
      25     1     1     2     0     0 -3.617597177E+02  2.113815698E+02  2.527440625E+01  4.379681004E+02  1.250000000E+02  0.00000E+00  9.000E+00
      21     1     1     2   501   511  1.637593742E+02 -7.294896131E+01  7.353389963E+02  7.568765573E+02  1.078959322E-05  0.00000E+00  9.000E+00
#rwgt            1           1   2.9246548317639696E-002           6       44266           0
</event>
<event>
      5   9999  3.19816E-02  1.22488E+02 -1.00000E+00  1.19991E-01
      21    -1     0     0   502   501  0.000000000E+00  0.000000000E+00  4.099579715E+02  4.099579715E+02  0.000000000E+00  0.00000E+00  9.000E+00
       2    -1     0     0   501     0  0.000000000E+00  0.000000000E+00 -1.564632530E+03  1.564632530E+03  0.000000000E+00  0.00000E+00  9.000E+00
      25     1     1     2     0     0  2.034359931E+02 -3.201492635E+02  1.645028689E+02  4.319351202E+02  1.250000000E+02  0.00000E+00  9.000E+00
      25     1     1     2     0     0 -3.083853950E+02  3.833080516E+02 -4.935293895E+02  7.079709546E+02  1.250000000E+02  0.00000E+00  9.000E+00
       2     1     1     2   502     0  1.049494019E+02 -6.315878810E+01 -8.256480381E+02  8.346844267E+02  1.078959322E-05  0.00000E+00  9.000E+00
#rwgt            2          13   1.2741137417802183E-003           6       44362           0
</event>
<event>
      5   9999  3.19816E-02  7.03865E+01 -1.00000E+00  1.31100E-01
      21    -1     0     0   511   501  0.000000000E+00  0.000000000E+00  8.148336976E+01  8.148336976E+01  0.000000000E+00  0.00000E+00  9.000E+00
      21    -1     0     0   501   502  0.000000000E+00  0.000000000E+00 -1.548459891E+03  1.548459891E+03  0.000000000E+00  0.00000E+00  9.000E+00
      25     1     1     2     0     0  3.839238389E+01 -1.218711157E+02 -2.735492494E+02  3.267732178E+02  1.250000000E+02  0.00000E+00  9.000E+00
      25     1     1     2     0     0  1.776212655E+01  7.943377258E+01 -1.219141935E+03  1.228233396E+03  1.250000000E+02  0.00000E+00  9.000E+00
      21     1     1     2   511   502 -5.615451045E+01  4.243734317E+01  2.571466329E+01  7.493664689E+01  1.752011592E-06  0.00000E+00  9.000E+00
#rwgt            2          11   1.7203267380037007E-002           6       44396           0
</event>
<event>
      5   9999  3.19816E-02  7.85838E+01 -1.00000E+00  1.28726E-01
      -2    -1     0     0     0   501  0.000000000E+00  0.000000000E+00  1.039763553E+03  1.039763553E+03  0.000000000E+00  0.00000E+00  9.000E+00
      21    -1     0     0   501   502  0.000000000E+00  0.000000000E+00 -3.017087976E+02  3.017087976E+02  0.000000000E+00  0.00000E+00  9.000E+00
      25     1     1     2     0     0  1.322865905E+02  1.134822421E+02 -2.045217188E+02  2.963648001E+02  1.250000000E+02  0.00000E+00  9.000E+00
      25     1     1     2     0     0 -8.715246384E+01 -1.778120625E+02  2.300790436E+02  3.282895792E+02  1.250000000E+02  0.00000E+00  9.000E+00
      -2     1     1     2     0   502 -4.513412661E+01  6.432982041E+01  7.124974307E+02  7.168179713E+02  7.629394531E-06  0.00000E+00  9.000E+00
#rwgt            1           1   2.9134198445278311E-002           6       44416           0
</event>
<event>
      5   9999  3.19816E-02  2.23299E+01 -1.00000E+00  1.62515E-01
      21    -1     0     0   511   501  0.000000000E+00  0.000000000E+00  1.447630455E+03  1.447630455E+03  0.000000000E+00  0.00000E+00  9.000E+00
      21    -1     0     0   501   502  0.000000000E+00  0.000000000E+00 -7.657135311E+01  7.657135311E+01  0.000000000E+00  0.00000E+00  9.000E+00
      25     1     1     2     0     0 -9.460920300E+01 -1.939574489E+02  1.980862241E+02  3.184863348E+02  1.250000000E+02  0.00000E+00  9.000E+00
      25     1     1     2     0     0  7.792943041E+01  2.088035815E+02  1.105302989E+03  1.134456535E+03  1.250000000E+02  0.00000E+00  9.000E+00
      21     1     1     2   511   502  1.667977259E+01 -1.484613265E+01  6.766988813E+01  7.125893788E+01  1.348699152E-06  0.00000E+00  9.000E+00
#rwgt            1           1   3.2206081952599795E-002           6       44518           0
</event>
<event>
      5   9999  3.19816E-02  1.85623E+02 -1.00000E+00  1.12840E-01
      21    -1     0     0   502   501  0.000000000E+00  0.000000000E+00  7.561344944E+01  7.561344944E+01  0.000000000E+00  0.00000E+00  9.000E+00
       2    -1     0     0   501     0  0.000000000E+00  0.000000000E+00 -2.042783801E+03  2.042783801E+03  0.000000000E+00  0.00000E+00  9.000E+00
      25     1     1     2     0     0 -7.297624816E+01 -9.383003103E+01 -1.079486574E+02  2.034883784E+02  1.250000000E+02  0.00000E+00  9.000E+00
      25     1     1     2     0     0 -4.423011969E+01  2.377695584E+02 -1.057801270E+03  1.092272491E+03  1.250000000E+02  0.00000E+00  9.000E+00
       2     1     1     2   502     0  1.172063678E+02 -1.439395273E+02 -8.014204243E+02  8.226363818E+02  1.078959322E-05  0.00000E+00  9.000E+00
#rwgt            1           1   3.0291792209099777E-002           6       44690           0
</event>
<event>
      5   9999  3.19816E-02  1.14029E+02 -1.00000E+00  1.21317E-01
      21    -1     0     0   502   501  0.000000000E+00  0.000000000E+00  2.587171235E+02  2.587171235E+02  0.000000000E+00  0.00000E+00  9.000E+00
      21    -1     0     0   501   511  0.000000000E+00  0.000000000E+00 -1.664992040E+03  1.664992040E+03  0.000000000E+00  0.00000E+00  9.000E+00
      25     1     1     2     0     0 -1.374137979E+02  4.405634790E+02 -6.901578918E+01  4.830806455E+02  1.250000000E+02  0.00000E+00  9.000E+00
      25     1     1     2     0     0  1.953848564E+02 -3.423695235E+02 -9.319063298E+02  1.019542319E+03  1.250000000E+02  0.00000E+00  9.000E+00
      21     1     1     2   502   511 -5.797105841E+01 -9.819395545E+01 -4.053527971E+02  4.210861986E+02  5.394796609E-06  0.00000E+00  9.000E+00
#rwgt            1           1   2.6307688911645973E-002           6       44770           0
</event>
<event>
      5   9999  3.19816E-02  1.19931E+02 -1.00000E+00  1.20379E-01
      21    -1     0     0   502   501  0.000000000E+00  0.000000000E+00  1.764455621E+03  1.764455621E+03  0.000000000E+00  0.00000E+00  9.000E+00
      21    -1     0     0   512   502  0.000000000E+00  0.000000000E+00 -1.065818320E+02  1.065818320E+02  0.000000000E+00  0.00000E+00  9.000E+00
      25     1     1     2     0     0 -2.278572605E+02  8.040527523E+01  2.514487144E+02  3.704529598E+02  1.250000000E+02  0.00000E+00  9.000E+00
      25     1     1     2     0     0  3.419529238E+02 -1.173582013E+02  1.223025159E+03  1.281452414E+03  1.250000000E+02  0.00000E+00  9.000E+00
      21     1     1     2   512   501 -1.140956633E+02  3.695292611E+01  1.833999157E+02  2.191320794E+02  0.000000000E+00  0.00000E+00  9.000E+00
#rwgt            1           1   3.1862108615367875E-002           6       44839           0
</event>
<event>
      5   9999  3.19816E-02  2.28097E+02 -1.00000E+00  1.09609E-01
      21    -1     0     0   511   501  0.000000000E+00  0.000000000E+00  2.536174170E+02  2.536174170E+02  0.000000000E+00  0.00000E+00  9.000E+00
      21    -1     0     0   501   502  0.000000000E+00  0.000000000E+00 -3.663135840E+03  3.663135840E+03  0.000000000E+00  0.00000E+00  9.000E+00
      25     1     1     2     0     0 -8.912223804E+02  6.790502575E+01 -1.241311590E+03  1.534720785E+03  1.250000000E+02  0.00000E+00  9.000E+00
      25     1     1     2     0     0  6.634243136E+02 -7.957167518E+01 -1.954985576E+03  2.069796384E+03  1.250000000E+02  0.00000E+00  9.000E+00
      21     1     1     2   511   502  2.277980668E+02  1.166664943E+01 -2.132212570E+02  3.122360876E+02  3.814697266E-06  0.00000E+00  9.000E+00
#rwgt            1           1   4.9877462099146445E-002           6       44900           0
</event>
<event>
      5   9999  3.19816E-02  2.58320E+01 -1.00000E+00  1.57693E-01
      21    -1     0     0   502   512  0.000000000E+00  0.000000000E+00  7.627857907E+02  7.627857907E+02  0.000000000E+00  0.00000E+00  9.000E+00
      21    -1     0     0   501   502  0.000000000E+00  0.000000000E+00 -6.043523746E+02  6.043523746E+02  0.000000000E+00  0.00000E+00  9.000E+00
      25     1     1     2     0     0  3.432237467E+02  2.888136223E+02  1.935046149E+02  5.042666802E+02  1.250000000E+02  0.00000E+00  9.000E+00
      25     1     1     2     0     0 -3.260548409E+02 -2.695128423E+02 -3.399488793E+02  5.569014024E+02  1.250000000E+02  0.00000E+00  9.000E+00
      21     1     1     2   501   512 -1.716890585E+01 -1.930078000E+01  3.048776806E+02  3.059700828E+02  7.629394531E-06  0.00000E+00  9.000E+00
#rwgt            2          11   1.9653131862224361E-003           6       45021           0
</event>
<event>
      5   9999  3.19816E-02  2.06067E+01 -1.00000E+00  1.65305E-01
      21    -1     0     0   511   501  0.000000000E+00  0.000000000E+00  2.194495498E+02  2.194495498E+02  0.000000000E+00  0.00000E+00  9.000E+00
      21    -1     0     0   501   502  0.000000000E+00  0.000000000E+00 -6.286348262E+02  6.286348262E+02  0.000000000E+00  0.00000E+00  9.000E+00
      25     1     1     2     0     0  4.105794175E-01  1.599572780E+01 -5.952689081E+02  6.084620816E+02  1.250000000E+02  0.00000E+00  9.000E+00
      25     1     1     2     0     0  8.888318548E-03 -3.659815719E+01  1.637762264E+02  2.092536201E+02  1.250000000E+02  0.00000E+00  9.000E+00
      21     1     1     2   511   502 -4.194677361E-01  2.060242939E+01  2.230740521E+01  3.036867428E+01  6.307962682E-07  0.00000E+00  9.000E+00
#rwgt            1           1   2.8518383374159833E-002           6       45071           0
</event>
<event>
      5   9999  3.19816E-02  5.04521E+00 -1.00000E+00  2.37835E-01
      21    -1     0     0   502   512  0.000000000E+00  0.000000000E+00  1.232672587E+02  1.232672587E+02  0.000000000E+00  0.00000E+00  9.000E+00
      21    -1     0     0   501   502  0.000000000E+00  0.000000000E+00 -5.273617955E+02  5.273617955E+02  0.000000000E+00  0.00000E+00  9.000E+00
      25     1     1     2     0     0 -4.024832207E+01 -1.750824850E+02 -2.515046711E+02  3.333967659E+02  1.250000000E+02  0.00000E+00  9.000E+00
      25     1     1     2     0     0  3.851790345E+01  1.703433093E+02 -1.855910432E+02  2.838476831E+02  1.250000000E+02  0.00000E+00  9.000E+00
      21     1     1     2   501   512  1.730418615E+00  4.739175702E+00  3.300117758E+01  3.338460509E+01  1.066240300E-06  0.00000E+00  9.000E+00
#rwgt            1           1   2.5695845586258443E-002           6       45276           0
</event>
<event>
      5   9999  3.19816E-02  2.28358E+01 -1.00000E+00  1.61754E-01
      21    -1     0     0   502   501  0.000000000E+00  0.000000000E+00  3.974197743E+02  3.974197743E+02  0.000000000E+00  0.00000E+00  9.000E+00
      21    -1     0     0   501   511  0.000000000E+00  0.000000000E+00 -6.045376093E+02  6.045376093E+02  0.000000000E+00  0.00000E+00  9.000E+00
      25     1     1     2     0     0  2.848030466E+02  1.653026947E+02 -1.676848693E+01  3.526243588E+02  1.250000000E+02  0.00000E+00  9.000E+00
      25     1     1     2     0     0 -3.072012141E+02 -1.608532420E+02  8.068809103E+01  3.773352878E+02  1.250000000E+02  0.00000E+00  9.000E+00
      21     1     1     2   502   511  2.239816743E+01 -4.449452703E+00 -2.710374392E+02  2.719977371E+02  5.394796609E-06  0.00000E+00  9.000E+00
#rwgt            1           1   2.8334731874438031E-002           6       45548           0
</event>
<event>
      5   9999  3.19816E-02  8.48056E+01 -1.00000E+00  1.27135E-01
      21    -1     0     0   502   501  0.000000000E+00  0.000000000E+00  2.692973599E+02  2.692973599E+02  0.000000000E+00  0.00000E+00  9.000E+00
      21    -1     0     0   512   502  0.000000000E+00  0.000000000E+00 -4.377490154E+02  4.377490154E+02  0.000000000E+00  0.00000E+00  9.000E+00
      25     1     1     2     0     0  1.208110216E+02  6.519231048E+01 -1.316988147E+02  2.276289043E+02  1.250000000E+02  0.00000E+00  9.000E+00
      25     1     1     2     0     0 -9.177653240E+01 -1.448728285E+02  1.595996559E+02  2.655336486E+02  1.250000000E+02  0.00000E+00  9.000E+00
      21     1     1     2   512   501 -2.903448917E+01  7.968051807E+01 -1.963524967E+02  2.138838224E+02  2.697398305E-06  0.00000E+00  9.000E+00
#rwgt            2          11   2.0215335399337967E-003           6       45899           0
</event>
<event>
      5   9999  3.19816E-02  3.93030E+01 -1.00000E+00  1.45315E-01
      21    -1     0     0   502   511  0.000000000E+00  0.000000000E+00  3.433675856E+02  3.433675856E+02  0.000000000E+00  0.00000E+00  9.000E+00
      21    -1     0     0   501   502  0.000000000E+00  0.000000000E+00 -7.364119854E+02  7.364119854E+02  0.000000000E+00  0.00000E+00  9.000E+00
      25     1     1     2     0     0 -3.083934733E+02 -2.363918789E+02  6.901851002E+00  4.082404810E+02  1.250000000E+02  0.00000E+00  9.000E+00
      25     1     1     2     0     0  3.371055845E+02  2.632310092E+02 -4.321460110E+02  6.207301460E+02  1.250000000E+02  0.00000E+00  9.000E+00
      21     1     1     2   501   511 -2.871211117E+01 -2.683913031E+01  3.219976021E+01  5.080894410E+01  4.768371582E-07  0.00000E+00  9.000E+00
#rwgt            1           1   2.8336158386368996E-002           6       45919           0
</event>
<event>
      5   9999  3.19816E-02  4.90625E+01 -1.00000E+00  1.39546E-01
      21    -1     0     0   512   501  0.000000000E+00  0.000000000E+00  2.691683096E+02  2.691683096E+02  0.000000000E+00  0.00000E+00  9.000E+00
      21    -1     0     0   501   502  0.000000000E+00  0.000000000E+00 -9.326025438E+02  9.326025438E+02  0.000000000E+00  0.00000E+00  9.000E+00
      25     1     1     2     0     0  6.143629906E+01  2.990782908E+02 -3.810126933E+02  5.040019002E+02  1.250000000E+02  0.00000E+00  9.000E+00
      25     1     1     2     0     0 -1.033483335E+02 -2.735731474E+02 -4.342230325E+02  5.382358098E+02  1.250000000E+02  0.00000E+00  9.000E+00
      21     1     1     2   512   502  4.191203441E+01 -2.550514343E+01  1.518014917E+02  1.595331434E+02  2.697398305E-06  0.00000E+00  9.000E+00
#rwgt            1           1   2.8278061013955191E-002           6       46051           0
</event>
<event>
      5   9999  3.19816E-02  7.16567E+01 -1.00000E+00  1.30708E-01
      21    -1     0     0   511   501  0.000000000E+00  0.000000000E+00  1.006374976E+03  1.006374976E+03  0.000000000E+00  0.00000E+00  9.000E+00
      21    -1     0     0   501   502  0.000000000E+00  0.000000000E+00 -4.526239774E+02  4.526239774E+02  0.000000000E+00  0.00000E+00  9.000E+00
      25     1     1     2     0     0 -3.754080956E+02  2.748031505E+02 -2.300471095E+02  5.338489321E+02  1.250000000E+02  0.00000E+00  9.000E+00
      25     1     1     2     0     0  3.396857489E+02 -2.126856028E+02  6.668089444E+02  7.879598607E+02  1.250000000E+02  0.00000E+00  9.000E+00
      21     1     1     2   511   502  3.572234665E+01 -6.211754773E+01  1.169891640E+02  1.371901610E+02  1.348699152E-06  0.00000E+00  9.000E+00
#rwgt            1           1   2.3542299455283817E-002           6       46132           0
</event>
<event>
      5   9999  3.19816E-02  2.44287E+01 -1.00000E+00  1.59507E-01
      -2    -1     0     0     0   501  0.000000000E+00  0.000000000E+00  8.440532897E+02  8.440532897E+02  0.000000000E+00  0.00000E+00  9.000E+00
      21    -1     0     0   501   502  0.000000000E+00  0.000000000E+00 -2.453835645E+02  2.453835645E+02  0.000000000E+00  0.00000E+00  9.000E+00
      25     1     1     2     0     0  2.964425713E+02  2.310594984E+02  2.803741297E+02  4.852848056E+02  1.250000000E+02  0.00000E+00  9.000E+00
      25     1     1     2     0     0 -3.056546835E+02 -2.084343590E+02  1.260276813E+02  4.103384506E+02  1.250000000E+02  0.00000E+00  9.000E+00
      -2     1     1     2     0   502  9.212112171E+00 -2.262513941E+01  1.922679142E+02  1.938135980E+02  4.672030912E-06  0.00000E+00  9.000E+00
#rwgt            1           1   2.7801946131035909E-002           6       46258           0
</event>
<event>
      5   9999  3.19816E-02  9.42856E+01 -1.00000E+00  1.24988E-01
      -1    -1     0     0     0   501  0.000000000E+00  0.000000000E+00  8.919335918E+02  8.919335918E+02  0.000000000E+00  0.00000E+00  9.000E+00
      21    -1     0     0   501   502  0.000000000E+00  0.000000000E+00 -1.740448953E+03  1.740448953E+03  0.000000000E+00  0.00000E+00  9.000E+00
      25     1     1     2     0     0  2.406253630E+02  3.587753779E+02 -1.004460320E+03  1.100538901E+03  1.250000000E+02  0.00000E+00  9.000E+00
      25     1     1     2     0     0 -2.697651963E+02 -2.691057026E+02 -6.264371380E+02  7.438007988E+02  1.250000000E+02  0.00000E+00  9.000E+00
      -1     1     1     2     0   502  2.913983326E+01 -8.966967522E+01  7.823820970E+02  7.880428454E+02  2.157918644E-05  0.00000E+00  9.000E+00
#rwgt            1           1   3.1521589775282799E-002           6       46447           0
</event>
<event>
      5   9999  3.19816E-02  8.08424E+01 -1.00000E+00  1.28130E-01
      21    -1     0     0   502   501  0.000000000E+00  0.000000000E+00  1.151888288E+02  1.151888288E+02  0.000000000E+00  0.00000E+00  9.000E+00
      21    -1     0     0   511   502  0.000000000E+00  0.000000000E+00 -1.183830932E+03  1.183830932E+03  0.000000000E+00  0.00000E+00  9.000E+00
      25     1     1     2     0     0  6.470538797E+01 -2.021204939E+01 -9.483397665E+02  9.589414095E+02  1.250000000E+02  0.00000E+00  9.000E+00
      25     1     1     2     0     0 -7.895497771E+01 -5.936464311E+01  3.669281710E+01  1.634913214E+02  1.250000000E+02  0.00000E+00  9.000E+00
      21     1     1     2   511   501  1.424958975E+01  7.957669250E+01 -1.569951538E+02  1.765870299E+02  3.303624740E-06  0.00000E+00  9.000E+00
#rwgt            1           1   3.1092254201825566E-002           6       46536           0
</event>
<event>
      5   9999  3.19816E-02  8.72299E+01 -1.00000E+00  1.26557E-01
      21    -1     0     0   502   501  0.000000000E+00  0.000000000E+00  1.116869585E+02  1.116869585E+02  0.000000000E+00  0.00000E+00  9.000E+00
      21    -1     0     0   512   502  0.000000000E+00  0.000000000E+00 -3.259789798E+03  3.259789798E+03  0.000000000E+00  0.00000E+00  9.000E+00
      25     1     1     2     0     0  2.050153126E+02  3.033739459E+02 -3.089344265E+02  4.951085833E+02  1.250000000E+02  0.00000E+00  9.000E+00
      25     1     1     2     0     0 -2.543777531E+02 -2.314545544E+02 -2.051054899E+03  2.083441972E+03  1.250000000E+02  0.00000E+00  9.000E+00
      21     1     1     2   512   501  4.936244058E+01 -7.191939150E+01 -7.881135141E+02  7.929262012E+02  1.525878906E-05  0.00000E+00  9.000E+00
#rwgt            1           1   2.4121806298852588E-002           6       46614           0
</event>
<event>
      5   9999  3.19816E-02  3.04345E+01 -1.00000E+00  1.52607E-01
      21    -1     0     0   502   501  0.000000000E+00  0.000000000E+00  6.088781239E+02  6.088781239E+02  0.000000000E+00  0.00000E+00  9.000E+00
      21    -1     0     0   501   511  0.000000000E+00  0.000000000E+00 -1.645105369E+02  1.645105369E+02  0.000000000E+00  0.00000E+00  9.000E+00
      25     1     1     2     0     0 -3.759479483E+01  1.673464404E+02 -5.323037982E+01  2.188073880E+02  1.250000000E+02  0.00000E+00  9.000E+00
      25     1     1     2     0     0  1.678483807E+01 -1.451382614E+02  4.848488003E+02  5.215843219E+02  1.250000000E+02  0.00000E+00  9.000E+00
      21     1     1     2   502   511  2.080995675E+01 -2.220817907E+01  1.274916654E+01  3.299695084E+01  5.331201500E-07  0.00000E+00  9.000E+00
#rwgt            1           1   3.0901133597799512E-002           6       46736           0
</event>
<event>
      5   9999  3.19816E-02  8.91522E+01 -1.00000E+00  1.26113E-01
      21    -1     0     0   512   501  0.000000000E+00  0.000000000E+00  1.052571113E+03  1.052571113E+03  0.000000000E+00  0.00000E+00  9.000E+00
      21    -1     0     0   501   502  0.000000000E+00  0.000000000E+00 -1.234008080E+02  1.234008080E+02  0.000000000E+00  0.00000E+00  9.000E+00
      25     1     1     2     0     0 -2.324846362E+02  5.781221520E+01  5.239650079E+02  5.895385380E+02  1.250000000E+02  0.00000E+00  9.000E+00
      25     1     1     2     0     0  2.488896843E+02  2.981762778E+01  1.535077274E+02  3.194131936E+02  1.250000000E+02  0.00000E+00  9.000E+00
      21     1     1     2   512   502 -1.640504808E+01 -8.762984298E+01  2.516975700E+02  2.670201898E+02  3.814697266E-06  0.00000E+00  9.000E+00
#rwgt            1           1   2.7814518654515917E-002           6       46898           0
</event>
<event>
      5   9999  3.19816E-02  3.11767E+02 -1.00000E+00  1.05052E-01
       1    -1     0     0   502     0  0.000000000E+00  0.000000000E+00  2.276679564E+03  2.276679564E+03  0.000000000E+00  0.00000E+00  9.000E+00
      21    -1     0     0   501   502  0.000000000E+00  0.000000000E+00 -5.742196138E+02  5.742196138E+02  0.000000000E+00  0.00000E+00  9.000E+00
      25     1     1     2     0     0 -8.255493357E+02 -1.020610988E+02 -5.253805662E+01  8.428128031E+02  1.250000000E+02  0.00000E+00  9.000E+00
      25     1     1     2     0     0  6.349905604E+02 -1.446900071E+02  1.235209930E+03  1.401968895E+03  1.250000000E+02  0.00000E+00  9.000E+00
       1     1     1     2   501     0  1.905587754E+02  2.467511059E+02  5.197880764E+02  6.061174799E+02  0.000000000E+00  0.00000E+00  9.000E+00
#rwgt            2          17   6.0788333271907899E-004           6       47088           0
</event>
<event>
      5   9999  3.19816E-02  1.34269E+02 -1.00000E+00  1.18333E-01
      21    -1     0     0   502   511  0.000000000E+00  0.000000000E+00  2.289291757E+03  2.289291757E+03  0.000000000E+00  0.00000E+00  9.000E+00
      21    -1     0     0   501   502  0.000000000E+00  0.000000000E+00 -3.165347854E+02  3.165347854E+02  0.000000000E+00  0.00000E+00  9.000E+00
      25     1     1     2     0     0  2.948831786E+02 -1.154157414E+02  4.080277544E+01  3.428800794E+02  1.250000000E+02  0.00000E+00  9.000E+00
      25     1     1     2     0     0 -3.818738490E+02  1.313774304E+01  8.474168196E+01  4.108605475E+02  1.250000000E+02  0.00000E+00  9.000E+00
      21     1     1     2   501   511  8.699067037E+01  1.022779983E+02  1.847212514E+03  1.852085916E+03  0.000000000E+00  0.00000E+00  9.000E+00
#rwgt            1           1   2.9656790552395340E-002           6       47122           0
</event>
<event>
      5   9999  3.19816E-02  6.24345E+02 -1.00000E+00  9.61870E-02
      21    -1     0     0   502   501  0.000000000E+00  0.000000000E+00  2.202961181E+03  2.202961181E+03  0.000000000E+00  0.00000E+00  9.000E+00
      21    -1     0     0   512   502  0.000000000E+00  0.000000000E+00 -7.293005788E+02  7.293005788E+02  0.000000000E+00  0.00000E+00  9.000E+00
      25     1     1     2     0     0  6.142234040E+02  2.178288026E+02  1.529851893E+02  6.809913696E+02  1.250000000E+02  0.00000E+00  9.000E+00
      25     1     1     2     0     0 -8.873496732E+02  3.436054226E+02  1.313651169E+03  1.626886143E+03  1.250000000E+02  0.00000E+00  9.000E+00
      21     1     1     2   512   501  2.731262692E+02 -5.614342252E+02  7.024243972E+00  6.243842472E+02  1.224639764E-05  0.00000E+00  9.000E+00
#rwgt            2          11   2.1405491234626367E-003           6       47215           0
</event>
<event>
      5   9999  3.19816E-02  1.73568E+02 -1.00000E+00  1.13936E-01
      21    -1     0     0   502   501  0.000000000E+00  0.000000000E+00  3.054683591E+03  3.054683591E+03  0.000000000E+00  0.00000E+00  9.000E+00
      21    -1     0     0   511   502  0.000000000E+00  0.000000000E+00 -1.579349261E+03  1.579349261E+03  0.000000000E+00  0.00000E+00  9.000E+00
      25     1     1     2     0     0 -1.470012804E+03  1.314745053E+03  1.354029617E+03  2.395519443E+03  1.250000000E+02  0.00000E+00  9.000E+00
      25     1     1     2     0     0  1.349891616E+03 -1.440031374E+03  2.870974424E+02  1.998486346E+03  1.250000000E+02  0.00000E+00  9.000E+00
      21     1     1     2   511   501  1.201211877E+02  1.252863208E+02 -1.657927292E+02  2.400270630E+02  3.814697266E-06  0.00000E+00  9.000E+00
#rwgt            1           1   1.2742138848569898E-002           6       47235           0
</event>
<event>
      5   9999  3.19816E-02  2.79739E+01 -1.00000E+00  1.55179E-01
      21    -1     0     0   502   501  0.000000000E+00  0.000000000E+00  3.616806711E+02  3.616806711E+02  0.000000000E+00  0.00000E+00  9.000E+00
      21    -1     0     0   501   512  0.000000000E+00  0.000000000E+00 -3.287739845E+02  3.287739845E+02  0.000000000E+00  0.00000E+00  9.000E+00
      25     1     1     2     0     0  3.297904545E+01 -1.731408680E+02  2.761088963E+02  3.506087566E+02  1.250000000E+02  0.00000E+00  9.000E+00
      25     1     1     2     0     0 -2.665377979E+01  1.458914341E+02 -2.441993270E+02  3.118542060E+02  1.250000000E+02  0.00000E+00  9.000E+00
      21     1     1     2   502   512 -6.325265659E+00  2.724943394E+01  9.971173315E-01  2.799169303E+01  6.331678563E-07  0.00000E+00  9.000E+00
#rwgt            1           1   2.8364218424153025E-002           6       47382           0
</event>
<event>
      5   9999  3.19816E-02  5.85773E+01 -1.00000E+00  1.35263E-01
      21    -1     0     0   502   501  0.000000000E+00  0.000000000E+00  3.858661030E+02  3.858661030E+02  0.000000000E+00  0.00000E+00  9.000E+00
      21    -1     0     0   501   511  0.000000000E+00  0.000000000E+00 -7.752912912E+02  7.752912912E+02  0.000000000E+00  0.00000E+00  9.000E+00
      25     1     1     2     0     0  3.000062898E+02 -3.323456413E+02 -3.354816621E+02  5.732628933E+02  1.250000000E+02  0.00000E+00  9.000E+00
      25     1     1     2     0     0 -3.470320989E+02  3.672723896E+02 -2.157954220E+01  5.209711724E+02  1.250000000E+02  0.00000E+00  9.000E+00
      21     1     1     2   502   511  4.702580906E+01 -3.492674823E+01 -3.236398386E+01  6.692332860E+01  9.536743164E-07  0.00000E+00  9.000E+00
#rwgt            1           1   2.7669570555543289E-002           6       47505           0
</event>
<event>
      5   9999  3.19816E-02  1.11794E+02 -1.00000E+00  1.21689E-01
      21    -1     0     0   502   501  0.000000000E+00  0.000000000E+00  4.309395215E+02  4.309395215E+02  0.000000000E+00  0.00000E+00  9.000E+00
       2    -1     0     0   501     0  0.000000000E+00  0.000000000E+00 -2.494178582E+03  2.494178582E+03  0.000000000E+00  0.00000E+00  9.000E+00
      25     1     1     2     0     0 -8.433892288E+01 -1.608054034E+02  3.832918156E+02  4.421640505E+02  1.250000000E+02  0.00000E+00  9.000E+00
      25     1     1     2     0     0  7.918446008E+01  4.913009618E+01 -3.466439789E+02  3.800934006E+02  1.250000000E+02  0.00000E+00  9.000E+00
       2     1     1     2   502     0  5.154462801E+00  1.116753072E+02 -2.099886897E+03  2.102860652E+03  4.315837288E-05  0.00000E+00  9.000E+00
#rwgt            1           1   2.8779874246877352E-002           6       47603           0
</event>
<event>
      5   9999  3.19816E-02  1.87690E+01 -1.00000E+00  1.68678E-01
      21    -1     0     0   502   511  0.000000000E+00  0.000000000E+00  1.379697262E+02  1.379697262E+02  0.000000000E+00  0.00000E+00  9.000E+00
      21    -1     0     0   501   502  0.000000000E+00  0.000000000E+00 -7.032235891E+02  7.032235891E+02  0.000000000E+00  0.00000E+00  9.000E+00
      25     1     1     2     0     0 -9.680969518E+01  1.448855623E+01 -5.784739421E+02  5.998659326E+02  1.250000000E+02  0.00000E+00  9.000E+00
      25     1     1     2     0     0  7.911301167E+01 -2.074181563E+01 -6.352146639E+01  1.623239607E+02  1.250000000E+02  0.00000E+00  9.000E+00
      21     1     1     2   501   511  1.769668351E+01  6.253259403E+00  7.674154563E+01  7.900342199E+01  0.000000000E+00  0.00000E+00  9.000E+00
#rwgt            1           1   2.7055878606861528E-002           6       47680           0
</event>
<event>
      5   9999  3.19816E-02  9.92332E+01 -1.00000E+00  1.23978E-01
      21    -1     0     0   502   512  0.000000000E+00  0.000000000E+00  1.831784708E+03  1.831784708E+03  0.000000000E+00  0.00000E+00  9.000E+00
      21    -1     0     0   501   502  0.000000000E+00  0.000000000E+00 -1.626927868E+02  1.626927868E+02  0.000000000E+00  0.00000E+00  9.000E+00
      25     1     1     2     0     0  1.061629133E+02 -1.630218232E+02  2.660495918E+02  3.524968997E+02  1.250000000E+02  0.00000E+00  9.000E+00
      25     1     1     2     0     0 -9.417899713E+01  6.451487091E+01 -5.696036753E+01  1.786094497E+02  1.250000000E+02  0.00000E+00  9.000E+00
      21     1     1     2   501   512 -1.198391618E+01  9.850695227E+01  1.460002697E+03  1.463371146E+03  2.157918644E-05  0.00000E+00  9.000E+00
#rwgt            1           1   2.6970329012257186E-002           6       47791           0
</event>
<event>
      5   9999  3.19816E-02  2.33977E+01 -1.00000E+00  1.60936E-01
       2    -1     0     0   502     0  0.000000000E+00  0.000000000E+00  5.616774757E+02  5.616774757E+02  0.000000000E+00  0.00000E+00  9.000E+00
      21    -1     0     0   501   502  0.000000000E+00  0.000000000E+00 -9.178083828E+02  9.178083828E+02  0.000000000E+00  0.00000E+00  9.000E+00
      25     1     1     2     0     0  1.885808499E+02  8.388444846E+01  3.216948453E+01  2.434321535E+02  1.250000000E+02  0.00000E+00  9.000E+00
      25     1     1     2     0     0 -2.113066955E+02 -7.831776210E+01 -7.913875320E+02  8.322880615E+02  1.250000000E+02  0.00000E+00  9.000E+00
       2     1     1     2   501     0  2.272584556E+01 -5.566686356E+00  4.030871404E+02  4.037656435E+02  5.394796609E-06  0.00000E+00  9.000E+00
#rwgt            1           1   2.9169569518964510E-002           6       47836           0
</event>
<event>
      5   9999  3.19816E-02  3.46962E+01 -1.00000E+00  1.48779E-01
      21    -1     0     0   502   501  0.000000000E+00  0.000000000E+00  1.152386731E+02  1.152386731E+02  0.000000000E+00  0.00000E+00  9.000E+00
      21    -1     0     0   511   502  0.000000000E+00  0.000000000E+00 -3.484964844E+02  3.484964844E+02  0.000000000E+00  0.00000E+00  9.000E+00
      25     1     1     2     0     0 -4.344777531E+00 -2.101560051E+00  5.140184648E+01  1.352421660E+02  1.250000000E+02  0.00000E+00  9.000E+00
      25     1     1     2     0     0 -6.880553356E+00 -3.072857467E+01 -2.153102326E+02  2.509483684E+02  1.250000000E+02  0.00000E+00  9.000E+00
      21     1     1     2   511   501  1.122533089E+01  3.283013472E+01 -6.934942522E+01  7.754462314E+01  9.536743164E-07  0.00000E+00  9.000E+00
#rwgt            1           1   2.7557000078627998E-002           6       48086           0
</event>
<event>
      5   9999  3.19816E-02  1.18099E+02 -1.00000E+00  1.20663E-01
       2    -1     0     0   502     0  0.000000000E+00  0.000000000E+00  3.086024811E+03  3.086024811E+03  0.000000000E+00  0.00000E+00  9.000E+00
      21    -1     0     0   501   502  0.000000000E+00  0.000000000E+00 -2.315803540E+02  2.315803540E+02  0.000000000E+00  0.00000E+00  9.000E+00
      25     1     1     2     0     0  3.586414522E+02  4.831365666E+02  4.315567581E+02  7.509399901E+02  1.250000000E+02  0.00000E+00  9.000E+00
      25     1     1     2     0     0 -4.488298731E+02 -5.593817964E+02  2.042071584E+03  2.167957011E+03  1.250000000E+02  0.00000E+00  9.000E+00
       2     1     1     2   501     0  9.018842083E+01  7.624522982E+01  3.808161153E+02  3.987081639E+02  5.394796609E-06  0.00000E+00  9.000E+00
#rwgt            1           1   3.1125505311361538E-002           6       48265           0
</event>
<event>
      5   9999  3.19816E-02  6.84473E+01 -1.00000E+00  1.31716E-01
      21    -1     0     0   502   511  0.000000000E+00  0.000000000E+00  2.897242242E+02  2.897242242E+02  0.000000000E+00  0.00000E+00  9.000E+00
      21    -1     0     0   501   502  0.000000000E+00  0.000000000E+00 -1.718512983E+03  1.718512983E+03  0.000000000E+00  0.00000E+00  9.000E+00
      25     1     1     2     0     0  2.816757553E+02 -8.913536741E+01 -1.496059227E+03  1.530066847E+03  1.250000000E+02  0.00000E+00  9.000E+00
      25     1     1     2     0     0 -3.500592213E+02  9.209191542E+01  1.088100740E+02  3.981042721E+02  1.250000000E+02  0.00000E+00  9.000E+00
      21     1     1     2   501   511  6.838346593E+01 -2.956548011E+00 -4.153960515E+01  8.006608761E+01  1.966049969E-06  0.00000E+00  9.000E+00
#rwgt            1           1   2.2855711396603764E-002           6       48360           0
</event>
<event>
      5   9999  3.19816E-02  1.80212E+01 -1.00000E+00  1.70191E-01
      21    -1     0     0   512   501  0.000000000E+00  0.000000000E+00  5.347080759E+02  5.347080759E+02  0.000000000E+00  0.00000E+00  9.000E+00
      21    -1     0     0   501   502  0.000000000E+00  0.000000000E+00 -1.974560046E+03  1.974560046E+03  0.000000000E+00  0.00000E+00  9.000E+00
      25     1     1     2     0     0  8.124453163E+02 -5.720977876E+02 -7.672565145E+02  1.261614374E+03  1.250000000E+02  0.00000E+00  9.000E+00
      25     1     1     2     0     0 -8.304645790E+02  5.718354803E+02 -6.853639537E+02  1.225567616E+03  1.250000000E+02  0.00000E+00  9.000E+00
      21     1     1     2   512   502  1.801926267E+01  2.623073850E-01  1.276849822E+01  2.208613092E+01  1.685873940E-07  0.00000E+00  9.000E+00
#rwgt            1           1   3.0141057369475938E-002           6       48454           0
</event>
<event>
      5   9999  3.19816E-02  1.84680E+01 -1.00000E+00  1.69276E-01
      21    -1     0     0   511   501  0.000000000E+00  0.000000000E+00  1.737311530E+02  1.737311530E+02  0.000000000E+00  0.00000E+00  9.000E+00
      21    -1     0     0   501   502  0.000000000E+00  0.000000000E+00 -7.093178034E+02  7.093178034E+02  0.000000000E+00  0.00000E+00  9.000E+00
      25     1     1     2     0     0 -1.186074596E+02 -1.277277348E+02  1.366903718E+00  2.144970213E+02  1.250000000E+02  0.00000E+00  9.000E+00
      25     1     1     2     0     0  1.362787027E+02  1.223616565E+02 -5.804147524E+02  6.213296586E+02  1.250000000E+02  0.00000E+00  9.000E+00
      21     1     1     2   511   502 -1.767124313E+01  5.366078303E+00  4.346119838E+01  4.722227647E+01  9.536743164E-07  0.00000E+00  9.000E+00
#rwgt            1           1   2.8295755727729681E-002           6       48753           0
</event>
<event>
      5   9999  3.19816E-02  1.11745E+02 -1.00000E+00  1.21697E-01
      21    -1     0     0   502   501  0.000000000E+00  0.000000000E+00  2.576502392E+02  2.576502392E+02  0.000000000E+00  0.00000E+00  9.000E+00
      21    -1     0     0   501   512  0.000000000E+00  0.000000000E+00 -2.144460262E+02  2.144460262E+02  0.000000000E+00  0.00000E+00  9.000E+00
      25     1     1     2     0     0 -4.398062568E+00 -4.272998072E+01 -1.225496963E+01  1.327417737E+02  1.250000000E+02  0.00000E+00  9.000E+00
      25     1     1     2     0     0  1.128626466E+02  6.960812465E+01  1.122268564E+02  2.140166706E+02  1.250000000E+02  0.00000E+00  9.000E+00
      21     1     1     2   502   512 -1.084645840E+02 -2.687814393E+01 -5.676767380E+01  1.253378211E+02  1.348699152E-06  0.00000E+00  9.000E+00
#rwgt            2          11   4.3316025165225829E-003           6       48944           0
</event>
<event>
      5   9999  3.19816E-02  3.85577E+01 -1.00000E+00  1.45836E-01
      21    -1     0     0   502   501  0.000000000E+00  0.000000000E+00  1.845055898E+02  1.845055898E+02  0.000000000E+00  0.00000E+00  9.000E+00
      21    -1     0     0   511   502  0.000000000E+00  0.000000000E+00 -9.790720364E+02  9.790720364E+02  0.000000000E+00  0.00000E+00  9.000E+00
      25     1     1     2     0     0 -6.750951746E+01 -3.170688621E+02 -6.763414778E+02  7.603637241E+02  1.250000000E+02  0.00000E+00  9.000E+00
      25     1     1     2     0     0  9.203661954E+01  2.873179140E+02 -5.796418723E+01  3.316732881E+02  1.250000000E+02  0.00000E+00  9.000E+00
      21     1     1     2   511   501 -2.452710208E+01  2.975094812E+01 -6.026078165E+01  7.154061403E+01  0.000000000E+00  0.00000E+00  9.000E+00
#rwgt            1           1   3.0299611848003366E-002           6       48979           0
</event>
<event>
      5   9999  3.19816E-02  7.49204E+01 -1.00000E+00  1.29744E-01
      21    -1     0     0   502   501  0.000000000E+00  0.000000000E+00  7.982870788E+02  7.982870788E+02  0.000000000E+00  0.00000E+00  9.000E+00
      21    -1     0     0   501   512  0.000000000E+00  0.000000000E+00 -7.463642854E+02  7.463642854E+02  0.000000000E+00  0.00000E+00  9.000E+00
      25     1     1     2     0     0 -4.091484475E+01 -9.671708120E+01  2.492754438E+02  2.979789677E+02  1.250000000E+02  0.00000E+00  9.000E+00
      25     1     1     2     0     0  9.562745155E+01  1.478991246E+02  5.003433518E+02  5.449653477E+02  1.250000000E+02  0.00000E+00  9.000E+00
      21     1     1     2   502   512 -5.471260680E+01 -5.118204337E+01 -6.976960022E+02  7.017070488E+02  7.629394531E-06  0.00000E+00  9.000E+00
#rwgt            1           1   2.5005437695211342E-002           6       49111           0
</event>
<event>
      5   9999  3.19816E-02  7.32151E+01 -1.00000E+00  1.30241E-01
      21    -1     0     0   502   511  0.000000000E+00  0.000000000E+00  9.690588315E+01  9.690588315E+01  0.000000000E+00  0.00000E+00  9.000E+00
      21    -1     0     0   501   502  0.000000000E+00  0.000000000E+00 -1.825626934E+03  1.825626934E+03  0.000000000E+00  0.00000E+00  9.000E+00
      25     1     1     2     0     0 -2.000846351E+00  2.221599288E+02 -7.177891679E+02  7.617121024E+02  1.250000000E+02  0.00000E+00  9.000E+00
      25     1     1     2     0     0  7.312731225E+01 -2.047967967E+02 -1.048811053E+03  1.078387201E+03  1.250000000E+02  0.00000E+00  9.000E+00
      21     1     1     2   501   511 -7.112646590E+01 -1.736313213E+01  3.787917029E+01  8.243351291E+01  2.821006671E-06  0.00000E+00  9.000E+00
#rwgt            1           1   2.5865208439005017E-002           6       49179           0
</event>
<event>
      5   9999  3.19816E-02  2.96553E+02 -1.00000E+00  1.05755E-01
      21    -1     0     0   502   501  0.000000000E+00  0.000000000E+00  1.043261668E+03  1.043261668E+03  0.000000000E+00  0.00000E+00  9.000E+00
       1    -1     0     0   501     0  0.000000000E+00  0.000000000E+00 -1.864468069E+02  1.864468069E+02  0.000000000E+00  0.00000E+00  9.000E+00
      25     1     1     2     0     0  2.754986918E+02  2.328610163E+02  5.402602545E+02  6.615360344E+02  1.250000000E+02  0.00000E+00  9.000E+00
      25     1     1     2     0     0 -1.179538691E+01 -9.719845380E+01  4.248326574E+01  1.643669627E+02  1.250000000E+02  0.00000E+00  9.000E+00
       1     1     1     2   502     0 -2.637033049E+02 -1.356625625E+02  2.740713404E+02  4.038054774E+02  7.629394531E-06  0.00000E+00  9.000E+00
#rwgt            1           1   2.7527487824504617E-002           6       49243           0
</event>
<event>
      5   9999  3.19816E-02  1.30870E+02 -1.00000E+00  1.18791E-01
      21    -1     0     0   502   501  0.000000000E+00  0.000000000E+00  1.156530107E+03  1.156530107E+03  0.000000000E+00  0.00000E+00  9.000E+00
      21    -1     0     0   501   511  0.000000000E+00  0.000000000E+00 -4.314814715E+02  4.314814715E+02  0.000000000E+00  0.00000E+00  9.000E+00
      25     1     1     2     0     0  3.953976880E+01  1.051293527E+02  1.106427761E+03  1.119117047E+03  1.250000000E+02  0.00000E+00  9.000E+00
      25     1     1     2     0     0 -8.713032311E-01  1.989706037E+01 -1.103563284E+02  1.679290666E+02  1.250000000E+02  0.00000E+00  9.000E+00
      21     1     1     2   502   511 -3.866846557E+01 -1.250264131E+02 -2.710227975E+02  3.009654648E+02  3.814697266E-06  0.00000E+00  9.000E+00
#rwgt            1           1   1.8561931034039993E-002           6       49272           0
</event>
<event>
      5   9999  3.19816E-02  3.95592E+01 -1.00000E+00  1.45139E-01
      21    -1     0     0   502   501  0.000000000E+00  0.000000000E+00  8.125049018E+01  8.125049018E+01  0.000000000E+00  0.00000E+00  9.000E+00
      21    -1     0     0   501   512  0.000000000E+00  0.000000000E+00 -7.029000340E+02  7.029000340E+02  0.000000000E+00  0.00000E+00  9.000E+00
      25     1     1     2     0     0  1.489435496E+02 -8.150062367E+01 -1.491805295E+02  2.582757500E+02  1.250000000E+02  0.00000E+00  9.000E+00
      25     1     1     2     0     0 -1.094089842E+02  8.010344124E+01 -3.302359444E+02  3.782428665E+02  1.250000000E+02  0.00000E+00  9.000E+00
      21     1     1     2   502   512 -3.953456546E+01  1.397182434E+00 -1.422330699E+02  1.476319077E+02  1.907348633E-06  0.00000E+00  9.000E+00
#rwgt            1           1   2.6871865227601769E-002           6       49370           0
</event>
<event>
      5   9999  3.19816E-02  4.10906E+01 -1.00000E+00  1.44119E-01
      21    -1     0     0   502   501  0.000000000E+00  0.000000000E+00  9.533439910E+02  9.533439910E+02  0.000000000E+00  0.00000E+00  9.000E+00
      21    -1     0     0   501   511  0.000000000E+00  0.000000000E+00 -2.211353313E+02  2.211353313E+02  0.000000000E+00  0.00000E+00  9.000E+00
      25     1     1     2     0     0  1.691238937E+02  5.589357105E+01  8.255883332E+02  8.537845621E+02  1.250000000E+02  0.00000E+00  9.000E+00
      25     1     1     2     0     0 -2.057441115E+02 -7.453208063E+01 -1.117574336E+02  2.756816904E+02  1.250000000E+02  0.00000E+00  9.000E+00
      21     1     1     2   502   511  3.662021777E+01  1.863850958E+01  1.837776006E+01  4.501306981E+01  4.129530925E-07  0.00000E+00  9.000E+00
#rwgt            1           1   3.2929034641374637E-002           6       49462           0
</event>
<event>
      5   9999  3.19816E-02  5.92664E+01 -1.00000E+00  1.34990E-01
      21    -1     0     0   512   501  0.000000000E+00  0.000000000E+00  2.652344039E+02  2.652344039E+02  0.000000000E+00  0.00000E+00  9.000E+00
      21    -1     0     0   501   502  0.000000000E+00  0.000000000E+00 -2.258543392E+02  2.258543392E+02  0.000000000E+00  0.00000E+00  9.000E+00
      25     1     1     2     0     0 -6.008332723E+01 -1.019990893E+02  4.614571340E+01  1.782364926E+02  1.250000000E+02  0.00000E+00  9.000E+00
      25     1     1     2     0     0  1.119796836E+02  7.337608956E+01 -9.517630395E+01  2.064147013E+02  1.250000000E+02  0.00000E+00  9.000E+00
      21     1     1     2   512   502 -5.189635638E+01  2.862299971E+01  8.841065531E+01  1.064375492E+02  1.348699152E-06  0.00000E+00  9.000E+00
#rwgt            1           1   2.7439999518284550E-002           6       49637           0
</event>
<event>
      5   9999  3.19816E-02  5.81246E+01 -1.00000E+00  1.35445E-01
      21    -1     0     0   502   501  0.000000000E+00  0.000000000E+00  7.208375621E+02  7.208375621E+02  0.000000000E+00  0.00000E+00  9.000E+00
       1    -1     0     0   501     0  0.000000000E+00  0.000000000E+00 -1.342454202E+02  1.342454202E+02  0.000000000E+00  0.00000E+00  9.000E+00
      25     1     1     2     0     0 -1.096368998E+02 -1.906352050E+02  3.265294551E+02  4.130478377E+02  1.250000000E+02  0.00000E+00  9.000E+00
      25     1     1     2     0     0  1.670004341E+02  1.812600868E+02  2.660488425E+02  3.836031161E+02  1.250000000E+02  0.00000E+00  9.000E+00
       1     1     1     2   502     0 -5.736353427E+01  9.375118168E+00 -5.986155647E+00  5.843202858E+01  8.344650269E-07  0.00000E+00  9.000E+00
#rwgt            1           1   1.9479157341844161E-002           6       49687           0
</event>
<event>
      5   9999  3.19816E-02  2.23471E+02 -1.00000E+00  1.09921E-01
       1    -1     0     0   502     0  0.000000000E+00  0.000000000E+00  8.944311286E+02  8.944311286E+02  0.000000000E+00  0.00000E+00  9.000E+00
      21    -1     0     0   501   502  0.000000000E+00  0.000000000E+00 -1.614984187E+02  1.614984187E+02  0.000000000E+00  0.00000E+00  9.000E+00
      25     1     1     2     0     0  6.570858905E+01 -4.425205669E+01  1.784280449E+02  2.318133525E+02  1.250000000E+02  0.00000E+00  9.000E+00
      25     1     1     2     0     0  9.210376954E+01  2.024756196E+02  3.367488629E+01  2.573683719E+02  1.250000000E+02  0.00000E+00  9.000E+00
       1     1     1     2   501     0 -1.578123586E+02 -1.582235629E+02  5.208297787E+02  5.667478229E+02  0.000000000E+00  0.00000E+00  9.000E+00
#rwgt            1           1   2.7952355051132520E-002           6       49756           0
</event>
<event>
      5   9999  3.19816E-02  9.48548E+01 -1.00000E+00  1.24869E-01
      21    -1     0     0   502   501  0.000000000E+00  0.000000000E+00  1.578263160E+03  1.578263160E+03  0.000000000E+00  0.00000E+00  9.000E+00
      21    -1     0     0   501   511  0.000000000E+00  0.000000000E+00 -1.093553390E+03  1.093553390E+03  0.000000000E+00  0.00000E+00  9.000E+00
      25     1     1     2     0     0  7.302635821E+02  7.663686134E+02 -4.444548741E+02  1.154889989E+03  1.250000000E+02  0.00000E+00  9.000E+00
      25     1     1     2     0     0 -6.480472687E+02 -8.136750879E+02  9.560447355E+02  1.418336683E+03  1.250000000E+02  0.00000E+00  9.000E+00
      21     1     1     2   502   511 -8.221631337E+01  4.730647450E+01 -2.688009105E+01  9.858987782E+01  1.305872339E-06  0.00000E+00  9.000E+00
#rwgt            1           1   6.0907439015688285E-002           6       49795           0
</event>
<event>
      5   9999  3.19816E-02  3.89771E+01 -1.00000E+00  1.45541E-01
      21    -1     0     0   502   512  0.000000000E+00  0.000000000E+00  4.324657655E+02  4.324657655E+02  0.000000000E+00  0.00000E+00  9.000E+00
      21    -1     0     0   501   502  0.000000000E+00  0.000000000E+00 -1.374574014E+02  1.374574014E+02  0.000000000E+00  0.00000E+00  9.000E+00
      25     1     1     2     0     0  8.170784019E+01  1.463006935E+02  3.568114800E+01  2.120806648E+02  1.250000000E+02  0.00000E+00  9.000E+00
      25     1     1     2     0     0 -1.118566837E+02 -1.215971710E+02  2.103046190E+02  2.952131814E+02  1.250000000E+02  0.00000E+00  9.000E+00
      21     1     1     2   501   512  3.014884354E+01 -2.470352253E+01  4.902259702E+01  6.262932069E+01  1.168007728E-06  0.00000E+00  9.000E+00
#rwgt            1           1   2.8570688900845576E-002           6       49915           0
</event>
<event>
      5   9999  3.19816E-02  5.09755E+01 -1.00000E+00  1.38598E-01
      21    -1     0     0   502   501  0.000000000E+00  0.000000000E+00  1.962567737E+02  1.962567737E+02  0.000000000E+00  0.00000E+00  9.000E+00
      21    -1     0     0   501   511  0.000000000E+00  0.000000000E+00 -1.038405937E+03  1.038405937E+03  0.000000000E+00  0.00000E+00  9.000E+00
      25     1     1     2     0     0 -4.260789016E+01 -2.195826271E+01  1.317773584E+02  1.878506582E+02  1.250000000E+02  0.00000E+00  9.000E+00
      25     1     1     2     0     0  9.107183321E+00 -1.646317654E+01 -7.611585106E+01  1.475554125E+02  1.250000000E+02  0.00000E+00  9.000E+00
      21     1     1     2   502   511  3.350070684E+01  3.842143925E+01 -8.978106709E+02  8.992566403E+02  1.078959322E-05  0.00000E+00  9.000E+00
#rwgt            2          11   1.1986587877605726E-002           6       50082           0
</event>
<event>
      5   9999  3.19816E-02  7.32334E+01 -1.00000E+00  1.30235E-01
      21    -1     0     0   512   501  0.000000000E+00  0.000000000E+00  2.066203700E+02  2.066203700E+02  0.000000000E+00  0.00000E+00  9.000E+00
      21    -1     0     0   501   502  0.000000000E+00  0.000000000E+00 -6.475980895E+02  6.475980895E+02  0.000000000E+00  0.00000E+00  9.000E+00
      25     1     1     2     0     0 -8.143521674E+01 -2.806748278E+02 -4.191600315E+02  5.260515046E+02  1.250000000E+02  0.00000E+00  9.000E+00
      25     1     1     2     0     0  4.653637979E+01  2.162915357E+02 -1.362245228E+01  2.544763924E+02  1.250000000E+02  0.00000E+00  9.000E+00
      21     1     1     2   512   502  3.489883695E+01  6.438329207E+01 -8.195235806E+00  7.369056254E+01  1.521962325E-06  0.00000E+00  9.000E+00
#rwgt            1           1   3.1666263778221682E-002           6       50117           0
</event>
<event>
      5   9999  3.19816E-02  5.90249E+01 -1.00000E+00  1.35085E-01
      21    -1     0     0   502   501  0.000000000E+00  0.000000000E+00  2.035603845E+02  2.035603845E+02  0.000000000E+00  0.00000E+00  9.000E+00
      21    -1     0     0   511   502  0.000000000E+00  0.000000000E+00 -7.510138426E+02  7.510138426E+02  0.000000000E+00  0.00000E+00  9.000E+00
      25     1     1     2     0     0  4.807603077E+01 -4.315430993E+01  1.642232272E+02  2.162587977E+02  1.250000000E+02  0.00000E+00  9.000E+00
      25     1     1     2     0     0 -4.934626316E+01 -1.585695653E+01 -5.430819164E+02  5.596869345E+02  1.250000000E+02  0.00000E+00  9.000E+00
      21     1     1     2   511   501  1.270232385E+00  5.901126646E+01 -1.685947690E+02  1.786284949E+02  0.000000000E+00  0.00000E+00  9.000E+00
#rwgt            1           1   2.8003761730640505E-002           6       50197           0
</event>
<event>
      5   9999  3.19816E-02  5.19017E+01 -1.00000E+00  1.38157E-01
      21    -1     0     0   512   501  0.000000000E+00  0.000000000E+00  6.783754958E+02  6.783754958E+02  0.000000000E+00  0.00000E+00  9.000E+00
      21    -1     0     0   501   502  0.000000000E+00  0.000000000E+00 -4.050184941E+02  4.050184941E+02  0.000000000E+00  0.00000E+00  9.000E+00
      25     1     1     2     0     0 -2.932237095E+02  1.284813510E+02  4.595312045E+02  5.738305754E+02  1.250000000E+02  0.00000E+00  9.000E+00
      25     1     1     2     0     0  3.396290433E+02 -1.052363432E+02 -2.300897764E+02  4.415754524E+02  1.250000000E+02  0.00000E+00  9.000E+00
      21     1     1     2   512   502 -4.640533380E+01 -2.324500785E+01  4.391557348E+01  6.798796209E+01  8.259061849E-07  0.00000E+00  9.000E+00
#rwgt            1           1   3.1994879022836577E-002           6       50258           0
</event>
<event>
      5   9999  3.19816E-02  5.89925E+01 -1.00000E+00  1.35098E-01
      21    -1     0     0   511   501  0.000000000E+00  0.000000000E+00  5.575698087E+02  5.575698087E+02  0.000000000E+00  0.00000E+00  9.000E+00
      21    -1     0     0   501   502  0.000000000E+00  0.000000000E+00 -1.112820810E+02  1.112820810E+02  0.000000000E+00  0.00000E+00  9.000E+00
      25     1     1     2     0     0 -1.751720717E+01 -6.331674647E+01  5.604195499E+01  1.519261783E+02  1.250000000E+02  0.00000E+00  9.000E+00
      25     1     1     2     0     0 -1.660584923E+01  1.114388243E+02  5.576505405E+01  1.772825627E+02  1.250000000E+02  0.00000E+00  9.000E+00
      21     1     1     2   511   502  3.412305639E+01 -4.812207779E+01  3.344807186E+02  3.396431487E+02  3.814697266E-06  0.00000E+00  9.000E+00
#rwgt            1           1   5.5614435222678796E-002           6       50332           0
</event>
<event>
      5   9999  3.19816E-02  8.80789E+01 -1.00000E+00  1.26359E-01
       1    -1     0     0   502     0  0.000000000E+00  0.000000000E+00  1.420453133E+03  1.420453133E+03  0.000000000E+00  0.00000E+00  9.000E+00
      21    -1     0     0   501   502  0.000000000E+00  0.000000000E+00 -3.828565853E+02  3.828565853E+02  0.000000000E+00  0.00000E+00  9.000E+00
      25     1     1     2     0     0  2.321209274E+01  1.208929880E+02  2.611142535E+02  3.145783991E+02  1.250000000E+02  0.00000E+00  9.000E+00
      25     1     1     2     0     0 -9.630917635E+01 -7.175323546E+01 -3.331811407E+02  3.755777640E+02  1.250000000E+02  0.00000E+00  9.000E+00
       1     1     1     2   501     0  7.309708361E+01 -4.913975254E+01  1.109663435E+03  1.113153555E+03  2.157918644E-05  0.00000E+00  9.000E+00
#rwgt            1           1   2.7945730592693275E-002           6       50368           0
</event>
<event>
      5   9999  3.19816E-02  3.35659E+01 -1.00000E+00  1.49727E-01
      21    -1     0     0   511   501  0.000000000E+00  0.000000000E+00  1.479906963E+02  1.479906963E+02  0.000000000E+00  0.00000E+00  9.000E+00
      21    -1     0     0   501   502  0.000000000E+00  0.000000000E+00 -7.154350891E+02  7.154350891E+02  0.000000000E+00  0.00000E+00  9.000E+00
      25     1     1     2     0     0 -1.228283164E+02 -2.137508428E+02 -2.335248250E+02  3.618495019E+02  1.250000000E+02  0.00000E+00  9.000E+00
      25     1     1     2     0     0  1.054094028E+02  1.850585152E+02 -3.747009425E+02  4.487578329E+02  1.250000000E+02  0.00000E+00  9.000E+00
      21     1     1     2   511   502  1.741891356E+01  2.869232757E+01  4.078137462E+01  5.281845063E+01  1.261592536E-06  0.00000E+00  9.000E+00
#rwgt            1           1   3.0256119722356221E-002           6       50472           0
</event>
<event>
      5   9999  3.19816E-02  2.87417E+02 -1.00000E+00  1.06200E-01
      21    -1     0     0   502   501  0.000000000E+00  0.000000000E+00  1.039344940E+03  1.039344940E+03  0.000000000E+00  0.00000E+00  9.000E+00
      21    -1     0     0   512   502  0.000000000E+00  0.000000000E+00 -1.134434835E+03  1.134434835E+03  0.000000000E+00  0.00000E+00  9.000E+00
      25     1     1     2     0     0 -2.520842572E+02 -3.247721597E+01  9.439890992E+02  9.855666703E+02  1.250000000E+02  0.00000E+00  9.000E+00
      25     1     1     2     0     0  5.465339205E+01  2.413541014E+02 -3.915837306E+02  4.797933030E+02  1.250000000E+02  0.00000E+00  9.000E+00
      21     1     1     2   512   501  1.974308652E+02 -2.088768854E+02 -6.474952629E+02  7.084198016E+02  1.321449896E-05  0.00000E+00  9.000E+00
#rwgt            2          11   2.8105013087910808E-003           6       50699           0
</event>
<event>
      5   9999  3.19816E-02  1.07443E+02 -1.00000E+00  1.22442E-01
      21    -1     0     0   502   501  0.000000000E+00  0.000000000E+00  1.086589877E+02  1.086589877E+02  0.000000000E+00  0.00000E+00  9.000E+00
       5    -1     0     0   501     0  0.000000000E+00  0.000000000E+00 -9.415047713E+02  9.415047713E+02  0.000000000E+00  0.00000E+00  9.000E+00
      25     1     1     2     0     0  2.251720296E+02 -1.434907016E+02 -3.506263533E+02  4.581002772E+02  1.250000000E+02  0.00000E+00  9.000E+00
      25     1     1     2     0     0 -1.663342836E+02  5.359065153E+01 -2.145601633E+02  3.036447192E+02  1.250000000E+02  0.00000E+00  9.000E+00
       5     1     1     2   502     0 -5.883774599E+01  8.990005005E+01 -2.676592671E+02  2.884187626E+02  0.000000000E+00  0.00000E+00  9.000E+00
#rwgt            1           1   2.9581180160603984E-002           6       50764           0
</event>
<event>
      5   9999  3.19816E-02  2.01126E+02 -1.00000E+00  1.11559E-01
       1    -1     0     0   502     0  0.000000000E+00  0.000000000E+00  7.225323673E+02  7.225323673E+02  0.000000000E+00  0.00000E+00  9.000E+00
      21    -1     0     0   501   502  0.000000000E+00  0.000000000E+00 -3.204608429E+02  3.204608429E+02  0.000000000E+00  0.00000E+00  9.000E+00
      25     1     1     2     0     0 -7.271322749E+01 -3.198837711E+01  1.259926768E+02  1.944469705E+02  1.250000000E+02  0.00000E+00  9.000E+00
      25     1     1     2     0     0  5.043774953E+01  2.318766844E+02 -1.981267515E+02  3.334516052E+02  1.250000000E+02  0.00000E+00  9.000E+00
       1     1     1     2   501     0  2.227547796E+01 -1.998883073E+02  4.742055990E+02  5.150946345E+02  1.078959322E-05  0.00000E+00  9.000E+00
#rwgt            1           1   2.4400620104163620E-002           6       50863           0
</event>
<event>
      5   9999  3.19816E-02  5.79501E+01 -1.00000E+00  1.35515E-01
      21    -1     0     0   502   511  0.000000000E+00  0.000000000E+00  1.830108973E+02  1.830108973E+02  0.000000000E+00  0.00000E+00  9.000E+00
      21    -1     0     0   501   502  0.000000000E+00  0.000000000E+00 -9.630142915E+02  9.630142915E+02  0.000000000E+00  0.00000E+00  9.000E+00
      25     1     1     2     0     0 -1.817117780E+02  2.266524746E+02 -7.536144909E+02  8.172822740E+02  1.250000000E+02  0.00000E+00  9.000E+00
      25     1     1     2     0     0  1.671186996E+02 -1.705698418E+02 -1.732998331E+01  2.700889835E+02  1.250000000E+02  0.00000E+00  9.000E+00
      21     1     1     2   501   511  1.459307834E+01 -5.608263275E+01 -9.058920037E+00  5.865393136E+01  2.665600750E-07  0.00000E+00  9.000E+00
#rwgt            1           1   2.8391795654468192E-002           6       50904           0
</event>
<event>
      5   9999  3.19816E-02  4.26490E+01 -1.00000E+00  1.43134E-01
      21    -1     0     0   502   501  0.000000000E+00  0.000000000E+00  2.852380130E+02  2.852380130E+02  0.000000000E+00  0.00000E+00  9.000E+00
      21    -1     0     0   501   512  0.000000000E+00  0.000000000E+00 -4.567644758E+02  4.567644758E+02  0.000000000E+00  0.00000E+00  9.000E+00
      25     1     1     2     0     0  2.718035754E+01 -1.266339781E+02 -1.426917620E+02  2.296973557E+02  1.250000000E+02  0.00000E+00  9.000E+00
      25     1     1     2     0     0 -3.472785250E+01  1.686098619E+02  1.924940901E+02  2.869046601E+02  1.250000000E+02  0.00000E+00  9.000E+00
      21     1     1     2   502   512  7.547494966E+00 -4.197588379E+01 -2.213287909E+02  2.254004729E+02  0.000000000E+00  0.00000E+00  9.000E+00
#rwgt            1           1   2.7357921580522800E-002           6       51052           0
</event>
<event>
      5   9999  3.19816E-02  3.55786E+01 -1.00000E+00  1.48067E-01
      21    -1     0     0   502   501  0.000000000E+00  0.000000000E+00  7.686165230E+02  7.686165230E+02  0.000000000E+00  0.00000E+00  9.000E+00
      21    -1     0     0   501   511  0.000000000E+00  0.000000000E+00 -4.743628202E+02  4.743628202E+02  0.000000000E+00  0.00000E+00  9.000E+00
      25     1     1     2     0     0 -2.265306747E+02  2.083704724E+02 -9.406588758E+01  3.452648137E+02  1.250000000E+02  0.00000E+00  9.000E+00
      25     1     1     2     0     0  2.279479396E+02 -2.439208044E+02  5.919471059E+02  6.910021695E+02  1.250000000E+02  0.00000E+00  9.000E+00
      21     1     1     2   502   511 -1.417264900E+00  3.555033197E+01 -2.036275155E+02  2.067123601E+02  2.697398305E-06  0.00000E+00  9.000E+00
#rwgt            1           1   3.0560575881685217E-002           6       51155           0
</event>
<event>
      5   9999  3.19816E-02  1.54056E+02 -1.00000E+00  1.15936E-01
      21    -1     0     0   502   512  0.000000000E+00  0.000000000E+00  2.424427997E+03  2.424427997E+03  0.000000000E+00  0.00000E+00  9.000E+00
      21    -1     0     0   501   502  0.000000000E+00  0.000000000E+00 -2.958454005E+02  2.958454005E+02  0.000000000E+00  0.00000E+00  9.000E+00
      25     1     1     2     0     0 -1.701049739E+02 -3.978983513E+02 -5.046489265E+00  4.504545117E+02  1.250000000E+02  0.00000E+00  9.000E+00
      25     1     1     2     0     0  1.674522999E+02  5.519317499E+02  1.384887086E+03  1.505392364E+03  1.250000000E+02  0.00000E+00  9.000E+00
      21     1     1     2   501   512  2.652673982E+00 -1.540333986E+02  7.487419999E+02  7.644265217E+02  1.078959322E-05  0.00000E+00  9.000E+00
#rwgt            2          11   1.9106230644118361E-003           6       51247           0
</event>
<event>
      5   9999  3.19816E-02  6.22841E+01 -1.00000E+00  1.33842E-01
      21    -1     0     0   502   511  0.000000000E+00  0.000000000E+00  8.072195601E+02  8.072195601E+02  0.000000000E+00  0.00000E+00  9.000E+00
      21    -1     0     0   501   502  0.000000000E+00  0.000000000E+00 -1.102538146E+03  1.102538146E+03  0.000000000E+00  0.00000E+00  9.000E+00
      25     1     1     2     0     0 -3.407266076E+02 -8.655275365E+01 -8.259580934E+02  9.063210096E+02  1.250000000E+02  0.00000E+00  9.000E+00
      25     1     1     2     0     0  2.804604711E+02  7.082704203E+01 -1.292639056E+02  3.406005036E+02  1.250000000E+02  0.00000E+00  9.000E+00
      21     1     1     2   501   511  6.026613649E+01  1.572571162E+01  6.599034127E+02  6.628361934E+02  0.000000000E+00  0.00000E+00  9.000E+00
#rwgt            1           1   3.0483905914561411E-002           6       51297           0
</event>
<event>
      5   9999  3.19816E-02  7.02220E+01 -1.00000E+00  1.31151E-01
      21    -1     0     0   502   501  0.000000000E+00  0.000000000E+00  1.880502208E+02  1.880502208E+02  0.000000000E+00  0.00000E+00  9.000E+00
      21    -1     0     0   501   512  0.000000000E+00  0.000000000E+00 -7.189778567E+02  7.189778567E+02  0.000000000E+00  0.00000E+00  9.000E+00
      25     1     1     2     0     0 -1.030629375E+02  1.186950892E+02 -1.896649311E+02  2.762395326E+02  1.250000000E+02  0.00000E+00  9.000E+00
      25     1     1     2     0     0  9.695059169E+01 -4.873966279E+01  9.368941618E+01  1.902043077E+02  1.250000000E+02  0.00000E+00  9.000E+00
      21     1     1     2   502   512  6.112345797E+00 -6.995542639E+01 -4.349521211E+02  4.405842372E+02  7.629394531E-06  0.00000E+00  9.000E+00
#rwgt            1           1   2.2473002129555966E-002           6       51396           0
</event>
<event>
      5   9999  3.19816E-02  1.22886E+02 -1.00000E+00  1.19932E-01
      21    -1     0     0   502   511  0.000000000E+00  0.000000000E+00  2.544252231E+02  2.544252231E+02  0.000000000E+00  0.00000E+00  9.000E+00
      21    -1     0     0   501   502  0.000000000E+00  0.000000000E+00 -1.493881059E+03  1.493881059E+03  0.000000000E+00  0.00000E+00  9.000E+00
      25     1     1     2     0     0 -4.894391517E+02  1.935582560E+01 -7.831225489E+02  9.321111832E+02  1.250000000E+02  0.00000E+00  9.000E+00
      25     1     1     2     0     0  5.166629549E+02 -1.391879034E+02 -4.068771720E+02  6.837308787E+02  1.250000000E+02  0.00000E+00  9.000E+00
      21     1     1     2   501   511 -2.722380317E+01  1.198320778E+02 -4.945611513E+01  1.324642203E+02  0.000000000E+00  0.00000E+00  9.000E+00
#rwgt            1           1   2.6984396659696066E-002           6       51485           0
</event>
<event>
      5   9999  3.19816E-02  2.66031E+02 -1.00000E+00  1.07316E-01
      -1    -1     0     0     0   501  0.000000000E+00  0.000000000E+00  1.373728684E+03  1.373728684E+03  0.000000000E+00  0.00000E+00  9.000E+00
      21    -1     0     0   501   502  0.000000000E+00  0.000000000E+00 -1.349513270E+03  1.349513270E+03  0.000000000E+00  0.00000E+00  9.000E+00
      25     1     1     2     0     0  7.389247594E+02 -3.916271229E+02 -2.039288341E+02  8.698238746E+02  1.250000000E+02  0.00000E+00  9.000E+00
      25     1     1     2     0     0 -6.468264274E+02  6.412076641E+02 -5.222176521E+02  1.057292756E+03  1.250000000E+02  0.00000E+00  9.000E+00
      -1     1     1     2     0   502 -9.209833207E+01 -2.495805412E+02  7.503618999E+02  7.961253231E+02  0.000000000E+00  0.00000E+00  9.000E+00
#rwgt            2           5   1.3829783999002386E-004           6       51626           0
</event>
<event>
      5   9999  3.19816E-02  4.87413E+01 -1.00000E+00  1.39710E-01
      21    -1     0     0   502   511  0.000000000E+00  0.000000000E+00  5.711950566E+02  5.711950566E+02  0.000000000E+00  0.00000E+00  9.000E+00
      21    -1     0     0   501   502  0.000000000E+00  0.000000000E+00 -2.376500282E+02  2.376500282E+02  0.000000000E+00  0.00000E+00  9.000E+00
      25     1     1     2     0     0 -2.254845194E+02  5.769617723E+01  2.641914737E+02  3.736231419E+02  1.250000000E+02  0.00000E+00  9.000E+00
      25     1     1     2     0     0  1.767439033E+02 -5.794809694E+01 -1.098013540E+02  2.495550573E+02  1.250000000E+02  0.00000E+00  9.000E+00
      21     1     1     2   501   511  4.874061607E+01  2.519197100E-01  1.791549087E+02  1.856668856E+02  2.697398305E-06  0.00000E+00  9.000E+00
#rwgt            2          11   1.3801761048547968E-003           6       51645           0
</event>
<event>
      5   9999  3.19816E-02  2.35092E+01 -1.00000E+00  1.60777E-01
      21    -1     0     0   502   512  0.000000000E+00  0.000000000E+00  4.855790573E+02  4.855790573E+02  0.000000000E+00  0.00000E+00  9.000E+00
      21    -1     0     0   501   502  0.000000000E+00  0.000000000E+00 -7.463269126E+02  7.463269126E+02  0.000000000E+00  0.00000E+00  9.000E+00
      25     1     1     2     0     0  5.347953363E+02 -8.157046561E+01  9.567462490E+01  5.634167431E+02  1.250000000E+02  0.00000E+00  9.000E+00
      25     1     1     2     0     0 -5.128624662E+02  9.003405779E+01 -3.592053377E+02  6.448158772E+02  1.250000000E+02  0.00000E+00  9.000E+00
      21     1     1     2   501   512 -2.193287009E+01 -8.463592185E+00  2.782857548E+00  2.367334956E+01  3.513641990E-07  0.00000E+00  9.000E+00
#rwgt            1           1   2.9009225957264899E-002           6       51665           0
</event>
<event>
      5   9999  3.19816E-02  1.59985E+01 -1.00000E+00  1.74787E-01
      21    -1     0     0   502   501  0.000000000E+00  0.000000000E+00  3.147517433E+02  3.147517433E+02  0.000000000E+00  0.00000E+00  9.000E+00
      21    -1     0     0   501   511  0.000000000E+00  0.000000000E+00 -1.100899730E+02  1.100899730E+02  0.000000000E+00  0.00000E+00  9.000E+00
      25     1     1     2     0     0 -7.826495501E+01 -7.843399700E+00  2.126844825E+02  2.589336039E+02  1.250000000E+02  0.00000E+00  9.000E+00
      25     1     1     2     0     0  7.750320026E+01 -8.136948038E+00  1.461805918E+00  1.473095138E+02  1.250000000E+02  0.00000E+00  9.000E+00
      21     1     1     2   502   511  7.617547497E-01  1.598034774E+01 -9.484518138E+00  1.859859856E+01  4.298152060E-07  0.00000E+00  9.000E+00
#rwgt            1           1   2.7629245146185356E-002           6       51916           0
</event>
<event>
      5   9999  3.19816E-02  6.77733E+01 -1.00000E+00  1.31936E-01
      21    -1     0     0   502   501  0.000000000E+00  0.000000000E+00  1.223325123E+02  1.223325123E+02  0.000000000E+00  0.00000E+00  9.000E+00
      21    -1     0     0   501   512  0.000000000E+00  0.000000000E+00 -1.401930397E+03  1.401930397E+03  0.000000000E+00  0.00000E+00  9.000E+00
      25     1     1     2     0     0  8.190211608E+01  2.490904729E+02 -6.840369899E+02  7.431592184E+02  1.250000000E+02  0.00000E+00  9.000E+00
      25     1     1     2     0     0 -1.833666840E+01 -2.725989777E+02 -1.601880181E+02  3.404873525E+02  1.250000000E+02  0.00000E+00  9.000E+00
      21     1     1     2   502   512 -6.356544768E+01  2.350850485E+01 -4.353728763E+02  4.406163380E+02  7.629394531E-06  0.00000E+00  9.000E+00
#rwgt            2          11   1.4823351241559945E-003           6       52235           0
</event>
<event>
      5   9999  3.19816E-02  1.61511E+01 -1.00000E+00  1.74411E-01
      21    -1     0     0   502   511  0.000000000E+00  0.000000000E+00  5.876968743E+01  5.876968743E+01  0.000000000E+00  0.00000E+00  9.000E+00
      21    -1     0     0   501   502  0.000000000E+00  0.000000000E+00 -9.042773682E+02  9.042773682E+02  0.000000000E+00  0.00000E+00  9.000E+00
      25     1     1     2     0     0 -4.192821840E+01 -1.446971056E+01 -4.048897370E+02  4.260610838E+02  1.250000000E+02  0.00000E+00  9.000E+00
      25     1     1     2     0     0  4.781463887E+01 -5.705357953E-01 -4.779370194E+02  4.963218308E+02  1.250000000E+02  0.00000E+00  9.000E+00
      21     1     1     2   501   511 -5.886420473E+00  1.504024635E+01  3.731907565E+01  4.066414100E+01  1.066240300E-06  0.00000E+00  9.000E+00
#rwgt            1           1   5.6434078836432935E-003           6       52330           0
</event>
<event>
      5   9999  3.19816E-02  6.87770E+01 -1.00000E+00  1.31610E-01
      21    -1     0     0   502   512  0.000000000E+00  0.000000000E+00  2.699350463E+02  2.699350463E+02  0.000000000E+00  0.00000E+00  9.000E+00
      21    -1     0     0   501   502  0.000000000E+00  0.000000000E+00 -4.382819711E+02  4.382819711E+02  0.000000000E+00  0.00000E+00  9.000E+00
      25     1     1     2     0     0  1.023694975E+02  2.139124623E+02 -8.249183055E+01  2.804780876E+02  1.250000000E+02  0.00000E+00  9.000E+00
      25     1     1     2     0     0 -1.674230430E+02 -1.915894529E+02 -1.608866564E+02  3.259547668E+02  1.250000000E+02  0.00000E+00  9.000E+00
      21     1     1     2   501   512  6.505354544E+01 -2.232300939E+01  7.503156215E+01  1.017841630E+02  9.536743164E-07  0.00000E+00  9.000E+00
#rwgt            1           1   2.6848642890194230E-002           6       52507           0
</event>
<event>
      5   9999  3.19816E-02  9.17487E+01 -1.00000E+00  1.25534E-01
      21    -1     0     0   502   511  0.000000000E+00  0.000000000E+00  4.304910151E+02  4.304910151E+02  0.000000000E+00  0.00000E+00  9.000E+00
      21    -1     0     0   501   502  0.000000000E+00  0.000000000E+00 -3.377345495E+02  3.377345495E+02  0.000000000E+00  0.00000E+00  9.000E+00
      25     1     1     2     0     0  2.216799049E+02  5.358941290E+01 -1.500391284E+02  3.002508043E+02  1.250000000E+02  0.00000E+00  9.000E+00
      25     1     1     2     0     0 -2.423340172E+02 -1.429830787E+02  1.778218339E+02  3.555496327E+02  1.250000000E+02  0.00000E+00  9.000E+00
      21     1     1     2   501   511  2.065411235E+01  8.939366579E+01  6.497376003E+01  1.124251277E+02  1.651812370E-06  0.00000E+00  9.000E+00
#rwgt            1           1   2.4482679498827202E-002           6       52555           0
</event>
<event>
      5   9999  3.19816E-02  2.51125E+01 -1.00000E+00  1.58605E-01
      21    -1     0     0   502   512  0.000000000E+00  0.000000000E+00  2.049322005E+02  2.049322005E+02  0.000000000E+00  0.00000E+00  9.000E+00
      21    -1     0     0   501   502  0.000000000E+00  0.000000000E+00 -4.110694022E+02  4.110694022E+02  0.000000000E+00  0.00000E+00  9.000E+00
      25     1     1     2     0     0  1.407082663E+02  7.793298971E+01  8.247926529E+00  2.038759313E+02  1.250000000E+02  0.00000E+00  9.000E+00
      25     1     1     2     0     0 -1.203165039E+02 -9.258947638E+01 -2.798337789E+02  3.420245840E+02  1.250000000E+02  0.00000E+00  9.000E+00
      21     1     1     2   501   512 -2.039176240E+01  1.465648667E+01  6.544865066E+01  7.010108736E+01  0.000000000E+00  0.00000E+00  9.000E+00
#rwgt            1           1   2.6928774371797328E-002           6       52617           0
</event>
<event>
      5   9999  3.19816E-02  4.17991E+02 -1.00000E+00  1.01114E-01
      21    -1     0     0   502   501  0.000000000E+00  0.000000000E+00  6.734510397E+02  6.734510397E+02  0.000000000E+00  0.00000E+00  9.000E+00
       1    -1     0     0   501     0  0.000000000E+00  0.000000000E+00 -4.943051823E+03  4.943051823E+03  0.000000000E+00  0.00000E+00  9.000E+00
      25     1     1     2     0     0 -1.017262197E+03  6.072944767E+02 -7.276342519E+02  1.395960445E+03  1.250000000E+02  0.00000E+00  9.000E+00
      25     1     1     2     0     0  8.250156942E+02 -9.784516845E+02 -9.594751661E+02  1.604442641E+03  1.250000000E+02  0.00000E+00  9.000E+00
       1     1     1     2   502     0  1.922465026E+02  3.711572077E+02 -2.582491365E+03  2.616099777E+03  0.000000000E+00  0.00000E+00  9.000E+00
#rwgt            2          12   6.3471669636709963E-005           6       52821           0
</event>
<event>
      5   9999  3.26023E-02  2.05040E+01 -1.00000E+00  1.65482E-01
      21    -1     0     0   502   501  0.000000000E+00  0.000000000E+00  2.042159878E+03  2.042159878E+03  0.000000000E+00  0.00000E+00  9.000E+00
      21    -1     0     0   511   502  0.000000000E+00  0.000000000E+00 -3.691793631E+02  3.691793631E+02  0.000000000E+00  0.00000E+00  9.000E+00
      25     1     1     2     0     0 -2.577701582E+01  2.518947773E+02  9.957220318E+02  1.034989274E+03  1.250000000E+02  0.00000E+00  9.000E+00
      25     1     1     2     0     0  4.453660113E+01 -2.601707084E+02  1.005710407E+03  1.047258673E+03  1.250000000E+02  0.00000E+00  9.000E+00
      21     1     1     2   511   501 -1.875958531E+01  8.275931025E+00 -3.284519239E+02  3.290912934E+02  6.607249480E-06  0.00000E+00  9.000E+00
#rwgt            1           1   9.5927383865560129E-002           6       52855           0
</event>
<event>
      5   9999  3.19816E-02  6.43479E+01 -1.00000E+00  1.33100E-01
      21    -1     0     0   512   501  0.000000000E+00  0.000000000E+00  4.025264670E+02  4.025264670E+02  0.000000000E+00  0.00000E+00  9.000E+00
      21    -1     0     0   501   502  0.000000000E+00  0.000000000E+00 -3.842069981E+02  3.842069981E+02  0.000000000E+00  0.00000E+00  9.000E+00
      25     1     1     2     0     0  1.412335783E+02  9.426113184E+01  2.687458860E+02  3.415866448E+02  1.250000000E+02  0.00000E+00  9.000E+00
      25     1     1     2     0     0 -1.781618030E+02 -1.469579397E+02 -2.712197978E+02  3.775227713E+02  1.250000000E+02  0.00000E+00  9.000E+00
      21     1     1     2   512   502  3.692822465E+01  5.269680789E+01  2.079338067E+01  6.762404911E+01  1.168007728E-06  0.00000E+00  9.000E+00
#rwgt            1           1   2.5842588719867492E-002           6       52994           0
</event>
<event>
      5   9999  3.19816E-02  1.16908E+02 -1.00000E+00  1.20852E-01
      21    -1     0     0   502   511  0.000000000E+00  0.000000000E+00  1.926175398E+02  1.926175398E+02  0.000000000E+00  0.00000E+00  9.000E+00
      21    -1     0     0   501   502  0.000000000E+00  0.000000000E+00 -1.549331861E+03  1.549331861E+03  0.000000000E+00  0.00000E+00  9.000E+00
      25     1     1     2     0     0  3.760447758E+02  1.492545423E+02 -5.619310482E+02  7.036178613E+02  1.250000000E+02  0.00000E+00  9.000E+00
      25     1     1     2     0     0 -4.767618620E+02 -8.989581684E+01 -7.702866510E+02  9.188850068E+02  1.250000000E+02  0.00000E+00  9.000E+00
      21     1     1     2   501   511  1.007170862E+02 -5.935872547E+01 -2.449662213E+01  1.194465330E+02  3.354846783E-06  0.00000E+00  9.000E+00
#rwgt            1           1   2.7874418550209390E-002           6       53109           0
</event>
<event>
      5   9999  3.19816E-02  4.14725E+01 -1.00000E+00  1.43873E-01
      21    -1     0     0   512   501  0.000000000E+00  0.000000000E+00  1.359855580E+03  1.359855580E+03  0.000000000E+00  0.00000E+00  9.000E+00
      21    -1     0     0   501   502  0.000000000E+00  0.000000000E+00 -3.525304396E+02  3.525304396E+02  0.000000000E+00  0.00000E+00  9.000E+00
      25     1     1     2     0     0  1.785129617E+02 -1.666205150E+02  2.717639972E+02  3.861475672E+02  1.250000000E+02  0.00000E+00  9.000E+00
      25     1     1     2     0     0 -1.373565412E+02  1.717307212E+02 -2.406566011E+02  3.491401720E+02  1.250000000E+02  0.00000E+00  9.000E+00
      21     1     1     2   512   502 -4.115642046E+01 -5.110206213E+00  9.762177446E+02  9.770982806E+02  1.525878906E-05  0.00000E+00  9.000E+00
#rwgt            1           1   3.0260831597392828E-002           6       53158           0
</event>
<event>
      5   9999  3.19816E-02  2.03594E+01 -1.00000E+00  1.65733E-01
      21    -1     0     0   502   501  0.000000000E+00  0.000000000E+00  2.088334319E+02  2.088334319E+02  0.000000000E+00  0.00000E+00  9.000E+00
      21    -1     0     0   501   511  0.000000000E+00  0.000000000E+00 -1.642804183E+02  1.642804183E+02  0.000000000E+00  0.00000E+00  9.000E+00
      25     1     1     2     0     0  9.513686023E+01 -8.224522656E+00  9.228460812E+01  1.823735558E+02  1.250000000E+02  0.00000E+00  9.000E+00
      25     1     1     2     0     0 -1.022810830E+02  2.728923933E+01 -4.681334982E+01  1.703602425E+02  1.250000000E+02  0.00000E+00  9.000E+00
      21     1     1     2   502   511  7.144222755E+00 -1.906471668E+01 -9.182446920E-01  2.038005187E+01  4.331601219E-07  0.00000E+00  9.000E+00
#rwgt            1           1   2.2169547849727769E-002           6       53310           0
</event>
<event>
      5   9999  3.19816E-02  1.21716E+02 -1.00000E+00  1.20107E-01
      21    -1     0     0   502   512  0.000000000E+00  0.000000000E+00  6.759478111E+02  6.759478111E+02  0.000000000E+00  0.00000E+00  9.000E+00
      21    -1     0     0   501   502  0.000000000E+00  0.000000000E+00 -1.696118941E+02  1.696118941E+02  0.000000000E+00  0.00000E+00  9.000E+00
      25     1     1     2     0     0  2.060829923E+02  7.943975854E+01  1.245726496E+02  2.827087194E+02  1.250000000E+02  0.00000E+00  9.000E+00
      25     1     1     2     0     0 -9.381750454E+01 -3.241485136E+01 -2.639542059E+00  1.596383849E+02  1.250000000E+02  0.00000E+00  9.000E+00
      21     1     1     2   501   512 -1.122654878E+02 -4.702490718E+01  3.844028094E+02  4.032126009E+02  5.394796609E-06  0.00000E+00  9.000E+00
#rwgt            1           1   2.8856788452324731E-002           6       53424           0
</event>
<event>
      5   9999  3.19816E-02  1.64437E+01 -1.00000E+00  1.73705E-01
      21    -1     0     0   502   501  0.000000000E+00  0.000000000E+00  1.166832030E+03  1.166832030E+03  0.000000000E+00  0.00000E+00  9.000E+00
      21    -1     0     0   511   502  0.000000000E+00  0.000000000E+00 -1.068322063E+02  1.068322063E+02  0.000000000E+00  0.00000E+00  9.000E+00
      25     1     1     2     0     0 -1.483180505E+02  2.638820360E+02  3.991264560E+02  5.162934252E+02  1.250000000E+02  0.00000E+00  9.000E+00
      25     1     1     2     0     0  1.533936532E+02 -2.482413109E+02  6.678868829E+02  7.394939145E+02  1.250000000E+02  0.00000E+00  9.000E+00
      21     1     1     2   511   501 -5.075602647E+00 -1.564072513E+01 -7.013515412E+00  1.787689635E+01  2.795705652E-07  0.00000E+00  9.000E+00
#rwgt            1           1   2.9410495472824396E-002           6       53454           0
</event>
<event>
      5   9999  3.19816E-02  1.07058E+01 -1.00000E+00  1.92394E-01
      21    -1     0     0   502   501  0.000000000E+00  0.000000000E+00  7.900210293E+02  7.900210293E+02  0.000000000E+00  0.00000E+00  9.000E+00
      21    -1     0     0   512   502  0.000000000E+00  0.000000000E+00 -3.289876061E+02  3.289876061E+02  0.000000000E+00  0.00000E+00  9.000E+00
      25     1     1     2     0     0  3.523570829E+02  2.147288343E+02  2.998129148E+02  5.251445230E+02  1.250000000E+02  0.00000E+00  9.000E+00
      25     1     1     2     0     0 -3.561173755E+02 -2.247525225E+02  2.493359562E+02  5.051006836E+02  1.250000000E+02  0.00000E+00  9.000E+00
      21     1     1     2   512   501  3.760292577E+00  1.002368821E+01 -8.811544791E+01  8.876342876E+01  9.536743164E-07  0.00000E+00  9.000E+00
#rwgt            1           1   2.2630217221070049E-002           6       53558           0
</event>
<event>
      5   9999  3.19816E-02  7.54551E+00 -1.00000E+00  2.11048E-01
      21    -1     0     0   502   511  0.000000000E+00  0.000000000E+00  7.061367735E+02  7.061367735E+02  0.000000000E+00  0.00000E+00  9.000E+00
      21    -1     0     0   501   502  0.000000000E+00  0.000000000E+00 -4.007651574E+01  4.007651574E+01  0.000000000E+00  0.00000E+00  9.000E+00
      25     1     1     2     0     0  2.553707044E+01 -5.332522530E+01  1.414125339E+02  1.977832813E+02  1.250000000E+02  0.00000E+00  9.000E+00
      25     1     1     2     0     0 -3.305827523E+01  5.272012891E+01  4.021785235E+02  4.257285829E+02  1.250000000E+02  0.00000E+00  9.000E+00
      21     1     1     2   501   511  7.521204794E+00  6.050963876E-01  1.224692004E+02  1.227014250E+02  1.907348633E-06  0.00000E+00  9.000E+00
#rwgt            1           1   6.9452892281189421E-002           6       53829           0
</event>
<event>
      5   9999  3.19816E-02  5.56467E+01 -1.00000E+00  1.36475E-01
      21    -1     0     0   512   501  0.000000000E+00  0.000000000E+00  4.072236763E+02  4.072236763E+02  0.000000000E+00  0.00000E+00  9.000E+00
      21    -1     0     0   501   502  0.000000000E+00  0.000000000E+00 -5.276765381E+02  5.276765381E+02  0.000000000E+00  0.00000E+00  9.000E+00
      25     1     1     2     0     0 -1.132961252E+02  4.524903725E+01 -2.149432072E+01  1.759843550E+02  1.250000000E+02  0.00000E+00  9.000E+00
      25     1     1     2     0     0  5.950471428E+01 -3.099980772E+01 -4.147066473E+02  4.383017253E+02  1.250000000E+02  0.00000E+00  9.000E+00
      21     1     1     2   512   502  5.379141095E+01 -1.424922953E+01  3.157481062E+02  3.206141341E+02  3.814697266E-06  0.00000E+00  9.000E+00
#rwgt            1           1   3.0474034431687957E-002           6       53990           0
</event>
<event>
      5   9999  3.19816E-02  7.69740E+01 -1.00000E+00  1.29165E-01
      21    -1     0     0   502   501  0.000000000E+00  0.000000000E+00  9.253243802E+02  9.253243802E+02  0.000000000E+00  0.00000E+00  9.000E+00
      21    -1     0     0   501   511  0.000000000E+00  0.000000000E+00 -2.023355566E+02  2.023355566E+02  0.000000000E+00  0.00000E+00  9.000E+00
      25     1     1     2     0     0 -1.554944999E+02 -2.142599664E+02 -1.031760439E+01  2.929459432E+02  1.250000000E+02  0.00000E+00  9.000E+00
      25     1     1     2     0     0  1.996223314E+02  1.511907205E+02  6.939456298E+02  7.482601461E+02  1.250000000E+02  0.00000E+00  9.000E+00
      21     1     1     2   502   511 -4.412783156E+01  6.306924592E+01  3.936079827E+01  8.645384746E+01  1.261592536E-06  0.00000E+00  9.000E+00
#rwgt            1           1   3.2603837672888096E-002           6       54089           0
</event>
<event>
      5   9999  3.19816E-02  3.12733E+01 -1.00000E+00  1.51797E-01
      21    -1     0     0   502   501  0.000000000E+00  0.000000000E+00  2.585397317E+02  2.585397317E+02  0.000000000E+00  0.00000E+00  9.000E+00
      21    -1     0     0   501   512  0.000000000E+00  0.000000000E+00 -1.806352864E+02  1.806352864E+02  0.000000000E+00  0.00000E+00  9.000E+00
      25     1     1     2     0     0  2.597622823E+01 -8.876051442E+01  2.366404152E+01  1.572837570E+02  1.250000000E+02  0.00000E+00  9.000E+00
      25     1     1     2     0     0 -4.489677867E+01  1.136609107E+02  1.179752062E+02  2.108973035E+02  1.250000000E+02  0.00000E+00  9.000E+00
      21     1     1     2   502   512  1.892055044E+01 -2.490039624E+01 -6.373480250E+01  7.099395757E+01  6.743495762E-07  0.00000E+00  9.000E+00
#rwgt            1           1   3.2720174452846480E-002           6       54193           0
</event>
<event>
      5   9999  3.19816E-02  8.58145E+01 -1.00000E+00  1.26892E-01
      21    -1     0     0   502   501  0.000000000E+00  0.000000000E+00  5.662250816E+02  5.662250816E+02  0.000000000E+00  0.00000E+00  9.000E+00
       2    -1     0     0   501     0  0.000000000E+00  0.000000000E+00 -8.376212334E+02  8.376212334E+02  0.000000000E+00  0.00000E+00  9.000E+00
      25     1     1     2     0     0 -1.563521050E+02 -1.284451934E+02  4.921681257E+02  5.466247455E+02  1.250000000E+02  0.00000E+00  9.000E+00
      25     1     1     2     0     0  1.390837024E+02  2.125042562E+02 -4.458237929E+02  5.280967615E+02  1.250000000E+02  0.00000E+00  9.000E+00
       2     1     1     2   502     0  1.726840268E+01 -8.405906276E+01 -3.177404845E+02  3.291248080E+02  0.000000000E+00  0.00000E+00  9.000E+00
#rwgt            1           1   2.6343981853202428E-002           6       54273           0
</event>
<event>
      5   9999  3.19816E-02  6.33052E+01 -1.00000E+00  1.33471E-01
       2    -1     0     0   502     0  0.000000000E+00  0.000000000E+00  1.414848978E+03  1.414848978E+03  0.000000000E+00  0.00000E+00  9.000E+00
      21    -1     0     0   501   502  0.000000000E+00  0.000000000E+00 -7.112931318E+01  7.112931318E+01  0.000000000E+00  0.00000E+00  9.000E+00
      25     1     1     2     0     0  2.129106599E+01 -1.851595416E+02  3.428681511E+02  4.097815691E+02  1.250000000E+02  0.00000E+00  9.000E+00
      25     1     1     2     0     0 -6.785427822E+01  2.280479650E+02  4.686869140E+02  5.402800207E+02  1.250000000E+02  0.00000E+00  9.000E+00
       2     1     1     2   501     0  4.656321223E+01 -4.288842339E+01  5.321646002E+02  5.359167019E+02  0.000000000E+00  0.00000E+00  9.000E+00
#rwgt            1           1   2.6969983199805279E-002           6       54370           0
</event>
<event>
      5   9999  3.19816E-02  1.11560E+02 -1.00000E+00  1.21728E-01
      21    -1     0     0   502   511  0.000000000E+00  0.000000000E+00  7.135695566E+02  7.135695566E+02  0.000000000E+00  0.00000E+00  9.000E+00
      21    -1     0     0   501   502  0.000000000E+00  0.000000000E+00 -2.995819984E+02  2.995819984E+02  0.000000000E+00  0.00000E+00  9.000E+00
      25     1     1     2     0     0  2.955718714E+02  1.481077873E+02  4.306634046E+02  5.571306991E+02  1.250000000E+02  0.00000E+00  9.000E+00
      25     1     1     2     0     0 -2.578668381E+02 -4.311263019E+01 -1.106078179E+02  3.101823568E+02  1.250000000E+02  0.00000E+00  9.000E+00
      21     1     1     2   501   511 -3.770503331E+01 -1.049951571E+02  9.393197145E+01  1.458384990E+02  1.348699152E-06  0.00000E+00  9.000E+00
#rwgt            1           1   2.9989720884818660E-002           6       54416           0
</event>
<event>
      5   9999  3.19816E-02  3.89617E+01 -1.00000E+00  1.45552E-01
      21    -1     0     0   502   512  0.000000000E+00  0.000000000E+00  3.543272588E+02  3.543272588E+02  0.000000000E+00  0.00000E+00  9.000E+00
      21    -1     0     0   501   502  0.000000000E+00  0.000000000E+00 -5.317681187E+02  5.317681187E+02  0.000000000E+00  0.00000E+00  9.000E+00
      25     1     1     2     0     0 -1.923892140E+02 -3.033045933E+02 -1.449288806E+02  4.069848478E+02  1.250000000E+02  0.00000E+00  9.000E+00
      25     1     1     2     0     0  2.304556175E+02  3.116091796E+02 -8.273360227E+01  4.155477366E+02  1.250000000E+02  0.00000E+00  9.000E+00
      21     1     1     2   501   512 -3.806640353E+01 -8.304586363E+00  5.022162300E+01  6.356279296E+01  9.536743164E-07  0.00000E+00  9.000E+00
#rwgt            1           1   2.8508604795227908E-002           6       54510           0
</event>
<event>
      5   9999  3.19816E-02  5.59588E+01 -1.00000E+00  1.36342E-01
      21    -1     0     0   502   501  0.000000000E+00  0.000000000E+00  1.177925566E+03  1.177925566E+03  0.000000000E+00  0.00000E+00  9.000E+00
       1    -1     0     0   501     0  0.000000000E+00  0.000000000E+00 -3.602870547E+02  3.602870547E+02  0.000000000E+00  0.00000E+00  9.000E+00
      25     1     1     2     0     0  1.234196196E+02 -2.696048770E+02 -2.373933053E+02  3.998746974E+02  1.250000000E+02  0.00000E+00  9.000E+00
      25     1     1     2     0     0 -6.746081632E+01  2.695507580E+02  1.034977884E+03  1.078894245E+03  1.250000000E+02  0.00000E+00  9.000E+00
       1     1     1     2   502     0 -5.595880326E+01  5.411901365E-02  2.005393240E+01  5.944367750E+01  3.371747881E-07  0.00000E+00  9.000E+00
#rwgt            1           1   2.9007264293287590E-002           6       54659           0
</event>
<event>
      5   9999  3.19816E-02  1.22963E+01 -1.00000E+00  1.85921E-01
      21    -1     0     0   502   501  0.000000000E+00  0.000000000E+00  2.309907777E+02  2.309907777E+02  0.000000000E+00  0.00000E+00  9.000E+00
      21    -1     0     0   511   502  0.000000000E+00  0.000000000E+00 -1.607970723E+03  1.607970723E+03  0.000000000E+00  0.00000E+00  9.000E+00
      25     1     1     2     0     0 -8.149564984E+01  5.345638134E+01 -1.542469603E+03  1.550592339E+03  1.250000000E+02  0.00000E+00  9.000E+00
      25     1     1     2     0     0  9.305168418E+01 -5.765832517E+01  1.951246192E+02  2.562844424E+02  1.250000000E+02  0.00000E+00  9.000E+00
      21     1     1     2   511   501 -1.155603435E+01  4.201943834E+00 -2.963496188E+01  3.208471953E+01  4.768371582E-07  0.00000E+00  9.000E+00
#rwgt            1           1   3.0221390233186953E-002           6       54746           0
</event>
<event>
      5   9999  3.19816E-02  5.67403E+01 -1.00000E+00  1.36013E-01
      21    -1     0     0   502   501  0.000000000E+00  0.000000000E+00  3.394356483E+02  3.394356483E+02  0.000000000E+00  0.00000E+00  9.000E+00
       2    -1     0     0   501     0  0.000000000E+00  0.000000000E+00 -9.352916385E+02  9.352916385E+02  0.000000000E+00  0.00000E+00  9.000E+00
      25     1     1     2     0     0 -1.497488320E+02  2.774722944E+02 -3.605120605E+02  4.949843761E+02  1.250000000E+02  0.00000E+00  9.000E+00
      25     1     1     2     0     0  1.205073863E+02 -3.260974269E+02  1.437529264E+02  3.964233417E+02  1.250000000E+02  0.00000E+00  9.000E+00
       2     1     1     2   502     0  2.924144570E+01  4.862513256E+01 -3.790968560E+02  3.833195689E+02  5.394796609E-06  0.00000E+00  9.000E+00
#rwgt            1           1   2.5881629183703281E-002           6       54999           0
</event>
<event>
      5   9999  3.19816E-02  1.47284E+01 -1.00000E+00  1.78134E-01
      21    -1     0     0   502   511  0.000000000E+00  0.000000000E+00  5.205426080E+01  5.205426080E+01  0.000000000E+00  0.00000E+00  9.000E+00
      21    -1     0     0   501   502  0.000000000E+00  0.000000000E+00 -2.164093067E+03  2.164093067E+03  0.000000000E+00  0.00000E+00  9.000E+00
      25     1     1     2     0     0  9.570239355E+01  1.500847532E+02 -1.775907565E+03  1.789177761E+03  1.250000000E+02  0.00000E+00  9.000E+00
      25     1     1     2     0     0 -1.069787564E+02 -1.406100805E+02 -3.467937943E+02  4.087867229E+02  1.250000000E+02  0.00000E+00  9.000E+00
      21     1     1     2   501   511  1.127636283E+01 -9.474672704E+00  1.066255293E+01  1.818284402E+01  6.419616708E-07  0.00000E+00  9.000E+00
#rwgt            1           1   8.5523362317496576E-002           6       55117           0
</event>
<event>
      5   9999  3.19816E-02  1.62857E+02 -1.00000E+00  1.14996E-01
      21    -1     0     0   502   501  0.000000000E+00  0.000000000E+00  2.156164898E+02  2.156164898E+02  0.000000000E+00  0.00000E+00  9.000E+00
       1    -1     0     0   501     0  0.000000000E+00  0.000000000E+00 -1.930410057E+03  1.930410057E+03  0.000000000E+00  0.00000E+00  9.000E+00
      25     1     1     2     0     0 -4.508928436E+01 -2.538083665E+02  4.581727602E+01  2.901309243E+02  1.250000000E+02  0.00000E+00  9.000E+00
      25     1     1     2     0     0 -9.019305504E+01  1.631386701E+02 -2.477577983E+02  3.343021679E+02  1.250000000E+02  0.00000E+00  9.000E+00
       1     1     1     2   502     0  1.352823394E+02  9.066969636E+01 -1.512853045E+03  1.521593454E+03  3.051757812E-05  0.00000E+00  9.000E+00
#rwgt            2          12   1.0334364432138051E-003           6       55255           0
</event>
<event>
      5   9999  3.19816E-02  3.24102E+01 -1.00000E+00  1.50745E-01
      21    -1     0     0   511   501  0.000000000E+00  0.000000000E+00  1.039472799E+02  1.039472799E+02  0.000000000E+00  0.00000E+00  9.000E+00
      21    -1     0     0   501   502  0.000000000E+00  0.000000000E+00 -3.250485750E+02  3.250485750E+02  0.000000000E+00  0.00000E+00  9.000E+00
      25     1     1     2     0     0 -4.254138248E+01  4.427862517E+01 -2.453842245E+01  1.414125173E+02  1.250000000E+02  0.00000E+00  9.000E+00
      25     1     1     2     0     0  6.781222075E+01 -6.457157349E+01 -2.013483393E+02  2.548217791E+02  1.250000000E+02  0.00000E+00  9.000E+00
      21     1     1     2   511   502 -2.527083828E+01  2.029294833E+01  4.785466672E+00  3.276155842E+01  5.430241572E-07  0.00000E+00  9.000E+00
#rwgt            1           1   2.1796433489297478E-002           6       55304           0
</event>
<event>
      5   9999  3.19816E-02  1.14224E+01 -1.00000E+00  1.89309E-01
      21    -1     0     0   502   501  0.000000000E+00  0.000000000E+00  3.391841719E+02  3.391841719E+02  0.000000000E+00  0.00000E+00  9.000E+00
      21    -1     0     0   501   512  0.000000000E+00  0.000000000E+00 -5.158269781E+02  5.158269781E+02  0.000000000E+00  0.00000E+00  9.000E+00
      25     1     1     2     0     0  1.461027705E+02 -5.982240152E+00  2.896144637E+02  3.476828215E+02  1.250000000E+02  0.00000E+00  9.000E+00
      25     1     1     2     0     0 -1.352015020E+02  9.393082319E+00 -4.564268269E+02  4.922581889E+02  1.250000000E+02  0.00000E+00  9.000E+00
      21     1     1     2   502   512 -1.090126851E+01 -3.410842167E+00 -9.830443005E+00  1.507013965E+01  1.685873940E-07  0.00000E+00  9.000E+00
#rwgt            1           1   2.4953557218047373E-002           6       55486           0
</event>
<event>
      5   9999  3.19816E-02  1.72235E+02 -1.00000E+00  1.14063E-01
      21    -1     0     0   502   501  0.000000000E+00  0.000000000E+00  7.578062765E+02  7.578062765E+02  0.000000000E+00  0.00000E+00  9.000E+00
      21    -1     0     0   511   502  0.000000000E+00  0.000000000E+00 -3.754788016E+02  3.754788016E+02  0.000000000E+00  0.00000E+00  9.000E+00
      25     1     1     2     0     0 -5.887840676E+01  1.204547554E+01  6.429622126E+02  6.577515999E+02  1.250000000E+02  0.00000E+00  9.000E+00
      25     1     1     2     0     0 -1.091331894E+02 -4.995119486E+01 -1.284906182E+01  1.737678718E+02  1.250000000E+02  0.00000E+00  9.000E+00
      21     1     1     2   511   501  1.680115961E+02  3.790571932E+01 -2.477856759E+02  3.017656064E+02  3.814697266E-06  0.00000E+00  9.000E+00
#rwgt            2          11   5.4295737936936542E-003           6       55814           0
</event>
<event>
      5   9999  3.19816E-02  4.63054E+01 -1.00000E+00  1.41005E-01
      21    -1     0     0   502   501  0.000000000E+00  0.000000000E+00  3.204072040E+02  3.204072040E+02  0.000000000E+00  0.00000E+00  9.000E+00
       2    -1     0     0   501     0  0.000000000E+00  0.000000000E+00 -1.365439723E+03  1.365439723E+03  0.000000000E+00  0.00000E+00  9.000E+00
      25     1     1     2     0     0  2.720420480E+02  1.328849158E+02  1.579999276E+02  3.636677795E+02  1.250000000E+02  0.00000E+00  9.000E+00
      25     1     1     2     0     0 -3.177523621E+02 -1.402847350E+02 -5.207084758E+02  6.382857411E+02  1.250000000E+02  0.00000E+00  9.000E+00
       2     1     1     2   502     0  4.571031416E+01  7.399819192E+00 -6.823239707E+02  6.838934062E+02  7.629394531E-06  0.00000E+00  9.000E+00
#rwgt            1           1   2.9295811863376122E-002           6       55834           0
</event>
<event>
      5   9999  3.19816E-02  5.46019E+01 -1.00000E+00  1.36928E-01
      21    -1     0     0   502   501  0.000000000E+00  0.000000000E+00  1.438366852E+03  1.438366852E+03  0.000000000E+00  0.00000E+00  9.000E+00
      21    -1     0     0   511   502  0.000000000E+00  0.000000000E+00 -3.110127184E+02  3.110127184E+02  0.000000000E+00  0.00000E+00  9.000E+00
      25     1     1     2     0     0  1.273783982E+02  8.430929191E+01  9.988843427E+02  1.018198528E+03  1.250000000E+02  0.00000E+00  9.000E+00
      25     1     1     2     0     0 -1.503596252E+02 -3.477919273E+01  4.040620198E+02  4.502318569E+02  1.250000000E+02  0.00000E+00  9.000E+00
      21     1     1     2   511   501  2.298122703E+01 -4.953009918E+01 -2.755922293E+02  2.809491847E+02  6.607249480E-06  0.00000E+00  9.000E+00
#rwgt            1           1   2.4597047843155490E-002           6       55921           0
</event>
<event>
      5   9999  3.19816E-02  2.39363E+01 -1.00000E+00  1.60178E-01
      21    -1     0     0   502   501  0.000000000E+00  0.000000000E+00  5.106721118E+01  5.106721118E+01  0.000000000E+00  0.00000E+00  9.000E+00
      21    -1     0     0   501   512  0.000000000E+00  0.000000000E+00 -7.803397821E+02  7.803397821E+02  0.000000000E+00  0.00000E+00  9.000E+00
      25     1     1     2     0     0  1.417626156E+02  8.012108187E+00 -2.948469825E+02  3.503149671E+02  1.250000000E+02  0.00000E+00  9.000E+00
      25     1     1     2     0     0 -1.320706531E+02  1.387423949E+01 -3.739396059E+02  4.160420421E+02  1.250000000E+02  0.00000E+00  9.000E+00
      21     1     1     2   502   512 -9.691962490E+00 -2.188634768E+01 -6.048598250E+01  6.504998410E+01  6.743495762E-07  0.00000E+00  9.000E+00
#rwgt            2          11   1.7339391005259143E-003           6       56552           0
</event>
<event>
      5   9999  3.19816E-02  7.69015E+01 -1.00000E+00  1.29185E-01
      21    -1     0     0   502   511  0.000000000E+00  0.000000000E+00  1.516889350E+02  1.516889350E+02  0.000000000E+00  0.00000E+00  9.000E+00
      21    -1     0     0   501   502  0.000000000E+00  0.000000000E+00 -9.300765243E+02  9.300765243E+02  0.000000000E+00  0.00000E+00  9.000E+00
      25     1     1     2     0     0 -3.166660109E+02  1.148001949E+02 -4.037715181E+02  5.404746858E+02  1.250000000E+02  0.00000E+00  9.000E+00
      25     1     1     2     0     0  2.540075027E+02 -7.021603958E+01 -3.594583221E+02  4.629096985E+02  1.250000000E+02  0.00000E+00  9.000E+00
      21     1     1     2   501   511  6.265850818E+01 -4.458415537E+01 -1.515774905E+01  7.838107497E+01  9.536743164E-07  0.00000E+00  9.000E+00
#rwgt            1           1   3.1554368519513744E-002           6       56587           0
</event>
<event>
      5   9999  3.19816E-02  1.61458E+02 -1.00000E+00  1.15141E-01
      21    -1     0     0   512   501  0.000000000E+00  0.000000000E+00  8.933362460E+02  8.933362460E+02  0.000000000E+00  0.00000E+00  9.000E+00
      21    -1     0     0   501   502  0.000000000E+00  0.000000000E+00 -1.313584694E+02  1.313584694E+02  0.000000000E+00  0.00000E+00  9.000E+00
      25     1     1     2     0     0 -1.994659116E+02  6.213830561E+01  1.419638575E+02  2.818271735E+02  1.250000000E+02  0.00000E+00  9.000E+00
      25     1     1     2     0     0  1.796563113E+02  9.809980289E+01  2.970194363E+02  3.817662990E+02  1.250000000E+02  0.00000E+00  9.000E+00
      21     1     1     2   512   502  1.980960030E+01 -1.602381085E+02  3.229944829E+02  3.611012430E+02  0.000000000E+00  0.00000E+00  9.000E+00
#rwgt            1           1   2.6466857220141207E-002           6       56643           0
</event>
<event>
      5   9999  3.19816E-02  1.13295E+01 -1.00000E+00  1.89692E-01
      21    -1     0     0   511   501  0.000000000E+00  0.000000000E+00  1.470496978E+03  1.470496978E+03  0.000000000E+00  0.00000E+00  9.000E+00
      21    -1     0     0   501   502  0.000000000E+00  0.000000000E+00 -9.954678796E+01  9.954678796E+01  0.000000000E+00  0.00000E+00  9.000E+00
      25     1     1     2     0     0 -2.413719548E+02  9.796666085E+01  1.838697146E+02  3.424776769E+02  1.250000000E+02  0.00000E+00  9.000E+00
      25     1     1     2     0     0  2.516789810E+02 -1.026701235E+02  1.164293190E+03  1.202117754E+03  1.250000000E+02  0.00000E+00  9.000E+00
      21     1     1     2   511   502 -1.030702619E+01  4.703462663E+00  2.278728576E+01  2.544833476E+01  3.371747881E-07  0.00000E+00  9.000E+00
#rwgt            1           1   2.7056965154355316E-002           6       56693           0
</event>
<event>
      5   9999  3.19816E-02  4.34985E+02 -1.00000E+00  1.00602E-01
      21    -1     0     0   502   501  0.000000000E+00  0.000000000E+00  7.222351190E+02  7.222351190E+02  0.000000000E+00  0.00000E+00  9.000E+00
       2    -1     0     0   501     0  0.000000000E+00  0.000000000E+00 -9.738534975E+02  9.738534975E+02  0.000000000E+00  0.00000E+00  9.000E+00
      25     1     1     2     0     0  3.851290990E+02 -4.792687098E+02 -1.591353837E+02  6.472804566E+02  1.250000000E+02  0.00000E+00  9.000E+00
      25     1     1     2     0     0 -5.887288291E+02  9.487422183E+01 -3.872785235E+01  6.105142085E+02  1.250000000E+02  0.00000E+00  9.000E+00
       2     1     1     2   502     0  2.035997301E+02  3.843944880E+02 -5.375514244E+01  4.382939514E+02  1.099830875E-05  0.00000E+00  9.000E+00
#rwgt            2          13   3.7529850777173095E-004           6       56969           0
</event>
<event>
      5   9999  3.19816E-02  2.70006E+02 -1.00000E+00  1.07100E-01
      21    -1     0     0   502   511  0.000000000E+00  0.000000000E+00  1.909595008E+03  1.909595008E+03  0.000000000E+00  0.00000E+00  9.000E+00
      21    -1     0     0   501   502  0.000000000E+00  0.000000000E+00 -1.531027405E+03  1.531027405E+03  0.000000000E+00  0.00000E+00  9.000E+00
      25     1     1     2     0     0  1.825628425E+02 -8.499373679E+01 -9.655187884E+01  2.559304438E+02  1.250000000E+02  0.00000E+00  9.000E+00
      25     1     1     2     0     0 -1.048533514E+01 -1.230752963E+02 -1.339053792E+03  1.350536016E+03  1.250000000E+02  0.00000E+00  9.000E+00
      21     1     1     2   501   511 -1.720775073E+02  2.080690331E+02  1.814173274E+03  1.834155953E+03  2.157918644E-05  0.00000E+00  9.000E+00
#rwgt            1           1   2.5056707569991329E-002           6       57048           0
</event>
<event>
      5   9999  3.19816E-02  2.16318E+02 -1.00000E+00  1.10422E-01
      -1    -1     0     0     0   501  0.000000000E+00  0.000000000E+00  8.227609452E+02  8.227609452E+02  0.000000000E+00  0.00000E+00  9.000E+00
      21    -1     0     0   501   502  0.000000000E+00  0.000000000E+00 -7.954668447E+02  7.954668447E+02  0.000000000E+00  0.00000E+00  9.000E+00
      25     1     1     2     0     0 -3.775183535E+02 -9.563996894E+01  9.225312577E+01  4.192883854E+02  1.250000000E+02  0.00000E+00  9.000E+00
      25     1     1     2     0     0  3.839859111E+02 -1.205816747E+02 -5.352695196E+02  6.812661586E+02  1.250000000E+02  0.00000E+00  9.000E+00
      -1     1     1     2     0   502 -6.467557655E+00  2.162216436E+02  4.703104943E+02  5.176732459E+02  5.394796609E-06  0.00000E+00  9.000E+00
#rwgt            1           1   2.7498528319001857E-002           6       57118           0
</event>
<event>
      5   9999  3.19816E-02  1.31320E+01 -1.00000E+00  1.83004E-01
      21    -1     0     0   502   501  0.000000000E+00  0.000000000E+00  1.547726466E+03  1.547726466E+03  0.000000000E+00  0.00000E+00  9.000E+00
      21    -1     0     0   501   511  0.000000000E+00  0.000000000E+00 -1.198028494E+03  1.198028494E+03  0.000000000E+00  0.00000E+00  9.000E+00
      25     1     1     2     0     0  4.157101117E+02 -3.198687824E+02  7.099881823E+02  8.915375224E+02  1.250000000E+02  0.00000E+00  9.000E+00
      25     1     1     2     0     0 -4.279872159E+02  3.152081890E+02  6.471263545E+02  8.467152875E+02  1.250000000E+02  0.00000E+00  9.000E+00
      21     1     1     2   502   511  1.227710424E+01  4.660593336E+00 -1.007416565E+03  1.007502151E+03  1.078959322E-05  0.00000E+00  9.000E+00
#rwgt            1           1   3.0526348599155949E-002           6       57193           0
</event>
<event>
      5   9999  3.19816E-02  8.11456E+01 -1.00000E+00  1.28051E-01
      21    -1     0     0   502   501  0.000000000E+00  0.000000000E+00  8.627862914E+01  8.627862914E+01  0.000000000E+00  0.00000E+00  9.000E+00
      21    -1     0     0   512   502  0.000000000E+00  0.000000000E+00 -1.984804945E+03  1.984804945E+03  0.000000000E+00  0.00000E+00  9.000E+00
      25     1     1     2     0     0  1.982075445E+02  2.078306529E+02 -3.138059391E+02  4.433722797E+02  1.250000000E+02  0.00000E+00  9.000E+00
      25     1     1     2     0     0 -2.235783157E+02 -1.307532419E+02 -1.144899737E+03  1.180467739E+03  1.250000000E+02  0.00000E+00  9.000E+00
      21     1     1     2   512   501  2.537077116E+01 -7.707741098E+01 -4.398206399E+02  4.472435563E+02  0.000000000E+00  0.00000E+00  9.000E+00
#rwgt            1           1   3.3603780874204611E-002           6       57471           0
</event>
<event>
      5   9999  3.19816E-02  1.63406E+02 -1.00000E+00  1.14939E-01
      21    -1     0     0   502   501  0.000000000E+00  0.000000000E+00  4.944066704E+02  4.944066704E+02  0.000000000E+00  0.00000E+00  9.000E+00
      21    -1     0     0   501   511  0.000000000E+00  0.000000000E+00 -2.179621676E+02  2.179621676E+02  0.000000000E+00  0.00000E+00  9.000E+00
      25     1     1     2     0     0  7.923848457E+01  2.709838775E+01 -7.686036825E+01  1.689543615E+02  1.250000000E+02  0.00000E+00  9.000E+00
      25     1     1     2     0     0  1.343625860E+01  1.074858090E+02  3.416622086E+02  3.795942531E+02  1.250000000E+02  0.00000E+00  9.000E+00
      21     1     1     2   502   511 -9.267474317E+01 -1.345841967E+02  1.164266239E+01  1.638202235E+02  4.053115845E-06  0.00000E+00  9.000E+00
#rwgt            1           1   2.9777524276067089E-002           6       57570           0
</event>
<event>
      5   9999  3.19816E-02  3.62522E+01 -1.00000E+00  1.47541E-01
      21    -1     0     0   512   501  0.000000000E+00  0.000000000E+00  2.947412926E+02  2.947412926E+02  0.000000000E+00  0.00000E+00  9.000E+00
      21    -1     0     0   501   502  0.000000000E+00  0.000000000E+00 -3.910678176E+02  3.910678176E+02  0.000000000E+00  0.00000E+00  9.000E+00
      25     1     1     2     0     0  1.029405256E+02 -2.031363160E+02  1.603835376E+02  3.053014802E+02  1.250000000E+02  0.00000E+00  9.000E+00
      25     1     1     2     0     0 -8.006683634E+01  1.750113164E+02 -2.566067960E+02  3.442552932E+02  1.250000000E+02  0.00000E+00  9.000E+00
      21     1     1     2   512   502 -2.287368923E+01  2.812499961E+01 -1.032665150E-01  3.625233684E+01  7.217719911E-07  0.00000E+00  9.000E+00
#rwgt            1           1   2.9013964861882475E-002           6       57608           0
</event>
<event>
      5   9999  3.19816E-02  3.03107E+01 -1.00000E+00  1.52730E-01
      21    -1     0     0   502   511  0.000000000E+00  0.000000000E+00  3.178234210E+02  3.178234210E+02  0.000000000E+00  0.00000E+00  9.000E+00
      21    -1     0     0   501   502  0.000000000E+00  0.000000000E+00 -1.664596087E+03  1.664596087E+03  0.000000000E+00  0.00000E+00  9.000E+00
      25     1     1     2     0     0 -3.067210997E+01  5.912313691E+02 -1.118535840E+03  1.271708589E+03  1.250000000E+02  0.00000E+00  9.000E+00
      25     1     1     2     0     0  1.283857356E+01 -5.667220574E+02 -2.847630968E+02  6.465707545E+02  1.250000000E+02  0.00000E+00  9.000E+00
      21     1     1     2   501   511  1.783353640E+01 -2.450931174E+01  5.652627080E+01  6.414016427E+01  1.507891493E-06  0.00000E+00  9.000E+00
#rwgt            1           1   2.9739938560476142E-002           6       57715           0
</event>
<event>
      5   9999  3.19816E-02  6.57815E+01 -1.00000E+00  1.32603E-01
      21    -1     0     0   502   501  0.000000000E+00  0.000000000E+00  5.705075002E+02  5.705075002E+02  0.000000000E+00  0.00000E+00  9.000E+00
       2    -1     0     0   501     0  0.000000000E+00  0.000000000E+00 -1.987342648E+03  1.987342648E+03  0.000000000E+00  0.00000E+00  9.000E+00
      25     1     1     2     0     0  1.270729308E+02  9.116562033E+02 -3.054398572E+02  9.778461378E+02  1.250000000E+02  0.00000E+00  9.000E+00
      25     1     1     2     0     0 -9.057739137E+01 -9.663853163E+02 -8.066289295E+02  1.268219253E+03  1.250000000E+02  0.00000E+00  9.000E+00
       2     1     1     2   502     0 -3.649553940E+01  5.472911298E+01 -3.047663615E+02  3.117847579E+02  0.000000000E+00  0.00000E+00  9.000E+00
#rwgt            1           1   3.0339941690491073E-002           6       57898           0
</event>
<event>
      5   9999  3.19816E-02  4.02144E+02 -1.00000E+00  1.01616E-01
       1    -1     0     0   502     0  0.000000000E+00  0.000000000E+00  2.109958555E+03  2.109958555E+03  0.000000000E+00  0.00000E+00  9.000E+00
      21    -1     0     0   501   502  0.000000000E+00  0.000000000E+00 -1.622939644E+02  1.622939644E+02  0.000000000E+00  0.00000E+00  9.000E+00
      25     1     1     2     0     0 -2.457866506E+02  1.694970481E+01  7.488169893E+01  2.862352859E+02  1.250000000E+02  0.00000E+00  9.000E+00
      25     1     1     2     0     0 -1.512911623E+02  4.668193462E+01  2.921375311E+02  3.550176839E+02  1.250000000E+02  0.00000E+00  9.000E+00
       1     1     1     2   501     0  3.970778129E+02 -6.363163943E+01  1.580645361E+03  1.630999550E+03  3.051757812E-05  0.00000E+00  9.000E+00
#rwgt            2          17   1.0914065718449009E-003           6       58183           0
</event>
<event>
      5   9999  3.19816E-02  1.69142E+01 -1.00000E+00  1.72607E-01
      21    -1     0     0   502   511  0.000000000E+00  0.000000000E+00  1.935241168E+02  1.935241168E+02  0.000000000E+00  0.00000E+00  9.000E+00
      21    -1     0     0   501   502  0.000000000E+00  0.000000000E+00 -1.440996863E+03  1.440996863E+03  0.000000000E+00  0.00000E+00  9.000E+00
      25     1     1     2     0     0  2.633391072E+02  8.831813448E+00 -1.041181805E+03  1.081253919E+03  1.250000000E+02  0.00000E+00  9.000E+00
      25     1     1     2     0     0 -2.790389023E+02 -2.538451725E+00 -3.174905743E+02  4.407884045E+02  1.250000000E+02  0.00000E+00  9.000E+00
      21     1     1     2   501   511  1.569979513E+01 -6.293361723E+00  1.111996325E+02  1.124786568E+02  1.348699152E-06  0.00000E+00  9.000E+00
#rwgt            1           1   3.0078261200113164E-002           6       58202           0
</event>
<event>
      5   9999  3.19816E-02  3.13403E+01 -1.00000E+00  1.51733E-01
      21    -1     0     0   502   512  0.000000000E+00  0.000000000E+00  2.242637298E+03  2.242637298E+03  0.000000000E+00  0.00000E+00  9.000E+00
      21    -1     0     0   501   502  0.000000000E+00  0.000000000E+00 -5.299018575E+02  5.299018575E+02  0.000000000E+00  0.00000E+00  9.000E+00
      25     1     1     2     0     0 -5.558007847E+01 -2.373367511E+02  9.841288703E+01  2.910807017E+02  1.250000000E+02  0.00000E+00  9.000E+00
      25     1     1     2     0     0  3.399766345E+01  2.146119553E+02 -3.972019520E+02  4.696898158E+02  1.250000000E+02  0.00000E+00  9.000E+00
      21     1     1     2   501   512  2.158241502E+01  2.272479588E+01  2.011524506E+03  2.011768638E+03  2.157918644E-05  0.00000E+00  9.000E+00
#rwgt            1           1   2.7025654645556452E-002           6       58417           0
</event>
<event>
      5   9999  3.19816E-02  1.52828E+02 -1.00000E+00  1.16073E-01
      21    -1     0     0   511   501  0.000000000E+00  0.000000000E+00  9.205743646E+02  9.205743646E+02  0.000000000E+00  0.00000E+00  9.000E+00
      21    -1     0     0   501   502  0.000000000E+00  0.000000000E+00 -3.599124198E+02  3.599124198E+02  0.000000000E+00  0.00000E+00  9.000E+00
      25     1     1     2     0     0 -2.080492468E+02 -3.065789427E+02  1.153253547E+02  4.076764338E+02  1.250000000E+02  0.00000E+00  9.000E+00
      25     1     1     2     0     0  2.251918704E+02  1.547152961E+02 -9.195063741E+01  3.142103134E+02  1.250000000E+02  0.00000E+00  9.000E+00
      21     1     1     2   511   502 -1.714262360E+01  1.518636466E+02  5.372872275E+02  5.586000372E+02  7.629394531E-06  0.00000E+00  9.000E+00
#rwgt            1           1   3.0253752321743151E-002           6       58573           0
</event>
<event>
      5   9999  3.19816E-02  1.09952E+02 -1.00000E+00  1.22003E-01
      21    -1     0     0   502   501  0.000000000E+00  0.000000000E+00  2.592633441E+03  2.592633441E+03  0.000000000E+00  0.00000E+00  9.000E+00
      21    -1     0     0   512   502  0.000000000E+00  0.000000000E+00 -3.538338505E+02  3.538338505E+02  0.000000000E+00  0.00000E+00  9.000E+00
      25     1     1     2     0     0 -1.718265935E+02 -2.998484619E+02  2.218640512E+03  2.248871761E+03  1.250000000E+02  0.00000E+00  9.000E+00
      25     1     1     2     0     0  2.319928397E+02  3.918782490E+02  1.784743897E+02  5.048438843E+02  1.250000000E+02  0.00000E+00  9.000E+00
      21     1     1     2   512   501 -6.016624618E+01 -9.202978709E+01 -1.583153116E+02  1.927516453E+02  4.264961200E-06  0.00000E+00  9.000E+00
#rwgt            1           1   3.4830762843407616E-002           6       58633           0
</event>
<event>
      5   9999  3.19816E-02  1.42996E+02 -1.00000E+00  1.17223E-01
       1    -1     0     0   502     0  0.000000000E+00  0.000000000E+00  2.023382124E+03  2.023382124E+03  0.000000000E+00  0.00000E+00  9.000E+00
      21    -1     0     0   501   502  0.000000000E+00  0.000000000E+00 -7.209998609E+02  7.209998609E+02  0.000000000E+00  0.00000E+00  9.000E+00
      25     1     1     2     0     0  7.894131595E+00  5.778112384E+02 -4.336500335E+01  5.928184107E+02  1.250000000E+02  0.00000E+00  9.000E+00
      25     1     1     2     0     0  2.484527610E+01 -4.386134538E+02 -2.692771944E+02  5.302209511E+02  1.250000000E+02  0.00000E+00  9.000E+00
       1     1     1     2   501     0 -3.273940769E+01 -1.391977846E+02  1.615024461E+03  1.621342623E+03  0.000000000E+00  0.00000E+00  9.000E+00
#rwgt            2          17   1.4473674605812185E-003           6       58793           0
</event>
<event>
      5   9999  3.19816E-02  2.47753E+01 -1.00000E+00  1.59045E-01
      21    -1     0     0   511   501  0.000000000E+00  0.000000000E+00  4.923266776E+02  4.923266776E+02  0.000000000E+00  0.00000E+00  9.000E+00
      21    -1     0     0   501   502  0.000000000E+00  0.000000000E+00 -7.949024620E+01  7.949024620E+01  0.000000000E+00  0.00000E+00  9.000E+00
      25     1     1     2     0     0 -2.988246322E+01 -4.692504082E+01  3.617571943E+02  3.867663231E+02  1.250000000E+02  0.00000E+00  9.000E+00
      25     1     1     2     0     0  1.491000999E+01  6.666438392E+01  1.779131407E+01  1.435547956E+02  1.250000000E+02  0.00000E+00  9.000E+00
      21     1     1     2   511   502  1.497245323E+01 -1.973934310E+01  3.328792311E+01  4.149580517E+01  4.768371582E-07  0.00000E+00  9.000E+00
#rwgt            1           1   3.1228125298662847E-002           6       58872           0
</event>
<event>
      5   9999  3.19816E-02  2.89442E+01 -1.00000E+00  1.54128E-01
      21    -1     0     0   512   501  0.000000000E+00  0.000000000E+00  2.389407792E+02  2.389407792E+02  0.000000000E+00  0.00000E+00  9.000E+00
      21    -1     0     0   501   502  0.000000000E+00  0.000000000E+00 -1.510855539E+03  1.510855539E+03  0.000000000E+00  0.00000E+00  9.000E+00
      25     1     1     2     0     0 -1.259535156E+02  5.065866194E+02 -7.950737510E+02  9.593026428E+02  1.250000000E+02  0.00000E+00  9.000E+00
      25     1     1     2     0     0  1.397663106E+02 -4.811509032E+02 -5.236605886E+02  7.354496755E+02  1.250000000E+02  0.00000E+00  9.000E+00
      21     1     1     2   512   502 -1.381279498E+01 -2.543571621E+01  4.681957927E+01  5.504400029E+01  9.536743164E-07  0.00000E+00  9.000E+00
#rwgt            1           1   2.7962531506170708E-002           6       59020           0
</event>
<event>
      5   9999  3.19816E-02  1.98457E+01 -1.00000E+00  1.66647E-01
      21    -1     0     0   502   501  0.000000000E+00  0.000000000E+00  7.781109302E+02  7.781109302E+02  0.000000000E+00  0.00000E+00  9.000E+00
      21    -1     0     0   501   511  0.000000000E+00  0.000000000E+00 -8.464182423E+01  8.464182423E+01  0.000000000E+00  0.00000E+00  9.000E+00
      25     1     1     2     0     0  1.922875062E+02 -9.861850056E+01  3.046195552E+02  3.938504375E+02  1.250000000E+02  0.00000E+00  9.000E+00
      25     1     1     2     0     0 -1.745750226E+02  1.075694330E+02  3.724329555E+02  4.431466211E+02  1.250000000E+02  0.00000E+00  9.000E+00
      21     1     1     2   502   511 -1.771248364E+01 -8.950932450E+00  1.641659528E+01  2.575569586E+01  3.371747881E-07  0.00000E+00  9.000E+00
#rwgt            1           1   2.7337412194597149E-002           6       59171           0
</event>
<event>
      5   9999  3.19816E-02  1.41886E+02 -1.00000E+00  1.17359E-01
      21    -1     0     0   502   512  0.000000000E+00  0.000000000E+00  9.043994714E+02  9.043994714E+02  0.000000000E+00  0.00000E+00  9.000E+00
      21    -1     0     0   501   502  0.000000000E+00  0.000000000E+00 -1.493496615E+02  1.493496615E+02  0.000000000E+00  0.00000E+00  9.000E+00
      25     1     1     2     0     0 -1.070017833E+02 -7.231934799E+01 -1.679445233E+01  1.805173769E+02  1.250000000E+02  0.00000E+00  9.000E+00
      25     1     1     2     0     0  9.757383861E+01  2.138917866E+02  5.179774429E+02  5.824053414E+02  1.250000000E+02  0.00000E+00  9.000E+00
      21     1     1     2   501   512  9.427944692E+00 -1.415724386E+02  2.538668193E+02  2.908264146E+02  3.814697266E-06  0.00000E+00  9.000E+00
#rwgt            2          11   3.0099349837926239E-003           6       59321           0
</event>
<event>
      5   9999  3.19816E-02  1.07814E+02 -1.00000E+00  1.22376E-01
      21    -1     0     0   502   501  0.000000000E+00  0.000000000E+00  3.960952709E+02  3.960952709E+02  0.000000000E+00  0.00000E+00  9.000E+00
      21    -1     0     0   511   502  0.000000000E+00  0.000000000E+00 -7.480323472E+02  7.480323472E+02  0.000000000E+00  0.00000E+00  9.000E+00
      25     1     1     2     0     0 -1.872639589E+02 -4.620687564E+01  2.467283520E+01  2.311636097E+02  1.250000000E+02  0.00000E+00  9.000E+00
      25     1     1     2     0     0  8.243311566E+01  2.102131974E+01  2.418236089E+02  2.852030369E+02  1.250000000E+02  0.00000E+00  9.000E+00
      21     1     1     2   511   501  1.048308433E+02  2.518555590E+01 -6.184335205E+02  6.277609714E+02  7.629394531E-06  0.00000E+00  9.000E+00
#rwgt            1           1   2.9141439724480030E-002           6       59356           0
</event>
<event>
      5   9999  3.19816E-02  7.65966E+01 -1.00000E+00  1.29270E-01
      21    -1     0     0   502   512  0.000000000E+00  0.000000000E+00  4.303896314E+02  4.303896314E+02  0.000000000E+00  0.00000E+00  9.000E+00
      21    -1     0     0   501   502  0.000000000E+00  0.000000000E+00 -1.142867082E+03  1.142867082E+03  0.000000000E+00  0.00000E+00  9.000E+00
      25     1     1     2     0     0 -2.950267344E+02 -1.025940514E+01 -9.722329750E+02  1.023722612E+03  1.250000000E+02  0.00000E+00  9.000E+00
      25     1     1     2     0     0  3.672439808E+02  3.578792457E+01  1.539131383E+02  4.188832428E+02  1.250000000E+02  0.00000E+00  9.000E+00
      21     1     1     2   501   512 -7.221724641E+01 -2.552851943E+01  1.058423862E+02  1.306508580E+02  1.348699152E-06  0.00000E+00  9.000E+00
#rwgt            1           1   3.0316708672752775E-002           6       59390           0
</event>
<event>
      5   9999  3.19816E-02  8.81401E+01 -1.00000E+00  1.26345E-01
       2    -1     0     0   502     0  0.000000000E+00  0.000000000E+00  2.806940877E+03  2.806940877E+03  0.000000000E+00  0.00000E+00  9.000E+00
      21    -1     0     0   501   502  0.000000000E+00  0.000000000E+00 -7.684646848E+01  7.684646848E+01  0.000000000E+00  0.00000E+00  9.000E+00
      25     1     1     2     0     0  1.081377644E+02  3.390333813E+01  5.559424993E+02  5.809821641E+02  1.250000000E+02  0.00000E+00  9.000E+00
      25     1     1     2     0     0 -1.186447167E+02  5.360823633E+01  6.503319579E+01  1.918455847E+02  1.250000000E+02  0.00000E+00  9.000E+00
       2     1     1     2   501     0  1.050695230E+01 -8.751157446E+01  2.109118713E+03  2.110959596E+03  5.285799584E-05  0.00000E+00  9.000E+00
#rwgt            1           1   2.7914670172267706E-002           6       59525           0
</event>
<event>
      5   9999  3.19816E-02  1.17593E+02 -1.00000E+00  1.20743E-01
      21    -1     0     0   502   511  0.000000000E+00  0.000000000E+00  1.089651839E+03  1.089651839E+03  0.000000000E+00  0.00000E+00  9.000E+00
      21    -1     0     0   501   502  0.000000000E+00  0.000000000E+00 -5.417355774E+02  5.417355774E+02  0.000000000E+00  0.00000E+00  9.000E+00
      25     1     1     2     0     0  2.152782192E+02 -5.295118489E+02  6.222482645E+02  8.541343058E+02  1.250000000E+02  0.00000E+00  9.000E+00
      25     1     1     2     0     0 -9.889816390E+01  5.126642042E+02 -2.284003361E+02  5.834356405E+02  1.250000000E+02  0.00000E+00  9.000E+00
      21     1     1     2   501   511 -1.163800553E+02  1.684764472E+01  1.540683335E+02  1.938174703E+02  1.907348633E-06  0.00000E+00  9.000E+00
#rwgt            1           1   3.0463370046665651E-002           6       59588           0
</event>
<event>
      5   9999  3.19816E-02  1.74386E+02 -1.00000E+00  1.13858E-01
      21    -1     0     0   512   501  0.000000000E+00  0.000000000E+00  4.066177864E+02  4.066177864E+02  0.000000000E+00  0.00000E+00  9.000E+00
      21    -1     0     0   501   502  0.000000000E+00  0.000000000E+00 -7.040431906E+02  7.040431906E+02  0.000000000E+00  0.00000E+00  9.000E+00
      25     1     1     2     0     0 -3.241851503E+01 -4.351099695E+02 -1.038040066E+02  4.655877119E+02  1.250000000E+02  0.00000E+00  9.000E+00
      25     1     1     2     0     0  1.112303294E+02  2.795487926E+02 -2.982571739E+02  4.417035832E+02  1.250000000E+02  0.00000E+00  9.000E+00
      21     1     1     2   512   502 -7.881181437E+01  1.555611769E+02  1.046357763E+02  2.033696820E+02  1.348699152E-06  0.00000E+00  9.000E+00
#rwgt            1           1   1.6584955634089599E-002           6       59688           0
</event>
<event>
      5   9999  3.19816E-02  7.63425E+01 -1.00000E+00  1.29341E-01
      21    -1     0     0   511   501  0.000000000E+00  0.000000000E+00  7.976173565E+02  7.976173565E+02  0.000000000E+00  0.00000E+00  9.000E+00
      21    -1     0     0   501   502  0.000000000E+00  0.000000000E+00 -1.009241608E+02  1.009241608E+02  0.000000000E+00  0.00000E+00  9.000E+00
      25     1     1     2     0     0  1.322686037E+02 -1.547088971E+02  3.800130224E+02  4.488482188E+02  1.250000000E+02  0.00000E+00  9.000E+00
      25     1     1     2     0     0 -5.596056869E+01  1.524146928E+02  1.170921301E+02  2.360029465E+02  1.250000000E+02  0.00000E+00  9.000E+00
      21     1     1     2   511   502 -7.630803497E+01  2.294204282E+00  1.995880432E+02  2.136903521E+02  3.814697266E-06  0.00000E+00  9.000E+00
#rwgt            1           1   2.9410253599181143E-002           6       59745           0
</event>
<event>
      5   9999  3.50415E-02  4.88142E+01 -1.00000E+00  1.39673E-01
      21    -1     0     0   502   501  0.000000000E+00  0.000000000E+00  2.137140319E+03  2.137140319E+03  0.000000000E+00  0.00000E+00  9.000E+00
      21    -1     0     0   501   512  0.000000000E+00  0.000000000E+00 -3.482652747E+01  3.482652747E+01  0.000000000E+00  0.00000E+00  9.000E+00
      25     1     1     2     0     0  1.417669288E+02  7.775436838E+01  5.938128834E+02  6.279986819E+02  1.250000000E+02  0.00000E+00  9.000E+00
      25     1     1     2     0     0 -1.880973970E+02 -6.238173040E+01  1.445004881E+03  1.463877118E+03  1.250000000E+02  0.00000E+00  9.000E+00
      21     1     1     2   502   512  4.633046814E+01 -1.537263798E+01  6.349602770E+01  8.009104701E+01  9.536743164E-07  0.00000E+00  9.000E+00
#rwgt            1           1  0.10214753457225938                6       59827           0
</event>
<event>
      5   9999  3.19816E-02  3.27112E+01 -1.00000E+00  1.50475E-01
      21    -1     0     0   502   501  0.000000000E+00  0.000000000E+00  1.616402257E+03  1.616402257E+03  0.000000000E+00  0.00000E+00  9.000E+00
      21    -1     0     0   501   511  0.000000000E+00  0.000000000E+00 -5.840673117E+01  5.840673117E+01  0.000000000E+00  0.00000E+00  9.000E+00
      25     1     1     2     0     0 -1.375328535E+02 -1.286068987E+02  1.278695643E+03  1.298515525E+03  1.250000000E+02  0.00000E+00  9.000E+00
      25     1     1     2     0     0  1.493357642E+02  9.809928346E+01  2.283152342E+02  3.157174148E+02  1.250000000E+02  0.00000E+00  9.000E+00
      21     1     1     2   502   511 -1.180291066E+01  3.050761522E+01  5.098464890E+01  6.057604898E+01  6.743495762E-07  0.00000E+00  9.000E+00
#rwgt            1           1   3.6991029567950896E-002           6       59917           0
</event>
<event>
      5   9999  3.19816E-02  1.04635E+02 -1.00000E+00  1.22949E-01
      21    -1     0     0   502   501  0.000000000E+00  0.000000000E+00  1.456882951E+03  1.456882951E+03  0.000000000E+00  0.00000E+00  9.000E+00
      21    -1     0     0   512   502  0.000000000E+00  0.000000000E+00 -1.094799949E+02  1.094799949E+02  0.000000000E+00  0.00000E+00  9.000E+00
      25     1     1     2     0     0 -2.195542248E+02  2.203516324E+02  6.357498681E+02  7.187223347E+02  1.250000000E+02  0.00000E+00  9.000E+00
      25     1     1     2     0     0  2.953201390E+02 -1.481852621E+02  5.845882115E+02  6.830382372E+02  1.250000000E+02  0.00000E+00  9.000E+00
      21     1     1     2   512   501 -7.576591417E+01 -7.216637021E+01  1.270648766E+02  1.646023742E+02  2.697398305E-06  0.00000E+00  9.000E+00
#rwgt            1           1   2.9914764879806776E-002           6       60031           0
</event>
<event>
      5   9999  3.19816E-02  6.35260E+01 -1.00000E+00  1.33391E-01
       1    -1     0     0   502     0  0.000000000E+00  0.000000000E+00  1.030941752E+03  1.030941752E+03  0.000000000E+00  0.00000E+00  9.000E+00
      21    -1     0     0   501   502  0.000000000E+00  0.000000000E+00 -6.461064734E+02  6.461064734E+02  0.000000000E+00  0.00000E+00  9.000E+00
      25     1     1     2     0     0  3.773716285E+02  3.481188492E+02 -3.695879964E+02  6.448382481E+02  1.250000000E+02  0.00000E+00  9.000E+00
      25     1     1     2     0     0 -3.379559984E+02 -2.982996140E+02  2.629005814E+02  5.365991356E+02  1.250000000E+02  0.00000E+00  9.000E+00
       1     1     1     2   501     0 -3.941563007E+01 -4.981923518E+01  4.915226939E+02  4.956108420E+02  5.394796609E-06  0.00000E+00  9.000E+00
#rwgt            1           1   3.1902050917465050E-002           6       60141           0
</event>
<event>
      5   9999  3.19816E-02  8.39243E+00 -1.00000E+00  2.04988E-01
      21    -1     0     0   511   501  0.000000000E+00  0.000000000E+00  4.092604742E+02  4.092604742E+02  0.000000000E+00  0.00000E+00  9.000E+00
      21    -1     0     0   501   502  0.000000000E+00  0.000000000E+00 -1.024398494E+03  1.024398494E+03  0.000000000E+00  0.00000E+00  9.000E+00
      25     1     1     2     0     0 -2.233329497E+02 -2.773845491E+02  1.750499817E+02  4.160376072E+02  1.250000000E+02  0.00000E+00  9.000E+00
      25     1     1     2     0     0  2.179264525E+02  2.709656237E+02 -8.658993859E+02  9.414462568E+02  1.250000000E+02  0.00000E+00  9.000E+00
      21     1     1     2   511   502  5.406497217E+00  6.418925405E+00  7.571138427E+01  7.617510435E+01  9.536743164E-07  0.00000E+00  9.000E+00
#rwgt            2          11   1.5286884884769820E-003           6       60350           0
</event>
<event>
      5   9999  3.19816E-02  2.78124E+01 -1.00000E+00  1.55359E-01
      21    -1     0     0   502   501  0.000000000E+00  0.000000000E+00  3.395202080E+02  3.395202080E+02  0.000000000E+00  0.00000E+00  9.000E+00
      21    -1     0     0   501   512  0.000000000E+00  0.000000000E+00 -1.545307894E+03  1.545307894E+03  0.000000000E+00  0.00000E+00  9.000E+00
      25     1     1     2     0     0 -6.388606323E+02  2.857418425E+02 -6.059505810E+02  9.341265518E+02  1.250000000E+02  0.00000E+00  9.000E+00
      25     1     1     2     0     0  6.318874188E+02 -2.588178296E+02 -5.234869579E+02  8.694434852E+02  1.250000000E+02  0.00000E+00  9.000E+00
      21     1     1     2   502   512  6.973213548E+00 -2.692401293E+01 -7.635014671E+01  8.125806472E+01  1.348699152E-06  0.00000E+00  9.000E+00
#rwgt            1           1   2.8577432515578354E-002           6       60385           0
</event>
<event>
      5   9999  3.19816E-02  2.88822E+01 -1.00000E+00  1.54194E-01
      21    -1     0     0   502   501  0.000000000E+00  0.000000000E+00  2.992856511E+03  2.992856511E+03  0.000000000E+00  0.00000E+00  9.000E+00
      21    -1     0     0   511   502  0.000000000E+00  0.000000000E+00 -1.024492830E+02  1.024492830E+02  0.000000000E+00  0.00000E+00  9.000E+00
      25     1     1     2     0     0 -1.981511960E+02 -1.087833192E+02  2.583646036E+03  2.596526439E+03  1.250000000E+02  0.00000E+00  9.000E+00
      25     1     1     2     0     0  1.692732775E+02  1.092809405E+02  3.641450246E+02  4.345369551E+02  1.250000000E+02  0.00000E+00  9.000E+00
      21     1     1     2   511   501  2.887791851E+01 -4.976213295E-01 -5.738383233E+01  6.424240047E+01  3.371747881E-06  0.00000E+00  9.000E+00
#rwgt            1           1   3.6790985325132849E-002           6       60626           0
</event>
<event>
      5   9999  3.19816E-02  4.47229E+01 -1.00000E+00  1.41897E-01
      21    -1     0     0   502   512  0.000000000E+00  0.000000000E+00  1.193036578E+03  1.193036578E+03  0.000000000E+00  0.00000E+00  9.000E+00
      21    -1     0     0   501   502  0.000000000E+00  0.000000000E+00 -4.141564120E+02  4.141564120E+02  0.000000000E+00  0.00000E+00  9.000E+00
      25     1     1     2     0     0  2.356310815E+01 -4.997856125E+02  8.736975474E+02  1.014550779E+03  1.250000000E+02  0.00000E+00  9.000E+00
      25     1     1     2     0     0 -6.754350787E+01  5.079010434E+02 -1.206094757E+02  5.410150100E+02  1.250000000E+02  0.00000E+00  9.000E+00
      21     1     1     2   501   512  4.398039972E+01 -8.115430909E+00  2.579209433E+01  5.162720124E+01  4.768371582E-07  0.00000E+00  9.000E+00
#rwgt            2          11   2.0760782060576896E-002           6       60914           0
</event>
<event>
      5   9999  3.19816E-02  3.45416E+01 -1.00000E+00  1.48906E-01
       4    -1     0     0   502     0  0.000000000E+00  0.000000000E+00  9.252876750E+02  9.252876750E+02  0.000000000E+00  0.00000E+00  9.000E+00
      21    -1     0     0   501   502  0.000000000E+00  0.000000000E+00 -6.501843831E+01  6.501843831E+01  0.000000000E+00  0.00000E+00  9.000E+00
      25     1     1     2     0     0 -1.058952386E+01  1.533557970E+00  8.036566548E+02  8.133901331E+02  1.250000000E+02  0.00000E+00  9.000E+00
      25     1     1     2     0     0  4.510680515E+01 -2.830402688E+00  4.795641870E+01  1.413062389E+02  1.250000000E+02  0.00000E+00  9.000E+00
       4     1     1     2   501     0 -3.451728129E+01  1.296844718E+00  8.656163145E+00  3.560974129E+01  5.840038640E-07  0.00000E+00  9.000E+00
#rwgt            1           1   3.2462503292609926E-002           6       60934           0
</event>
<event>
      5   9999  3.19816E-02  5.48937E+01 -1.00000E+00  1.36801E-01
      21    -1     0     0   502   501  0.000000000E+00  0.000000000E+00  3.777664429E+01  3.777664429E+01  0.000000000E+00  0.00000E+00  9.000E+00
       2    -1     0     0   501     0  0.000000000E+00  0.000000000E+00 -1.845129399E+03  1.845129399E+03  0.000000000E+00  0.00000E+00  9.000E+00
      25     1     1     2     0     0  9.971055215E+01 -1.267960118E+02 -3.621591752E+02  4.156966334E+02  1.250000000E+02  0.00000E+00  9.000E+00
      25     1     1     2     0     0 -1.070189253E+02  7.239100634E+01 -1.292619904E+03  1.305061195E+03  1.250000000E+02  0.00000E+00  9.000E+00
       2     1     1     2   502     0  7.308373138E+00  5.440500543E+01 -1.525736756E+02  1.621482144E+02  1.907348633E-06  0.00000E+00  9.000E+00
#rwgt            1           1   2.9764120810305963E-002           6       61022           0
</event>
<event>
      5   9999  3.19816E-02  1.15133E+02 -1.00000E+00  1.21136E-01
      21    -1     0     0   502   511  0.000000000E+00  0.000000000E+00  1.350923752E+03  1.350923752E+03  0.000000000E+00  0.00000E+00  9.000E+00
      21    -1     0     0   501   502  0.000000000E+00  0.000000000E+00 -1.191455043E+03  1.191455043E+03  0.000000000E+00  0.00000E+00  9.000E+00
      25     1     1     2     0     0  5.871995424E+02 -5.890291587E+02 -1.256395366E+02  8.503934064E+02  1.250000000E+02  0.00000E+00  9.000E+00
      25     1     1     2     0     0 -4.831689936E+02  5.397008562E+02 -5.060874522E+02  8.924566095E+02  1.250000000E+02  0.00000E+00  9.000E+00
      21     1     1     2   501   511 -1.040305488E+02  4.932830259E+01  7.911956977E+02  7.995287791E+02  1.078959322E-05  0.00000E+00  9.000E+00
#rwgt            1           1   3.1001102091761056E-002           6       61093           0
</event>
<event>
      5   9999  3.19816E-02  4.35095E+01 -1.00000E+00  1.42611E-01
      21    -1     0     0   512   501  0.000000000E+00  0.000000000E+00  7.572017761E+01  7.572017761E+01  0.000000000E+00  0.00000E+00  9.000E+00
      21    -1     0     0   501   502  0.000000000E+00  0.000000000E+00 -5.964635823E+02  5.964635823E+02  0.000000000E+00  0.00000E+00  9.000E+00
      25     1     1     2     0     0 -2.232390867E+01 -1.143984274E+02 -3.807162320E+02  4.173190703E+02  1.250000000E+02  0.00000E+00  9.000E+00
      25     1     1     2     0     0  6.181357776E+01  9.613255344E+01 -1.139910038E+02  2.041600724E+02  1.250000000E+02  0.00000E+00  9.000E+00
      21     1     1     2   512   502 -3.948966909E+01  1.826587397E+01 -2.603616887E+01  5.070461720E+01  8.920806376E-07  0.00000E+00  9.000E+00
#rwgt            1           1   3.0113477817603276E-002           6       61177           0
</event>
<event>
      5   9999  3.19816E-02  5.62033E+01 -1.00000E+00  1.36238E-01
      21    -1     0     0   502   511  0.000000000E+00  0.000000000E+00  1.303820482E+03  1.303820482E+03  0.000000000E+00  0.00000E+00  9.000E+00
      21    -1     0     0   501   502  0.000000000E+00  0.000000000E+00 -2.976605663E+02  2.976605663E+02  0.000000000E+00  0.00000E+00  9.000E+00
      25     1     1     2     0     0  3.861042051E+02  1.400262650E+02 -3.326435743E+01  4.305988035E+02  1.250000000E+02  0.00000E+00  9.000E+00
      25     1     1     2     0     0 -4.074645154E+02 -8.804025317E+01  6.817418273E+02  8.088110636E+02  1.250000000E+02  0.00000E+00  9.000E+00
      21     1     1     2   501   511  2.136031037E+01 -5.198601188E+01  3.576824461E+02  3.620711816E+02  0.000000000E+00  0.00000E+00  9.000E+00
#rwgt            1           1   3.0994710782049618E-002           6       61290           0
</event>
<event>
      5   9999  3.19816E-02  8.50188E+01 -1.00000E+00  1.27083E-01
      21    -1     0     0   502   501  0.000000000E+00  0.000000000E+00  1.152479242E+03  1.152479242E+03  0.000000000E+00  0.00000E+00  9.000E+00
      21    -1     0     0   501   512  0.000000000E+00  0.000000000E+00 -1.334781100E+02  1.334781100E+02  0.000000000E+00  0.00000E+00  9.000E+00
      25     1     1     2     0     0 -1.779635444E+02 -2.451805932E+02  2.349186083E+02  4.032323139E+02  1.250000000E+02  0.00000E+00  9.000E+00
      25     1     1     2     0     0  2.036293680E+02  1.641283607E+02  7.202993645E+02  7.764400896E+02  1.250000000E+02  0.00000E+00  9.000E+00
      21     1     1     2   502   512 -2.566582353E+01  8.105223249E+01  6.378315953E+01  1.062849487E+02  1.507891493E-06  0.00000E+00  9.000E+00
#rwgt            1           1   2.9647594596634953E-002           6       61398           0
</event>
<event>
      5   9999  3.19816E-02  1.08409E+02 -1.00000E+00  1.22271E-01
      21    -1     0     0   502   501  0.000000000E+00  0.000000000E+00  3.441643776E+02  3.441643776E+02  0.000000000E+00  0.00000E+00  9.000E+00
      21    -1     0     0   511   502  0.000000000E+00  0.000000000E+00 -2.152154163E+02  2.152154163E+02  0.000000000E+00  0.00000E+00  9.000E+00
      25     1     1     2     0     0  4.290174056E+01  6.159291156E+01  1.166781534E+02  1.867432397E+02  1.250000000E+02  0.00000E+00  9.000E+00
      25     1     1     2     0     0 -1.947134052E+01 -1.674399350E+02  1.006698720E+02  2.327545661E+02  1.250000000E+02  0.00000E+00  9.000E+00
      21     1     1     2   511   501 -2.343040005E+01  1.058470234E+02 -8.839906417E+01  1.398819880E+02  1.348699152E-06  0.00000E+00  9.000E+00
#rwgt            1           1   2.6998404594295512E-002           6       61630           0
</event>
<event>
      5   9999  3.19816E-02  5.52693E+01 -1.00000E+00  1.36637E-01
      21    -1     0     0   502   501  0.000000000E+00  0.000000000E+00  1.614546949E+02  1.614546949E+02  0.000000000E+00  0.00000E+00  9.000E+00
      21    -1     0     0   501   512  0.000000000E+00  0.000000000E+00 -4.127232950E+02  4.127232950E+02  0.000000000E+00  0.00000E+00  9.000E+00
      25     1     1     2     0     0  1.332222746E+02  2.571386326E+01 -1.563932382E+02  2.418537206E+02  1.250000000E+02  0.00000E+00  9.000E+00
      25     1     1     2     0     0 -1.877843877E+02 -1.690087018E+01 -4.346683216E+00  2.262576172E+02  1.250000000E+02  0.00000E+00  9.000E+00
      21     1     1     2   502   512  5.456211304E+01 -8.812993079E+00 -9.052867864E+01  1.060666521E+02  1.348699152E-06  0.00000E+00  9.000E+00
#rwgt            1           1   2.7061341822728634E-002           6       61693           0
</event>
<event>
      5   9999  3.19816E-02  4.98835E+02 -1.00000E+00  9.88808E-02
      21    -1     0     0   502   501  0.000000000E+00  0.000000000E+00  7.383361471E+02  7.383361471E+02  0.000000000E+00  0.00000E+00  9.000E+00
       1    -1     0     0   501     0  0.000000000E+00  0.000000000E+00 -1.399964925E+03  1.399964925E+03  0.000000000E+00  0.00000E+00  9.000E+00
      25     1     1     2     0     0 -4.025033487E+01 -3.228708827E+02  3.114330169E+02  4.674197475E+02  1.250000000E+02  0.00000E+00  9.000E+00
      25     1     1     2     0     0 -3.705810131E+02  3.993275759E+01 -1.089824953E+03  1.158563050E+03  1.250000000E+02  0.00000E+00  9.000E+00
       1     1     1     2   502     0  4.108313480E+02  2.829381251E+02  1.167631586E+02  5.123182744E+02  5.560829062E-06  0.00000E+00  9.000E+00
#rwgt            2          12   1.5812504078826088E-004           6       61777           0
</event>
<event>
      5   9999  3.19816E-02  2.49308E+02 -1.00000E+00  1.08271E-01
      21    -1     0     0   502   501  0.000000000E+00  0.000000000E+00  1.429470487E+03  1.429470487E+03  0.000000000E+00  0.00000E+00  9.000E+00
      21    -1     0     0   501   511  0.000000000E+00  0.000000000E+00 -1.134817899E+02  1.134817899E+02  0.000000000E+00  0.00000E+00  9.000E+00
      25     1     1     2     0     0 -1.178192333E+01  6.625611355E+01  6.158298469E+02  6.319810809E+02  1.250000000E+02  0.00000E+00  9.000E+00
      25     1     1     2     0     0 -1.160115178E+02 -2.803194981E+02  4.580758744E+02  5.634680115E+02  1.250000000E+02  0.00000E+00  9.000E+00
      21     1     1     2   502   511  1.277934412E+02  2.140633845E+02  2.420829762E+02  3.475031850E+02  7.629394531E-06  0.00000E+00  9.000E+00
#rwgt            2          11   3.3805981162484378E-003           6       61796           0
</event>
<event>
      5   9999  3.19816E-02  7.59440E+01 -1.00000E+00  1.29453E-01
      21    -1     0     0   502   501  0.000000000E+00  0.000000000E+00  3.610023811E+01  3.610023811E+01  0.000000000E+00  0.00000E+00  9.000E+00
      21    -1     0     0   501   512  0.000000000E+00  0.000000000E+00 -9.044418198E+02  9.044418198E+02  0.000000000E+00  0.00000E+00  9.000E+00
      25     1     1     2     0     0 -8.214289700E+01  5.438035272E+00 -2.748385348E+02  3.129508715E+02  1.250000000E+02  0.00000E+00  9.000E+00
      25     1     1     2     0     0  9.685700648E+00  1.730947666E+01 -3.328719918E+02  3.561210380E+02  1.250000000E+02  0.00000E+00  9.000E+00
      21     1     1     2   502   512  7.245719636E+01 -2.274751193E+01 -2.606310551E+02  2.714701484E+02  3.814697266E-06  0.00000E+00  9.000E+00
#rwgt            1           1   1.2010595714995248E-002           6       61816           0
</event>
<event>
      5   9999  3.19816E-02  1.79661E+01 -1.00000E+00  1.70306E-01
      21    -1     0     0   511   501  0.000000000E+00  0.000000000E+00  4.798215399E+02  4.798215399E+02  0.000000000E+00  0.00000E+00  9.000E+00
      21    -1     0     0   501   502  0.000000000E+00  0.000000000E+00 -7.808100137E+02  7.808100137E+02  0.000000000E+00  0.00000E+00  9.000E+00
      25     1     1     2     0     0 -2.279955058E+01 -2.468829628E+02 -5.100584961E+02  5.807371921E+02  1.250000000E+02  0.00000E+00  9.000E+00
      25     1     1     2     0     0  8.650704922E+00  2.579550654E+02 -1.477653738E+02  3.226069686E+02  1.250000000E+02  0.00000E+00  9.000E+00
      21     1     1     2   511   502  1.414884566E+01 -1.107210262E+01  3.568353960E+02  3.572873929E+02  0.000000000E+00  0.00000E+00  9.000E+00
#rwgt            1           1   2.8362520386908098E-002           6       61903           0
</event>
<event>
      5   9999  3.19816E-02  3.67252E+01 -1.00000E+00  1.47179E-01
      21    -1     0     0   502   501  0.000000000E+00  0.000000000E+00  1.527016614E+02  1.527016614E+02  0.000000000E+00  0.00000E+00  9.000E+00
      21    -1     0     0   512   502  0.000000000E+00  0.000000000E+00 -1.392273480E+03  1.392273480E+03  0.000000000E+00  0.00000E+00  9.000E+00
      25     1     1     2     0     0 -5.952161161E+01  3.781699365E+02 -3.724746923E+02  5.485596773E+02  1.250000000E+02  0.00000E+00  9.000E+00
      25     1     1     2     0     0  9.433512472E+01 -3.898642292E+02 -6.348566697E+02  7.612891856E+02  1.250000000E+02  0.00000E+00  9.000E+00
      21     1     1     2   512   501 -3.481351311E+01  1.169429271E+01 -2.322404564E+02  2.351262784E+02  2.697398305E-06  0.00000E+00  9.000E+00
#rwgt            1           1   2.8213206286782717E-002           6       62095           0
</event>
<event>
      5   9999  3.19816E-02  3.89639E+01 -1.00000E+00  1.45551E-01
      21    -1     0     0   502   501  0.000000000E+00  0.000000000E+00  9.038816643E+02  9.038816643E+02  0.000000000E+00  0.00000E+00  9.000E+00
      21    -1     0     0   511   502  0.000000000E+00  0.000000000E+00 -4.553833333E+02  4.553833333E+02  0.000000000E+00  0.00000E+00  9.000E+00
      25     1     1     2     0     0  4.723699078E+02  1.138693547E+02 -5.035278232E+01  5.042419682E+02  1.250000000E+02  0.00000E+00  9.000E+00
      25     1     1     2     0     0 -4.860792710E+02 -1.503417947E+02  5.698102544E+02  7.740700479E+02  1.250000000E+02  0.00000E+00  9.000E+00
      21     1     1     2   511   501  1.370936317E+01  3.647244002E+01 -7.095914115E+01  8.095298162E+01  0.000000000E+00  0.00000E+00  9.000E+00
#rwgt            1           1   2.9862746159057554E-002           6       62211           0
</event>
<event>
      5   9999  3.19816E-02  4.16171E+01 -1.00000E+00  1.43781E-01
      21    -1     0     0   502   501  0.000000000E+00  0.000000000E+00  1.239121220E+02  1.239121220E+02  0.000000000E+00  0.00000E+00  9.000E+00
       3    -1     0     0   501     0  0.000000000E+00  0.000000000E+00 -7.085599768E+02  7.085599768E+02  0.000000000E+00  0.00000E+00  9.000E+00
      25     1     1     2     0     0  1.332454170E+02 -2.217046543E+01 -1.589521224E+02  2.431802786E+02  1.250000000E+02  0.00000E+00  9.000E+00
      25     1     1     2     0     0 -1.744437150E+02  2.805960927E+01 -6.468723490E+01  2.258924296E+02  1.250000000E+02  0.00000E+00  9.000E+00
       3     1     1     2   502     0  4.119829806E+01 -5.889143835E+00 -3.610084976E+02  3.633993906E+02  6.607249480E-06  0.00000E+00  9.000E+00
#rwgt            1           1   2.5982475370600250E-002           6       62399           0
</event>
<event>
      5   9999  3.19816E-02  1.00590E+01 -1.00000E+00  1.95462E-01
      21    -1     0     0   511   501  0.000000000E+00  0.000000000E+00  6.894382109E+01  6.894382109E+01  0.000000000E+00  0.00000E+00  9.000E+00
      21    -1     0     0   501   502  0.000000000E+00  0.000000000E+00 -7.753834317E+02  7.753834317E+02  0.000000000E+00  0.00000E+00  9.000E+00
      25     1     1     2     0     0  1.306923862E+01 -1.471262446E+02 -3.015149911E+02  3.582641856E+02  1.250000000E+02  0.00000E+00  9.000E+00
      25     1     1     2     0     0 -1.829624192E+01  1.557204850E+02 -4.214475758E+02  4.667190601E+02  1.250000000E+02  0.00000E+00  9.000E+00
      21     1     1     2   511   502  5.227003300E+00 -8.594240384E+00  1.652295619E+01  1.934400715E+01  4.129530925E-07  0.00000E+00  9.000E+00
#rwgt            1           1   2.6189100245774127E-002           6       62459           0
</event>
<event>
      5   9999  3.19816E-02  5.35959E+01 -1.00000E+00  1.37376E-01
      21    -1     0     0   512   501  0.000000000E+00  0.000000000E+00  4.669948356E+02  4.669948356E+02  0.000000000E+00  0.00000E+00  9.000E+00
      21    -1     0     0   501   502  0.000000000E+00  0.000000000E+00 -1.717013533E+02  1.717013533E+02  0.000000000E+00  0.00000E+00  9.000E+00
      25     1     1     2     0     0  1.584369556E+02 -6.176044564E+01  2.112206564E+01  2.121031900E+02  1.250000000E+02  0.00000E+00  9.000E+00
      25     1     1     2     0     0 -1.324584212E+02  1.086393467E+02  8.246788387E+01  2.275383327E+02  1.250000000E+02  0.00000E+00  9.000E+00
      21     1     1     2   512   502 -2.597853448E+01 -4.687890103E+01  1.917035328E+02  1.990546661E+02  2.697398305E-06  0.00000E+00  9.000E+00
#rwgt            1           1   2.5658218295233765E-002           6       62643           0
</event>
<event>
      5   9999  3.19816E-02  4.20410E+01 -1.00000E+00  1.43512E-01
      21    -1     0     0   511   501  0.000000000E+00  0.000000000E+00  1.165132064E+02  1.165132064E+02  0.000000000E+00  0.00000E+00  9.000E+00
      21    -1     0     0   501   502  0.000000000E+00  0.000000000E+00 -5.121593381E+02  5.121593381E+02  0.000000000E+00  0.00000E+00  9.000E+00
      25     1     1     2     0     0 -7.701237395E+01  4.108792945E+01 -3.968130739E+02  4.250938006E+02  1.250000000E+02  0.00000E+00  9.000E+00
      25     1     1     2     0     0  4.594082447E+01 -6.940766507E+01 -2.752760293E+01  1.526785913E+02  1.250000000E+02  0.00000E+00  9.000E+00
      21     1     1     2   511   502  3.107154948E+01  2.831973561E+01  2.869454518E+01  5.090015261E+01  5.840038640E-07  0.00000E+00  9.000E+00
#rwgt            1           1   2.8268713870131620E-002           6       62707           0
</event>
<event>
      5   9999  3.19816E-02  3.62917E+01 -1.00000E+00  1.47510E-01
      21    -1     0     0   502   501  0.000000000E+00  0.000000000E+00  5.853536420E+02  5.853536420E+02  0.000000000E+00  0.00000E+00  9.000E+00
      21    -1     0     0   501   512  0.000000000E+00  0.000000000E+00 -7.787010338E+02  7.787010338E+02  0.000000000E+00  0.00000E+00  9.000E+00
      25     1     1     2     0     0 -5.672373031E+02 -1.983875435E+02  1.390242988E+02  6.293397580E+02  1.250000000E+02  0.00000E+00  9.000E+00
      25     1     1     2     0     0  5.532972357E+02  1.648799361E+02 -2.439010727E+02  6.390899449E+02  1.250000000E+02  0.00000E+00  9.000E+00
      21     1     1     2   502   512  1.394006737E+01  3.350760735E+01 -8.847061786E+01  9.562497296E+01  1.348699152E-06  0.00000E+00  9.000E+00
#rwgt            1           1   2.7838664125864873E-002           6       62814           0
</event>
<event>
      5   9999  3.19816E-02  1.76459E+01 -1.00000E+00  1.70985E-01
      21    -1     0     0   502   501  0.000000000E+00  0.000000000E+00  3.214985149E+02  3.214985149E+02  0.000000000E+00  0.00000E+00  9.000E+00
      21    -1     0     0   511   502  0.000000000E+00  0.000000000E+00 -4.656362670E+02  4.656362670E+02  0.000000000E+00  0.00000E+00  9.000E+00
      25     1     1     2     0     0  1.175105533E+02  8.771561928E+01  1.362448338E+02  2.359881665E+02  1.250000000E+02  0.00000E+00  9.000E+00
      25     1     1     2     0     0 -1.101236997E+02 -1.037409386E+02  6.391544180E+01  2.063966939E+02  1.250000000E+02  0.00000E+00  9.000E+00
      21     1     1     2   511   501 -7.386853550E+00  1.602531928E+01 -3.442980277E+02  3.447499215E+02  0.000000000E+00  0.00000E+00  9.000E+00
#rwgt            1           1   2.6534193909777758E-002           6       62950           0
</event>
<event>
      5   9999  3.19816E-02  4.26787E+01 -1.00000E+00  1.43116E-01
      21    -1     0     0   502   501  0.000000000E+00  0.000000000E+00  1.579302096E+03  1.579302096E+03  0.000000000E+00  0.00000E+00  9.000E+00
      21    -1     0     0   512   502  0.000000000E+00  0.000000000E+00 -3.106195558E+03  3.106195558E+03  0.000000000E+00  0.00000E+00  9.000E+00
      25     1     1     2     0     0 -3.205223978E+02 -2.167490206E+03 -9.010658236E+02  2.372402373E+03  1.250000000E+02  0.00000E+00  9.000E+00
      25     1     1     2     0     0  3.501252631E+02  2.136747035E+03 -5.694017271E+02  2.242346744E+03  1.250000000E+02  0.00000E+00  9.000E+00
      21     1     1     2   512   501 -2.960286527E+01  3.074317062E+01 -5.642591170E+01  7.074853838E+01  1.168007728E-06  0.00000E+00  9.000E+00
#rwgt            1           1   7.4407394150160329E-003           6       63057           0
</event>
<event>
      5   9999  3.19816E-02  7.41572E+01 -1.00000E+00  1.29964E-01
      21    -1     0     0   511   501  0.000000000E+00  0.000000000E+00  5.523941606E+02  5.523941606E+02  0.000000000E+00  0.00000E+00  9.000E+00
      21    -1     0     0   501   502  0.000000000E+00  0.000000000E+00 -8.309705235E+02  8.309705235E+02  0.000000000E+00  0.00000E+00  9.000E+00
      25     1     1     2     0     0 -2.679155566E+02 -4.738517303E+02 -2.908441385E+02  6.297059002E+02  1.250000000E+02  0.00000E+00  9.000E+00
      25     1     1     2     0     0  2.650708347E+02  3.997491255E+02 -1.956711396E+02  5.328922083E+02  1.250000000E+02  0.00000E+00  9.000E+00
      21     1     1     2   511   502  2.844721838E+00  7.410260486E+01  2.079389152E+02  2.207665757E+02  0.000000000E+00  0.00000E+00  9.000E+00
#rwgt            1           1   2.9931247817127471E-002           6       63294           0
</event>
<event>
      5   9999  3.19816E-02  4.68768E+01 -1.00000E+00  1.40693E-01
      21    -1     0     0   502   501  0.000000000E+00  0.000000000E+00  1.117807878E+03  1.117807878E+03  0.000000000E+00  0.00000E+00  9.000E+00
      21    -1     0     0   512   502  0.000000000E+00  0.000000000E+00 -9.628974664E+02  9.628974664E+02  0.000000000E+00  0.00000E+00  9.000E+00
      25     1     1     2     0     0  1.493736684E+02  4.566137580E+02 -3.791477756E+02  6.246492236E+02  1.250000000E+02  0.00000E+00  9.000E+00
      25     1     1     2     0     0 -1.216078303E+02 -4.188448230E+02  9.419280683E+02  1.045501285E+03  1.250000000E+02  0.00000E+00  9.000E+00
      21     1     1     2   512   501 -2.776583804E+01 -3.776893506E+01 -4.078698807E+02  4.105548365E+02  0.000000000E+00  0.00000E+00  9.000E+00
#rwgt            1           1   3.2181730587707347E-002           6       63378           0
</event>
<event>
      5   9999  3.19816E-02  7.86254E+01 -1.00000E+00  1.28715E-01
      21    -1     0     0   502   511  0.000000000E+00  0.000000000E+00  1.029490707E+03  1.029490707E+03  0.000000000E+00  0.00000E+00  9.000E+00
      21    -1     0     0   501   502  0.000000000E+00  0.000000000E+00 -1.118180673E+02  1.118180673E+02  0.000000000E+00  0.00000E+00  9.000E+00
      25     1     1     2     0     0 -7.561314286E+01 -3.873935599E+01 -4.061835021E+01  1.565021899E+02  1.250000000E+02  0.00000E+00  9.000E+00
      25     1     1     2     0     0  6.888827081E+01 -3.959793420E+01  6.473724780E+02  6.641006818E+02  1.250000000E+02  0.00000E+00  9.000E+00
      21     1     1     2   501   511  6.724872056E+00  7.833729019E+01  3.109185120E+02  3.207059028E+02  0.000000000E+00  0.00000E+00  9.000E+00
#rwgt            1           1   3.0921922219599690E-002           6       63548           0
</event>
<event>
      5   9999  3.19816E-02  4.60705E+01 -1.00000E+00  1.41135E-01
      21    -1     0     0   502   501  0.000000000E+00  0.000000000E+00  3.290453367E+02  3.290453367E+02  0.000000000E+00  0.00000E+00  9.000E+00
      21    -1     0     0   501   512  0.000000000E+00  0.000000000E+00 -1.291376519E+02  1.291376519E+02  0.000000000E+00  0.00000E+00  9.000E+00
      25     1     1     2     0     0  5.891397992E+01  1.172839312E+02  9.336010653E+01  2.038810610E+02  1.250000000E+02  0.00000E+00  9.000E+00
      25     1     1     2     0     0 -1.355740786E+01 -1.092049461E+02  1.211851161E+02  2.059620254E+02  1.250000000E+02  0.00000E+00  9.000E+00
      21     1     1     2   502   512 -4.535657206E+01 -8.078985087E+00 -1.463753781E+01  4.833990218E+01  6.951036328E-07  0.00000E+00  9.000E+00
#rwgt            1           1   2.8811577413689730E-002           6       63615           0
</event>
<event>
      5   9999  3.19816E-02  1.22557E+01 -1.00000E+00  1.86070E-01
      21    -1     0     0   511   501  0.000000000E+00  0.000000000E+00  9.644225404E+01  9.644225404E+01  0.000000000E+00  0.00000E+00  9.000E+00
      21    -1     0     0   501   502  0.000000000E+00  0.000000000E+00 -2.563503908E+03  2.563503908E+03  0.000000000E+00  0.00000E+00  9.000E+00
      25     1     1     2     0     0  2.251313924E+02  9.254383065E+01 -1.314695982E+03  1.342869699E+03  1.250000000E+02  0.00000E+00  9.000E+00
      25     1     1     2     0     0 -2.200437970E+02 -8.139402572E+01 -1.219854033E+03  1.248484330E+03  1.250000000E+02  0.00000E+00  9.000E+00
      21     1     1     2   511   502 -5.087595351E+00 -1.114980493E+01  6.748836116E+01  6.859213270E+01  2.861022949E-06  0.00000E+00  9.000E+00
#rwgt            1           1   5.0567963978500469E-002           6       63712           0
</event>
<event>
      5   9999  3.19816E-02  5.89407E+01 -1.00000E+00  1.35118E-01
      21    -1     0     0   512   501  0.000000000E+00  0.000000000E+00  8.533195932E+02  8.533195932E+02  0.000000000E+00  0.00000E+00  9.000E+00
      21    -1     0     0   501   502  0.000000000E+00  0.000000000E+00 -1.554950049E+02  1.554950049E+02  0.000000000E+00  0.00000E+00  9.000E+00
      25     1     1     2     0     0  4.169643666E+01  4.391835197E+01 -1.110141925E+02  1.778104761E+02  1.250000000E+02  0.00000E+00  9.000E+00
      25     1     1     2     0     0  5.965690336E+00 -9.243767548E+00  4.422632923E+02  4.597204111E+02  1.250000000E+02  0.00000E+00  9.000E+00
      21     1     1     2   512   502 -4.766212699E+01 -3.467458442E+01  3.665754886E+02  3.712837109E+02  0.000000000E+00  0.00000E+00  9.000E+00
#rwgt            1           1   2.6476964554300011E-002           6       63874           0
</event>
<event>
      5   9999  3.19816E-02  5.91483E+01 -1.00000E+00  1.35036E-01
      21    -1     0     0   502   511  0.000000000E+00  0.000000000E+00  1.997279856E+02  1.997279856E+02  0.000000000E+00  0.00000E+00  9.000E+00
      21    -1     0     0   501   502  0.000000000E+00  0.000000000E+00 -3.511112737E+02  3.511112737E+02  0.000000000E+00  0.00000E+00  9.000E+00
      25     1     1     2     0     0  1.059427384E+02  1.504563267E+01  7.193247526E+01  1.795815021E+02  1.250000000E+02  0.00000E+00  9.000E+00
      25     1     1     2     0     0 -1.406749096E+02 -6.292249500E+01 -2.384411850E+02  3.102061722E+02  1.250000000E+02  0.00000E+00  9.000E+00
      21     1     1     2   501   511  3.473217115E+01  4.787686233E+01  1.512542165E+01  6.105158507E+01  5.591411304E-07  0.00000E+00  9.000E+00
#rwgt            1           1   3.1293315347477098E-002           6       63943           0
</event>
<event>
      5   9999  3.19816E-02  9.67670E+00 -1.00000E+00  1.97422E-01
      -2    -1     0     0     0   501  0.000000000E+00  0.000000000E+00  1.783182962E+03  1.783182962E+03  0.000000000E+00  0.00000E+00  9.000E+00
      21    -1     0     0   501   502  0.000000000E+00  0.000000000E+00 -2.819226018E+01  2.819226018E+01  0.000000000E+00  0.00000E+00  9.000E+00
      25     1     1     2     0     0  4.203427219E+01 -1.194744369E+02  7.479392147E+02  7.688166817E+02  1.250000000E+02  0.00000E+00  9.000E+00
      25     1     1     2     0     0 -4.941215036E+01  1.257358560E+02  4.604757232E+02  4.958971242E+02  1.250000000E+02  0.00000E+00  9.000E+00
      -2     1     1     2     0   502  7.377878169E+00 -6.261419039E+00  5.465757642E+02  5.466614167E+02  1.321449896E-05  0.00000E+00  9.000E+00
#rwgt            1           1   4.4435135109899680E-002           6       64030           0
</event>
<event>
      5   9999  3.19816E-02  5.86145E+01 -1.00000E+00  1.35248E-01
      21    -1     0     0   502   501  0.000000000E+00  0.000000000E+00  1.651004631E+03  1.651004631E+03  0.000000000E+00  0.00000E+00  9.000E+00
      21    -1     0     0   511   502  0.000000000E+00  0.000000000E+00 -1.102677863E+02  1.102677863E+02  0.000000000E+00  0.00000E+00  9.000E+00
      25     1     1     2     0     0 -1.432573523E+02  1.028855405E+02  2.182363845E+02  3.071810915E+02  1.250000000E+02  0.00000E+00  9.000E+00
      25     1     1     2     0     0  2.018679420E+02 -1.035633378E+02  1.360038130E+03  1.384487178E+03  1.250000000E+02  0.00000E+00  9.000E+00
      21     1     1     2   511   501 -5.861058967E+01  6.777972962E-01 -3.753767029E+01  6.960414730E+01  2.078484985E-06  0.00000E+00  9.000E+00
#rwgt            1           1   4.1408622072072215E-002           6       64261           0
</event>
<event>
      5   9999  3.19816E-02  2.59463E+01 -1.00000E+00  1.57552E-01
      21    -1     0     0   502   501  0.000000000E+00  0.000000000E+00  3.578494777E+02  3.578494777E+02  0.000000000E+00  0.00000E+00  9.000E+00
      21    -1     0     0   501   512  0.000000000E+00  0.000000000E+00 -5.391152266E+02  5.391152266E+02  0.000000000E+00  0.00000E+00  9.000E+00
      25     1     1     2     0     0  1.773649736E+02  1.641708912E+02  2.595559619E+02  3.760381799E+02  1.250000000E+02  0.00000E+00  9.000E+00
      25     1     1     2     0     0 -1.528817149E+02 -1.555813934E+02 -4.052565864E+02  4.769028093E+02  1.250000000E+02  0.00000E+00  9.000E+00
      21     1     1     2   502   512 -2.448325865E+01 -8.589497827E+00 -3.556512437E+01  4.402371518E+01  4.768371582E-07  0.00000E+00  9.000E+00
#rwgt            1           1   2.8778447411358394E-002           6       64337           0
</event>
<event>
      5   9999  3.19816E-02  2.10020E+01 -1.00000E+00  1.64636E-01
      21    -1     0     0   511   501  0.000000000E+00  0.000000000E+00  4.237748028E+02  4.237748028E+02  0.000000000E+00  0.00000E+00  9.000E+00
      21    -1     0     0   501   502  0.000000000E+00  0.000000000E+00 -1.137198999E+02  1.137198999E+02  0.000000000E+00  0.00000E+00  9.000E+00
      25     1     1     2     0     0 -7.898973672E+01  9.840025702E+01  1.894414837E+01  1.786221427E+02  1.250000000E+02  0.00000E+00  9.000E+00
      25     1     1     2     0     0  9.633970316E+01 -8.656552467E+01  2.174919307E+02  2.823166102E+02  1.250000000E+02  0.00000E+00  9.000E+00
      21     1     1     2   511   502 -1.734996644E+01 -1.183473235E+01  7.361882383E+01  7.655594979E+01  0.000000000E+00  0.00000E+00  9.000E+00
#rwgt            1           1   2.5076604748251356E-002           6       64507           0
</event>
<event>
      5   9999  3.19816E-02  6.51365E+01 -1.00000E+00  1.32824E-01
       1    -1     0     0   502     0  0.000000000E+00  0.000000000E+00  2.394006379E+03  2.394006379E+03  0.000000000E+00  0.00000E+00  9.000E+00
      21    -1     0     0   501   502  0.000000000E+00  0.000000000E+00 -1.567511186E+03  1.567511186E+03  0.000000000E+00  0.00000E+00  9.000E+00
      25     1     1     2     0     0 -7.237963146E+02 -9.479574116E+02  4.827911833E+02  1.292755463E+03  1.250000000E+02  0.00000E+00  9.000E+00
      25     1     1     2     0     0  6.586670596E+02  9.469846953E+02 -8.719315157E+02  1.451382746E+03  1.250000000E+02  0.00000E+00  9.000E+00
       1     1     1     2   501     0  6.512925502E+01  9.727162565E-01  1.215635526E+03  1.217379356E+03  0.000000000E+00  0.00000E+00  9.000E+00
#rwgt            2          17   3.0259459225120888E-003           6       64743           0
</event>
<event>
      5   9999  3.19816E-02  6.09426E+00 -1.00000E+00  2.24425E-01
      21    -1     0     0   502   501  0.000000000E+00  0.000000000E+00  8.371125100E+02  8.371125100E+02  0.000000000E+00  0.00000E+00  9.000E+00
      21    -1     0     0   501   511  0.000000000E+00  0.000000000E+00 -1.881027544E+02  1.881027544E+02  0.000000000E+00  0.00000E+00  9.000E+00
      25     1     1     2     0     0 -2.632284009E+02  2.652933021E+02  3.458026017E+02  5.242844329E+02  1.250000000E+02  0.00000E+00  9.000E+00
      25     1     1     2     0     0  2.630518124E+02 -2.592015973E+02  3.045025164E+02  4.947004210E+02  1.250000000E+02  0.00000E+00  9.000E+00
      21     1     1     2   502   511  1.765884767E-01 -6.091704867E+00 -1.295362597E+00  6.230410575E+00  1.818918529E-07  0.00000E+00  9.000E+00
#rwgt            1           1   2.8385419735780352E-002           6       64777           0
</event>
<event>
      5   9999  3.19816E-02  2.55079E+01 -1.00000E+00  1.58099E-01
      21    -1     0     0   512   501  0.000000000E+00  0.000000000E+00  1.185822775E+02  1.185822775E+02  0.000000000E+00  0.00000E+00  9.000E+00
      21    -1     0     0   501   502  0.000000000E+00  0.000000000E+00 -7.073192192E+02  7.073192192E+02  0.000000000E+00  0.00000E+00  9.000E+00
      25     1     1     2     0     0  2.309260514E+02 -2.256389460E+01 -2.697026808E+02  3.770948244E+02  1.250000000E+02  0.00000E+00  9.000E+00
      25     1     1     2     0     0 -2.552139085E+02  1.476962215E+01 -3.121380211E+02  4.223830313E+02  1.250000000E+02  0.00000E+00  9.000E+00
      21     1     1     2   512   502  2.428785712E+01  7.794272449E+00 -6.896239710E+00  2.642364109E+01  6.078504936E-07  0.00000E+00  9.000E+00
#rwgt            1           1   2.7945858018013883E-002           6       65127           0
</event>
<event>
      5   9999  3.19816E-02  4.54999E+01 -1.00000E+00  1.41453E-01
      21    -1     0     0   502   511  0.000000000E+00  0.000000000E+00  1.380519319E+02  1.380519319E+02  0.000000000E+00  0.00000E+00  9.000E+00
      21    -1     0     0   501   502  0.000000000E+00  0.000000000E+00 -6.761211904E+02  6.761211904E+02  0.000000000E+00  0.00000E+00  9.000E+00
      25     1     1     2     0     0 -1.667165236E+02  3.540188504E+01 -1.566505354E+01  2.119388747E+02  1.250000000E+02  0.00000E+00  9.000E+00
      25     1     1     2     0     0  1.575241658E+02  9.159801637E+00 -5.189242680E+02  5.566014379E+02  1.250000000E+02  0.00000E+00  9.000E+00
      21     1     1     2   501   511  9.192357792E+00 -4.456168668E+01 -3.479936896E+00  4.563280971E+01  1.022006762E-06  0.00000E+00  9.000E+00
#rwgt            1           1   3.1392250221161447E-002           6       65258           0
</event>
<event>
      5   9999  3.19816E-02  1.20776E+02 -1.00000E+00  1.20250E-01
      21    -1     0     0   512   501  0.000000000E+00  0.000000000E+00  4.073152923E+02  4.073152923E+02  0.000000000E+00  0.00000E+00  9.000E+00
      21    -1     0     0   501   502  0.000000000E+00  0.000000000E+00 -8.714330766E+02  8.714330766E+02  0.000000000E+00  0.00000E+00  9.000E+00
      25     1     1     2     0     0  4.564011339E+02  1.957633752E+02 -2.522425449E+02  5.708560200E+02  1.250000000E+02  0.00000E+00  9.000E+00
      25     1     1     2     0     0 -3.398717488E+02 -1.640200425E+02 -3.462697098E+02  5.272030841E+02  1.250000000E+02  0.00000E+00  9.000E+00
      21     1     1     2   512   502 -1.165293851E+02 -3.174333270E+01  1.343944703E+02  1.806892648E+02  2.697398305E-06  0.00000E+00  9.000E+00
#rwgt            1           1   2.7304762460460302E-002           6       65332           0
</event>
<event>
      5   9999  3.19816E-02  4.37479E+01 -1.00000E+00  1.42468E-01
       2    -1     0     0   502     0  0.000000000E+00  0.000000000E+00  1.874798799E+03  1.874798799E+03  0.000000000E+00  0.00000E+00  9.000E+00
      21    -1     0     0   501   502  0.000000000E+00  0.000000000E+00 -1.706807038E+03  1.706807038E+03  0.000000000E+00  0.00000E+00  9.000E+00
      25     1     1     2     0     0 -3.624658136E+02 -3.077434758E+02 -9.762137604E+02  1.093025992E+03  1.250000000E+02  0.00000E+00  9.000E+00
      25     1     1     2     0     0  3.417716389E+02  3.462872958E+02 -5.780173560E+02  7.658014156E+02  1.250000000E+02  0.00000E+00  9.000E+00
       2     1     1     2   501     0  2.069417470E+01 -3.854381997E+01  1.722222878E+03  1.722778429E+03  2.157918644E-05  0.00000E+00  9.000E+00
#rwgt            1           1   2.7508307549673892E-002           6       65404           0
</event>
<event>
      5   9999  3.19816E-02  4.24968E+02 -1.00000E+00  1.00900E-01
       2    -1     0     0   502     0  0.000000000E+00  0.000000000E+00  9.711318591E+02  9.711318591E+02  0.000000000E+00  0.00000E+00  9.000E+00
      21    -1     0     0   501   502  0.000000000E+00  0.000000000E+00 -2.006882034E+03  2.006882034E+03  0.000000000E+00  0.00000E+00  9.000E+00
      25     1     1     2     0     0 -3.554743393E+02  6.753191884E+02  4.396622439E+02  8.895762479E+02  1.250000000E+02  0.00000E+00  9.000E+00
      25     1     1     2     0     0  5.530925492E+00 -9.164353509E+02 -5.653300060E+02  1.084023689E+03  1.250000000E+02  0.00000E+00  9.000E+00
       2     1     1     2   501     0  3.499434138E+02  2.411161625E+02 -9.100824129E+02  1.004413956E+03  1.525878906E-05  0.00000E+00  9.000E+00
#rwgt            1           1   4.3752594330920519E-002           6       65513           0
</event>
<event>
      5   9999  3.19816E-02  7.47886E+01 -1.00000E+00  1.29782E-01
      21    -1     0     0   502   501  0.000000000E+00  0.000000000E+00  1.201557136E+02  1.201557136E+02  0.000000000E+00  0.00000E+00  9.000E+00
      21    -1     0     0   511   502  0.000000000E+00  0.000000000E+00 -9.096130236E+02  9.096130236E+02  0.000000000E+00  0.00000E+00  9.000E+00
      25     1     1     2     0     0  1.926497335E+02 -9.007591465E+01 -1.960475887E+02  3.150987896E+02  1.250000000E+02  0.00000E+00  9.000E+00
      25     1     1     2     0     0 -2.543786809E+02  4.785192270E+01 -3.152058815E+02  4.265888741E+02  1.250000000E+02  0.00000E+00  9.000E+00
      21     1     1     2   511   501  6.172894741E+01  4.222399195E+01 -2.782038397E+02  2.880810735E+02  5.394796609E-06  0.00000E+00  9.000E+00
#rwgt            1           1   2.7908995418304189E-002           6       65567           0
</event>
<event>
      5   9999  3.19816E-02  2.04462E+01 -1.00000E+00  1.65582E-01
      21    -1     0     0   502   501  0.000000000E+00  0.000000000E+00  1.256812580E+02  1.256812580E+02  0.000000000E+00  0.00000E+00  9.000E+00
      21    -1     0     0   512   502  0.000000000E+00  0.000000000E+00 -2.776570565E+02  2.776570565E+02  0.000000000E+00  0.00000E+00  9.000E+00
      25     1     1     2     0     0  1.003993724E+02  7.696673823E+01 -5.755472575E+01  1.869263471E+02  1.250000000E+02  0.00000E+00  9.000E+00
      25     1     1     2     0     0 -8.221531936E+01 -8.631489900E+01 -7.533164383E+01  1.884395847E+02  1.250000000E+02  0.00000E+00  9.000E+00
      21     1     1     2   512   501 -1.818405309E+01  9.348160775E+00 -1.908942897E+01  2.797238272E+01  0.000000000E+00  0.00000E+00  9.000E+00
#rwgt            1           1   2.9740741073543239E-002           6       65645           0
</event>
<event>
      5   9999  3.19816E-02  2.58301E+02 -1.00000E+00  1.07748E-01
      21    -1     0     0   502   501  0.000000000E+00  0.000000000E+00  4.393837528E+02  4.393837528E+02  0.000000000E+00  0.00000E+00  9.000E+00
      -1    -1     0     0     0   502  0.000000000E+00  0.000000000E+00 -7.774814815E+02  7.774814815E+02  0.000000000E+00  0.00000E+00  9.000E+00
      25     1     1     2     0     0 -1.356729927E+02  5.325515324E+01  2.466062460E+02  3.125426576E+02  1.250000000E+02  0.00000E+00  9.000E+00
      25     1     1     2     0     0  3.881966309E+02 -1.075825576E+02 -2.868964820E+02  5.101031487E+02  1.250000000E+02  0.00000E+00  9.000E+00
      -1     1     1     2     0   501 -2.525236382E+02  5.432740433E+01 -2.978074927E+02  3.942194280E+02  3.814697266E-06  0.00000E+00  9.000E+00
#rwgt            1           1   2.8744259481399297E-002           6       65747           0
</event>
<event>
      5   9999  3.19816E-02  1.55115E+01 -1.00000E+00  1.76023E-01
      21    -1     0     0   502   501  0.000000000E+00  0.000000000E+00  1.382346190E+02  1.382346190E+02  0.000000000E+00  0.00000E+00  9.000E+00
      21    -1     0     0   511   502  0.000000000E+00  0.000000000E+00 -6.383237781E+02  6.383237781E+02  0.000000000E+00  0.00000E+00  9.000E+00
      25     1     1     2     0     0 -7.081448006E+01  1.816042085E+02 -1.435953845E+01  2.320042575E+02  1.250000000E+02  0.00000E+00  9.000E+00
      25     1     1     2     0     0  5.549231947E+01 -1.840204849E+02 -4.382020860E+02  4.945594045E+02  1.250000000E+02  0.00000E+00  9.000E+00
      21     1     1     2   511   501  1.532216059E+01  2.416276416E+00 -4.752753457E+01  4.999473512E+01  6.743495762E-07  0.00000E+00  9.000E+00
#rwgt            1           1   2.7976939176421037E-002           6       65796           0
</event>
<event>
      5   9999  3.19816E-02  9.26152E+01 -1.00000E+00  1.25345E-01
      21    -1     0     0   502   512  0.000000000E+00  0.000000000E+00  1.216327938E+02  1.216327938E+02  0.000000000E+00  0.00000E+00  9.000E+00
      21    -1     0     0   501   502  0.000000000E+00  0.000000000E+00 -1.032214484E+03  1.032214484E+03  0.000000000E+00  0.00000E+00  9.000E+00
      25     1     1     2     0     0 -1.535134207E+02  1.192587575E+02 -8.520605028E+02  8.828483006E+02  1.250000000E+02  0.00000E+00  9.000E+00
      25     1     1     2     0     0  1.060341307E+02 -3.973966212E+01 -5.807689109E+01  1.783827427E+02  1.250000000E+02  0.00000E+00  9.000E+00
      21     1     1     2   501   512  4.747929001E+01 -7.951909535E+01 -4.442965545E-01  9.261623456E+01  1.179064678E-06  0.00000E+00  9.000E+00
#rwgt            2          11   2.9462804510091540E-003           6       66236           0
</event>
<event>
      5   9999  3.19816E-02  6.71645E+01 -1.00000E+00  1.32137E-01
      21    -1     0     0   502   501  0.000000000E+00  0.000000000E+00  2.996474616E+02  2.996474616E+02  0.000000000E+00  0.00000E+00  9.000E+00
       1    -1     0     0   501     0  0.000000000E+00  0.000000000E+00 -6.165593708E+02  6.165593708E+02  0.000000000E+00  0.00000E+00  9.000E+00
      25     1     1     2     0     0 -1.752551253E+02 -5.601055236E+01  6.626470046E+01  2.320938419E+02  1.250000000E+02  0.00000E+00  9.000E+00
      25     1     1     2     0     0  1.083608423E+02  6.202910812E+01  9.543978387E+01  2.008069589E+02  1.250000000E+02  0.00000E+00  9.000E+00
       1     1     1     2   502     0  6.689428295E+01 -6.018555763E+00 -4.786163936E+02  4.833060317E+02  5.394796609E-06  0.00000E+00  9.000E+00
#rwgt            1           1   2.6516158873683863E-002           6       66271           0
</event>
<event>
      5   9999  3.19816E-02  2.19189E+02 -1.00000E+00  1.10218E-01
      21    -1     0     0   502   501  0.000000000E+00  0.000000000E+00  2.732214720E+02  2.732214720E+02  0.000000000E+00  0.00000E+00  9.000E+00
      21    -1     0     0   511   502  0.000000000E+00  0.000000000E+00 -8.658250970E+02  8.658250970E+02  0.000000000E+00  0.00000E+00  9.000E+00
      25     1     1     2     0     0 -1.563802772E+02 -1.486514417E+01 -5.141897653E+02  5.519890201E+02  1.250000000E+02  0.00000E+00  9.000E+00
      25     1     1     2     0     0  1.479263480E+02  2.338913715E+02  8.305093386E+01  3.148171465E+02  1.250000000E+02  0.00000E+00  9.000E+00
      21     1     1     2   511   501  8.453929159E+00 -2.190262273E+02 -1.614647935E+02  2.722404024E+02  5.722045898E-06  0.00000E+00  9.000E+00
#rwgt            2          11   3.8066558266570696E-003           6       66320           0
</event>
<event>
      5   9999  3.19816E-02  1.53045E+02 -1.00000E+00  1.16049E-01
      21    -1     0     0   502   501  0.000000000E+00  0.000000000E+00  1.224734342E+03  1.224734342E+03  0.000000000E+00  0.00000E+00  9.000E+00
      21    -1     0     0   501   512  0.000000000E+00  0.000000000E+00 -5.799612872E+02  5.799612872E+02  0.000000000E+00  0.00000E+00  9.000E+00
      25     1     1     2     0     0  1.389035250E+02  3.151725197E+02  5.340463056E+02  6.476560529E+02  1.250000000E+02  0.00000E+00  9.000E+00
      25     1     1     2     0     0 -1.325084507E+02 -4.680834076E+02  5.182583393E+02  7.217182776E+02  1.250000000E+02  0.00000E+00  9.000E+00
      21     1     1     2   502   512 -6.395074347E+00  1.529108879E+02 -4.075315898E+02  4.353212989E+02  1.078959322E-05  0.00000E+00  9.000E+00
#rwgt            1           1   2.6031114647822089E-002           6       66340           0
</event>
<event>
      5   9999  3.19816E-02  4.05298E+01 -1.00000E+00  1.44487E-01
      21    -1     0     0   502   511  0.000000000E+00  0.000000000E+00  1.055925232E+03  1.055925232E+03  0.000000000E+00  0.00000E+00  9.000E+00
      21    -1     0     0   501   502  0.000000000E+00  0.000000000E+00 -1.151414539E+02  1.151414539E+02  0.000000000E+00  0.00000E+00  9.000E+00
      25     1     1     2     0     0  5.084272436E+01 -2.283211272E+02  6.225552991E+02  6.766946284E+02  1.250000000E+02  0.00000E+00  9.000E+00
      25     1     1     2     0     0 -6.842518593E+01  1.918036738E+02  7.890054167E+01  2.516365451E+02  1.250000000E+02  0.00000E+00  9.000E+00
      21     1     1     2   501   511  1.758246157E+01  3.651745342E+01  2.393279376E+02  2.427355126E+02  0.000000000E+00  0.00000E+00  9.000E+00
#rwgt            1           1   2.6853039559542772E-002           6       66416           0
</event>
<event>
      5   9999  3.19816E-02  5.45658E+01 -1.00000E+00  1.36944E-01
      21    -1     0     0   502   501  0.000000000E+00  0.000000000E+00  9.077447338E+02  9.077447338E+02  0.000000000E+00  0.00000E+00  9.000E+00
      -2    -1     0     0     0   502  0.000000000E+00  0.000000000E+00 -1.838976950E+02  1.838976950E+02  0.000000000E+00  0.00000E+00  9.000E+00
      25     1     1     2     0     0 -1.659542222E+02  1.225869071E+02  5.453837330E+02  5.963528904E+02  1.250000000E+02  0.00000E+00  9.000E+00
      25     1     1     2     0     0  1.479721160E+02 -7.106920163E+01  2.988252525E+02  3.631364896E+02  1.250000000E+02  0.00000E+00  9.000E+00
      -2     1     1     2     0   501  1.798210616E+01 -5.151770544E+01 -1.203619467E+02  1.321530489E+02  5.223489356E-06  0.00000E+00  9.000E+00
#rwgt            1           1   3.0680293923565929E-002           6       66555           0
</event>
<event>
      5   9999  3.19816E-02  1.95266E+02 -1.00000E+00  1.12028E-01
      21    -1     0     0   502   511  0.000000000E+00  0.000000000E+00  3.450337686E+02  3.450337686E+02  0.000000000E+00  0.00000E+00  9.000E+00
      21    -1     0     0   501   502  0.000000000E+00  0.000000000E+00 -8.014510623E+02  8.014510623E+02  0.000000000E+00  0.00000E+00  9.000E+00
      25     1     1     2     0     0 -2.282945006E+02 -2.772669404E+02 -4.325323309E+01  3.827416589E+02  1.250000000E+02  0.00000E+00  9.000E+00
      25     1     1     2     0     0  8.938707284E+01  4.145026937E+02 -3.292454823E+02  5.512078732E+02  1.250000000E+02  0.00000E+00  9.000E+00
      21     1     1     2   501   511  1.389074278E+02 -1.372357532E+02 -8.391857831E+01  2.125352988E+02  4.768371582E-06  0.00000E+00  9.000E+00
#rwgt            2          11   4.0259447762287532E-003           6       66749           0
</event>
<event>
      5   9999  3.19816E-02  3.98161E+02 -1.00000E+00  1.01746E-01
      21    -1     0     0   502   512  0.000000000E+00  0.000000000E+00  1.510725348E+03  1.510725348E+03  0.000000000E+00  0.00000E+00  9.000E+00
      21    -1     0     0   501   502  0.000000000E+00  0.000000000E+00 -4.098494714E+02  4.098494714E+02  0.000000000E+00  0.00000E+00  9.000E+00
      25     1     1     2     0     0  1.210758016E+02 -4.539336222E+02 -1.016190999E+02  4.966553378E+02  1.250000000E+02  0.00000E+00  9.000E+00
      25     1     1     2     0     0 -7.877225549E+01  5.802596116E+01  1.605081483E+00  1.587439973E+02  1.250000000E+02  0.00000E+00  9.000E+00
      21     1     1     2   501   512 -4.230354608E+01  3.959076611E+02  1.200889895E+03  1.265175484E+03  1.525878906E-05  0.00000E+00  9.000E+00
#rwgt            2          11   2.9686332696371729E-003           6       66829           0
</event>
<event>
      5   9999  3.19816E-02  5.48736E+01 -1.00000E+00  1.36809E-01
      21    -1     0     0   511   501  0.000000000E+00  0.000000000E+00  6.896649553E+02  6.896649553E+02  0.000000000E+00  0.00000E+00  9.000E+00
      21    -1     0     0   501   502  0.000000000E+00  0.000000000E+00 -4.526827158E+02  4.526827158E+02  0.000000000E+00  0.00000E+00  9.000E+00
      25     1     1     2     0     0  3.872682334E+02  2.018061890E+02  1.234059810E+02  4.706978423E+02  1.250000000E+02  0.00000E+00  9.000E+00
      25     1     1     2     0     0 -3.385222668E+02 -1.766081998E+02 -1.297646767E+02  4.221985939E+02  1.250000000E+02  0.00000E+00  9.000E+00
      21     1     1     2   511   502 -4.874596663E+01 -2.519798923E+01  2.433409351E+02  2.494512350E+02  2.697398305E-06  0.00000E+00  9.000E+00
#rwgt            1           1   2.8551732975125803E-002           6       66849           0
</event>
<event>
      5   9999  3.19816E-02  2.64189E+02 -1.00000E+00  1.07417E-01
      21    -1     0     0   512   501  0.000000000E+00  0.000000000E+00  2.165485694E+03  2.165485694E+03  0.000000000E+00  0.00000E+00  9.000E+00
      21    -1     0     0   501   502  0.000000000E+00  0.000000000E+00 -6.885217705E+02  6.885217705E+02  0.000000000E+00  0.00000E+00  9.000E+00
      25     1     1     2     0     0  3.051044069E+02  2.800496116E+02  2.515861317E+02  5.004368749E+02  1.250000000E+02  0.00000E+00  9.000E+00
      25     1     1     2     0     0 -8.897679054E+01 -1.281129526E+02 -5.362241714E+02  5.722684335E+02  1.250000000E+02  0.00000E+00  9.000E+00
      21     1     1     2   512   502 -2.161276163E+02 -1.519366590E+02  1.761601963E+03  1.781302156E+03  2.157918644E-05  0.00000E+00  9.000E+00
#rwgt            2          11   2.0573288194524302E-003           6       67020           0
</event>
<event>
      5   9999  3.19816E-02  1.21267E+02 -1.00000E+00  1.20175E-01
      21    -1     0     0   502   501  0.000000000E+00  0.000000000E+00  2.735436550E+02  2.735436550E+02  0.000000000E+00  0.00000E+00  9.000E+00
      21    -1     0     0   501   511  0.000000000E+00  0.000000000E+00 -2.586226844E+03  2.586226844E+03  0.000000000E+00  0.00000E+00  9.000E+00
      25     1     1     2     0     0  4.817666202E+01  6.971194012E+02 -9.252787285E+02  1.166217036E+03  1.250000000E+02  0.00000E+00  9.000E+00
      25     1     1     2     0     0 -1.693740606E+02 -7.012406804E+02 -7.629119974E+02  1.057395754E+03  1.250000000E+02  0.00000E+00  9.000E+00
      21     1     1     2   502   511  1.211973986E+02  4.121279205E+00 -6.244924625E+02  6.361577085E+02  7.629394531E-06  0.00000E+00  9.000E+00
#rwgt            1           1   3.1248153381726658E-002           6       67040           0
</event>
<event>
      5   9999  3.19816E-02  3.00767E+01 -1.00000E+00  1.52963E-01
      21    -1     0     0   502   501  0.000000000E+00  0.000000000E+00  2.421378431E+03  2.421378431E+03  0.000000000E+00  0.00000E+00  9.000E+00
      21    -1     0     0   512   502  0.000000000E+00  0.000000000E+00 -3.374075944E+01  3.374075944E+01  0.000000000E+00  0.00000E+00  9.000E+00
      25     1     1     2     0     0 -9.063514413E+00 -2.040623007E+02  1.272047126E+03  1.294392700E+03  1.250000000E+02  0.00000E+00  9.000E+00
      25     1     1     2     0     0  2.787955769E+00  2.334769895E+02  1.088469226E+03  1.120227447E+03  1.250000000E+02  0.00000E+00  9.000E+00
      21     1     1     2   512   501  6.275558644E+00 -2.941468879E+01  2.712131883E+01  4.049904305E+01  1.752011592E-06  0.00000E+00  9.000E+00
#rwgt            1           1   6.3118225976469419E-002           6       67131           0
</event>
<event>
      5   9999  3.19816E-02  5.49409E+01 -1.00000E+00  1.36780E-01
      21    -1     0     0   502   511  0.000000000E+00  0.000000000E+00  1.031574375E+03  1.031574375E+03  0.000000000E+00  0.00000E+00  9.000E+00
      21    -1     0     0   501   502  0.000000000E+00  0.000000000E+00 -2.218581779E+02  2.218581779E+02  0.000000000E+00  0.00000E+00  9.000E+00
      25     1     1     2     0     0  2.243804231E+02  2.676036485E+02  6.068613807E+02  7.112411843E+02  1.250000000E+02  0.00000E+00  9.000E+00
      25     1     1     2     0     0 -2.148498002E+02 -2.134956696E+02 -4.482899874E+00  3.276979310E+02  1.250000000E+02  0.00000E+00  9.000E+00
      21     1     1     2   501   511 -9.530622926E+00 -5.410797884E+01  2.073377163E+02  2.144934376E+02  2.697398305E-06  0.00000E+00  9.000E+00
#rwgt            1           1   2.6195193063992827E-002           6       67212           0
</event>
<event>
      5   9999  3.44765E-02  2.97806E+02 -1.00000E+00  1.05696E-01
      21    -1     0     0   502   512  0.000000000E+00  0.000000000E+00  2.562646324E+02  2.562646324E+02  0.000000000E+00  0.00000E+00  9.000E+00
      21    -1     0     0   501   502  0.000000000E+00  0.000000000E+00 -1.282285129E+03  1.282285129E+03  0.000000000E+00  0.00000E+00  9.000E+00
      25     1     1     2     0     0  6.511325645E+01  4.719017615E+00 -3.815738457E+02  4.067992195E+02  1.250000000E+02  0.00000E+00  9.000E+00
      25     1     1     2     0     0  2.415343614E+01  2.793934180E+02 -7.542492405E+02  8.143469699E+02  1.250000000E+02  0.00000E+00  9.000E+00
      21     1     1     2   501   512 -8.926669259E+01 -2.841124356E+02  1.098025900E+02  3.174035716E+02  7.979011789E-06  0.00000E+00  9.000E+00
#rwgt            2          11   3.9380130157663534E-002           6       67383           0
</event>
<event>
      5   9999  3.19816E-02  2.71003E+01 -1.00000E+00  1.56171E-01
      21    -1     0     0   502   511  0.000000000E+00  0.000000000E+00  5.843690338E+02  5.843690338E+02  0.000000000E+00  0.00000E+00  9.000E+00
      21    -1     0     0   501   502  0.000000000E+00  0.000000000E+00 -1.890453378E+02  1.890453378E+02  0.000000000E+00  0.00000E+00  9.000E+00
      25     1     1     2     0     0 -1.156650446E+02  2.760125929E+02  2.722799683E+02  4.234651522E+02  1.250000000E+02  0.00000E+00  9.000E+00
      25     1     1     2     0     0  1.085669958E+02 -2.498584071E+02  1.059556497E+02  3.179113333E+02  1.250000000E+02  0.00000E+00  9.000E+00
      21     1     1     2   501   511  7.098048779E+00 -2.615418585E+01  1.708807804E+01  3.203788608E+01  8.259061849E-07  0.00000E+00  9.000E+00
#rwgt            1           1   2.7896031708993841E-002           6       67418           0
</event>
<event>
      5   9999  3.19816E-02  2.03752E+02 -1.00000E+00  1.11355E-01
      21    -1     0     0   512   501  0.000000000E+00  0.000000000E+00  3.261339692E+02  3.261339692E+02  0.000000000E+00  0.00000E+00  9.000E+00
      21    -1     0     0   501   502  0.000000000E+00  0.000000000E+00 -4.242151634E+02  4.242151634E+02  0.000000000E+00  0.00000E+00  9.000E+00
      25     1     1     2     0     0 -1.688227698E+02  1.403171769E+02  2.416618875E+01  2.537696641E+02  1.250000000E+02  0.00000E+00  9.000E+00
      25     1     1     2     0     0  1.667912385E+02  6.342488735E+01 -1.823905785E+02  2.841361587E+02  1.250000000E+02  0.00000E+00  9.000E+00
      21     1     1     2   512   502  2.031531311E+00 -2.037420643E+02  6.014319563E+01  2.124433097E+02  5.560829062E-06  0.00000E+00  9.000E+00
#rwgt            1           1   2.1692419005192722E-002           6       67587           0
</event>
<event>
      5   9999  3.19816E-02  2.47844E+01 -1.00000E+00  1.59033E-01
      21    -1     0     0   502   511  0.000000000E+00  0.000000000E+00  1.841169310E+02  1.841169310E+02  0.000000000E+00  0.00000E+00  9.000E+00
      21    -1     0     0   501   502  0.000000000E+00  0.000000000E+00 -8.728994499E+02  8.728994499E+02  0.000000000E+00  0.00000E+00  9.000E+00
      25     1     1     2     0     0 -1.358957492E+02 -1.254007975E+02 -1.013758531E+02  2.451429751E+02  1.250000000E+02  0.00000E+00  9.000E+00
      25     1     1     2     0     0  1.198229144E+02  1.442669548E+02 -6.798140035E+02  7.162000868E+02  1.250000000E+02  0.00000E+00  9.000E+00
      21     1     1     2   501   511  1.607283482E+01 -1.886615736E+01  9.240733769E+01  9.567331901E+01  2.336015456E-06  0.00000E+00  9.000E+00
#rwgt            1           1   2.8407626372775285E-002           6       67625           0
</event>
<event>
      5   9999  3.19816E-02  1.10159E+02 -1.00000E+00  1.21967E-01
      21    -1     0     0   502   501  0.000000000E+00  0.000000000E+00  3.366096105E+03  3.366096105E+03  0.000000000E+00  0.00000E+00  9.000E+00
      21    -1     0     0   512   502  0.000000000E+00  0.000000000E+00 -3.347796468E+02  3.347796468E+02  0.000000000E+00  0.00000E+00  9.000E+00
      25     1     1     2     0     0 -1.360230530E+02  1.028501618E+02  3.240695267E+03  3.247585447E+03  1.250000000E+02  0.00000E+00  9.000E+00
      25     1     1     2     0     0  1.345751104E+02 -2.129997730E+02 -1.012330536E+02  2.989188766E+02  1.250000000E+02  0.00000E+00  9.000E+00
      21     1     1     2   512   501  1.447942581E+00  1.101496113E+02 -1.081457549E+02  1.543714278E+02  3.568322551E-06  0.00000E+00  9.000E+00
#rwgt            1           1   5.1702077558248849E-002           6       67776           0
</event>
<event>
      5   9999  3.19816E-02  4.73103E+01 -1.00000E+00  1.40460E-01
      21    -1     0     0   502   501  0.000000000E+00  0.000000000E+00  2.208473201E+02  2.208473201E+02  0.000000000E+00  0.00000E+00  9.000E+00
      21    -1     0     0   501   511  0.000000000E+00  0.000000000E+00 -2.381231180E+02  2.381231180E+02  0.000000000E+00  0.00000E+00  9.000E+00
      25     1     1     2     0     0 -4.430916074E+01  3.509847232E+01  1.432127109E+02  1.983181410E+02  1.250000000E+02  0.00000E+00  9.000E+00
      25     1     1     2     0     0  3.887521031E+01 -8.209568189E+01 -1.008086888E+02  1.844949178E+02  1.250000000E+02  0.00000E+00  9.000E+00
      21     1     1     2   502   511  5.433950432E+00  4.699720957E+01 -5.967981987E+01  7.615737932E+01  1.348699152E-06  0.00000E+00  9.000E+00
#rwgt            1           1   2.8728058664615110E-002           6       67873           0
</event>
<event>
      5   9999  3.19816E-02  1.89039E+02 -1.00000E+00  1.12546E-01
      21    -1     0     0   502   512  0.000000000E+00  0.000000000E+00  1.136682174E+03  1.136682174E+03  0.000000000E+00  0.00000E+00  9.000E+00
      21    -1     0     0   501   502  0.000000000E+00  0.000000000E+00 -3.278316010E+02  3.278316010E+02  0.000000000E+00  0.00000E+00  9.000E+00
      25     1     1     2     0     0  1.517053713E+01 -7.427008811E+01  3.654176226E+02  3.935749358E+02  1.250000000E+02  0.00000E+00  9.000E+00
      25     1     1     2     0     0 -6.233897916E+01 -1.087901243E+02 -2.755455673E+02  3.275237383E+02  1.250000000E+02  0.00000E+00  9.000E+00
      21     1     1     2   501   512  4.716844203E+01  1.830602124E+02  7.189785175E+02  7.434151006E+02  1.868812365E-05  0.00000E+00  9.000E+00
#rwgt            1           1   2.7355505917387841E-002           6       67974           0
</event>
<event>
      5   9999  3.19816E-02  1.56837E+02 -1.00000E+00  1.15632E-01
       2    -1     0     0   502     0  0.000000000E+00  0.000000000E+00  4.937097784E+02  4.937097784E+02  0.000000000E+00  0.00000E+00  9.000E+00
      21    -1     0     0   501   502  0.000000000E+00  0.000000000E+00 -6.297061582E+02  6.297061582E+02  0.000000000E+00  0.00000E+00  9.000E+00
      25     1     1     2     0     0 -1.010287333E+02 -1.950715272E+02 -2.412834111E+02  3.494315243E+02  1.250000000E+02  0.00000E+00  9.000E+00
      25     1     1     2     0     0  1.958275406E+02  3.200159708E+02 -1.906842278E+02  4.390263341E+02  1.250000000E+02  0.00000E+00  9.000E+00
       2     1     1     2   501     0 -9.479880735E+01 -1.249444437E+02  2.959712593E+02  3.349580782E+02  3.814697266E-06  0.00000E+00  9.000E+00
#rwgt            1           1   2.7756287903557050E-002           6       68029           0
</event>
<event>
      5   9999  3.19816E-02  3.33084E+00 -1.00000E+00  2.83730E-01
      21    -1     0     0   502   511  0.000000000E+00  0.000000000E+00  2.561784357E+02  2.561784357E+02  0.000000000E+00  0.00000E+00  9.000E+00
      21    -1     0     0   501   502  0.000000000E+00  0.000000000E+00 -1.736759324E+03  1.736759324E+03  0.000000000E+00  0.00000E+00  9.000E+00
      25     1     1     2     0     0  5.095099416E+02  1.179727346E+02 -1.238448192E+03  1.350146981E+03  1.250000000E+02  0.00000E+00  9.000E+00
      25     1     1     2     0     0 -5.128102710E+02 -1.175229163E+02 -2.771348994E+02  6.076304488E+02  1.250000000E+02  0.00000E+00  9.000E+00
      21     1     1     2   501   511  3.300329373E+00 -4.498182553E-01  3.500220338E+01  3.516032924E+01  4.768371582E-07  0.00000E+00  9.000E+00
#rwgt            2          11   7.6327591878801952E-004           6       68113           0
</event>
<event>
      5   9999  3.19816E-02  1.60070E+02 -1.00000E+00  1.15286E-01
      21    -1     0     0   512   501  0.000000000E+00  0.000000000E+00  3.390690658E+02  3.390690658E+02  0.000000000E+00  0.00000E+00  9.000E+00
      21    -1     0     0   501   502  0.000000000E+00  0.000000000E+00 -9.935646126E+02  9.935646126E+02  0.000000000E+00  0.00000E+00  9.000E+00
      25     1     1     2     0     0  1.358620816E+02  1.765675755E+02  8.248118297E+01  2.684450772E+02  1.250000000E+02  0.00000E+00  9.000E+00
      25     1     1     2     0     0 -1.712466951E+02 -2.045768040E+01 -8.447688600E+02  8.712079971E+02  1.250000000E+02  0.00000E+00  9.000E+00
      21     1     1     2   512   502  3.538461350E+01 -1.561098951E+02  1.077921303E+02  1.929806041E+02  3.015782986E-06  0.00000E+00  9.000E+00
#rwgt            1           1   2.7638290140226660E-002           6       68148           0
</event>
<event>
      5   9999  3.19816E-02  1.34788E+02 -1.00000E+00  1.18264E-01
      21    -1     0     0   511   501  0.000000000E+00  0.000000000E+00  2.678434287E+02  2.678434287E+02  0.000000000E+00  0.00000E+00  9.000E+00
      21    -1     0     0   501   502  0.000000000E+00  0.000000000E+00 -8.367911721E+02  8.367911721E+02  0.000000000E+00  0.00000E+00  9.000E+00
      25     1     1     2     0     0  3.529404349E+02  2.805736265E+02 -2.638898654E+02  5.371697791E+02  1.250000000E+02  0.00000E+00  9.000E+00
      25     1     1     2     0     0 -2.415363083E+02 -2.046998199E+02 -2.477152864E+02  4.209865408E+02  1.250000000E+02  0.00000E+00  9.000E+00
      21     1     1     2   511   502 -1.114041266E+02 -7.587380666E+01 -5.734259159E+01  1.464782809E+02  2.697398305E-06  0.00000E+00  9.000E+00
#rwgt            1           1   2.7431195482500885E-002           6       68214           0
</event>
<event>
      5   9999  3.19816E-02  7.76246E+01 -1.00000E+00  1.28986E-01
      21    -1     0     0   512   501  0.000000000E+00  0.000000000E+00  4.812484477E+02  4.812484477E+02  0.000000000E+00  0.00000E+00  9.000E+00
      21    -1     0     0   501   502  0.000000000E+00  0.000000000E+00 -4.239934531E+02  4.239934531E+02  0.000000000E+00  0.00000E+00  9.000E+00
      25     1     1     2     0     0  2.958283215E+02 -6.147365910E+00  9.995591685E+01  3.364050701E+02  1.250000000E+02  0.00000E+00  9.000E+00
      25     1     1     2     0     0 -3.726373665E+02  1.736978841E+01 -1.628449368E+02  4.257978275E+02  1.250000000E+02  0.00000E+00  9.000E+00
      21     1     1     2   512   502  7.680904508E+01 -1.122242250E+01  1.201440145E+02  1.430390031E+02  1.907348633E-06  0.00000E+00  9.000E+00
#rwgt            1           1   2.8110878868951222E-002           6       68262           0
</event>
<event>
      5   9999  3.19816E-02  8.25286E+01 -1.00000E+00  1.27699E-01
      21    -1     0     0   502   501  0.000000000E+00  0.000000000E+00  5.415415999E+02  5.415415999E+02  0.000000000E+00  0.00000E+00  9.000E+00
      21    -1     0     0   501   511  0.000000000E+00  0.000000000E+00 -1.662032546E+02  1.662032546E+02  0.000000000E+00  0.00000E+00  9.000E+00
      25     1     1     2     0     0 -1.421101966E+02 -6.651047664E+01  3.247975175E+01  2.032212729E+02  1.250000000E+02  0.00000E+00  9.000E+00
      25     1     1     2     0     0  6.275787750E+01  4.383489729E+01  3.849275864E+02  4.118911218E+02  1.250000000E+02  0.00000E+00  9.000E+00
      21     1     1     2   502   511  7.935231913E+01  2.267557935E+01 -4.206899282E+01  9.263245979E+01  6.743495762E-07  0.00000E+00  9.000E+00
#rwgt            1           1   2.7056398192476103E-002           6       68336           0
</event>
<event>
      5   9999  3.19816E-02  3.21935E+01 -1.00000E+00  1.50941E-01
      21    -1     0     0   512   501  0.000000000E+00  0.000000000E+00  4.764555134E+01  4.764555134E+01  0.000000000E+00  0.00000E+00  9.000E+00
      21    -1     0     0   501   502  0.000000000E+00  0.000000000E+00 -1.105710411E+03  1.105710411E+03  0.000000000E+00  0.00000E+00  9.000E+00
      25     1     1     2     0     0 -1.916095295E+01  1.583678406E+02 -7.371623690E+02  7.645134879E+02  1.250000000E+02  0.00000E+00  9.000E+00
      25     1     1     2     0     0 -6.427436119E+00 -1.388317480E+02 -2.823180491E+02  3.385912684E+02  1.250000000E+02  0.00000E+00  9.000E+00
      21     1     1     2   512   502  2.558838907E+01 -1.953609253E+01 -3.858444145E+01  5.025120584E+01  6.743495762E-07  0.00000E+00  9.000E+00
#rwgt            1           1   2.9553795453327963E-002           6       68368           0
</event>
<event>
      5   9999  3.54046E-02  2.76435E+01 -1.00000E+00  1.55549E-01
      21    -1     0     0   502   501  0.000000000E+00  0.000000000E+00  8.867951141E+02  8.867951141E+02  0.000000000E+00  0.00000E+00  9.000E+00
      21    -1     0     0   511   502  0.000000000E+00  0.000000000E+00 -6.461822993E+02  6.461822993E+02  0.000000000E+00  0.00000E+00  9.000E+00
      25     1     1     2     0     0 -4.954813533E+01 -6.409372841E+02  4.596119916E+02  8.000773729E+02  1.250000000E+02  0.00000E+00  9.000E+00
      25     1     1     2     0     0  7.289951513E+01  6.557317812E+02 -2.063363914E+02  7.024942809E+02  1.250000000E+02  0.00000E+00  9.000E+00
      21     1     1     2   511   501 -2.335137980E+01 -1.479449717E+01 -1.266278542E+01  3.040575965E+01  1.685873940E-07  0.00000E+00  9.000E+00
#rwgt            1           1   3.6300653208722090E-002           6       68488           0
</event>
<event>
      5   9999  3.19816E-02  2.87193E+01 -1.00000E+00  1.54368E-01
       2    -1     0     0   502     0  0.000000000E+00  0.000000000E+00  9.442802718E+02  9.442802718E+02  0.000000000E+00  0.00000E+00  9.000E+00
      21    -1     0     0   501   502  0.000000000E+00  0.000000000E+00 -7.578962328E+01  7.578962328E+01  0.000000000E+00  0.00000E+00  9.000E+00
      25     1     1     2     0     0  6.085170058E+01  8.530662222E+00  2.107936354E+01  1.408724289E+02  1.250000000E+02  0.00000E+00  9.000E+00
      25     1     1     2     0     0 -4.273716943E+01  1.375525250E+01  2.683077303E+02  2.993822152E+02  1.250000000E+02  0.00000E+00  9.000E+00
       2     1     1     2   501     0 -1.811453115E+01 -2.228591472E+01  5.791035547E+02  5.798152510E+02  1.078959322E-05  0.00000E+00  9.000E+00
#rwgt            1           1   2.6296247395717801E-002           6       68715           0
</event>
<event>
      5   9999  3.19816E-02  1.36927E+02 -1.00000E+00  1.17985E-01
      21    -1     0     0   502   511  0.000000000E+00  0.000000000E+00  1.413372674E+03  1.413372674E+03  0.000000000E+00  0.00000E+00  9.000E+00
      21    -1     0     0   501   502  0.000000000E+00  0.000000000E+00 -4.141313134E+02  4.141313134E+02  0.000000000E+00  0.00000E+00  9.000E+00
      25     1     1     2     0     0 -1.936716507E+02  3.621626257E+02  5.662718693E+02  7.106048872E+02  1.250000000E+02  0.00000E+00  9.000E+00
      25     1     1     2     0     0  5.700114620E+01 -3.705362174E+02 -2.182453200E+02  4.514446132E+02  1.250000000E+02  0.00000E+00  9.000E+00
      21     1     1     2   501   511  1.366705045E+02  8.373591755E+00  6.512148109E+02  6.654544866E+02  1.321449896E-05  0.00000E+00  9.000E+00
#rwgt            1           1   2.7801133336314836E-002           6       68892           0
</event>
<event>
      5   9999  3.19816E-02  6.19250E+01 -1.00000E+00  1.33975E-01
      21    -1     0     0   502   512  0.000000000E+00  0.000000000E+00  4.391088438E+02  4.391088438E+02  0.000000000E+00  0.00000E+00  9.000E+00
      21    -1     0     0   501   502  0.000000000E+00  0.000000000E+00 -1.499446424E+03  1.499446424E+03  0.000000000E+00  0.00000E+00  9.000E+00
      25     1     1     2     0     0 -2.029241880E+02  4.096261040E+02 -1.055038252E+03  1.156590889E+03  1.250000000E+02  0.00000E+00  9.000E+00
      25     1     1     2     0     0  1.760298048E+02 -3.538462255E+02 -2.800988813E+02  5.002739518E+02  1.250000000E+02  0.00000E+00  9.000E+00
      21     1     1     2   501   512  2.689438315E+01 -5.577987848E+01  2.747995528E+02  2.816904274E+02  1.009274029E-05  0.00000E+00  9.000E+00
#rwgt            1           1   2.7897996370694924E-002           6       68974           0
</event>
<event>
      5   9999  3.19816E-02  2.39356E+01 -1.00000E+00  1.60179E-01
      21    -1     0     0   502   511  0.000000000E+00  0.000000000E+00  4.928816697E+02  4.928816697E+02  0.000000000E+00  0.00000E+00  9.000E+00
      21    -1     0     0   501   502  0.000000000E+00  0.000000000E+00 -5.641075310E+02  5.641075310E+02  0.000000000E+00  0.00000E+00  9.000E+00
      25     1     1     2     0     0 -3.930894047E+02  2.755269629E+02 -7.068481106E+01  5.010546176E+02  1.250000000E+02  0.00000E+00  9.000E+00
      25     1     1     2     0     0  4.049712947E+02 -2.547487886E+02 -5.393016430E+01  4.974255296E+02  1.250000000E+02  0.00000E+00  9.000E+00
      21     1     1     2   501   511 -1.188189006E+01 -2.077817431E+01  5.338911413E+01  5.850905354E+01  9.536743164E-07  0.00000E+00  9.000E+00
#rwgt            1           1   2.8168707089073000E-002           6       69069           0
</event>
<event>
      5   9999  3.19816E-02  9.91785E+00 -1.00000E+00  1.96172E-01
      21    -1     0     0   512   501  0.000000000E+00  0.000000000E+00  1.392920765E+02  1.392920765E+02  0.000000000E+00  0.00000E+00  9.000E+00
      21    -1     0     0   501   502  0.000000000E+00  0.000000000E+00 -9.465035876E+02  9.465035876E+02  0.000000000E+00  0.00000E+00  9.000E+00
      25     1     1     2     0     0  2.690110632E+02  1.127432552E+01 -1.807492559E+02  3.475476314E+02  1.250000000E+02  0.00000E+00  9.000E+00
      25     1     1     2     0     0 -2.780487818E+02 -1.535886314E+01 -6.470289394E+02  7.154148923E+02  1.250000000E+02  0.00000E+00  9.000E+00
      21     1     1     2   512   502  9.037718587E+00  4.084537622E+00  2.056668417E+01  2.283314045E+01  6.743495762E-07  0.00000E+00  9.000E+00
#rwgt            1           1   2.7019206985902985E-002           6       69199           0
</event>
<event>
      5   9999  3.19816E-02  3.26042E+01 -1.00000E+00  1.50571E-01
      21    -1     0     0   502   511  0.000000000E+00  0.000000000E+00  3.570608697E+02  3.570608697E+02  0.000000000E+00  0.00000E+00  9.000E+00
      21    -1     0     0   501   502  0.000000000E+00  0.000000000E+00 -2.705447727E+02  2.705447727E+02  0.000000000E+00  0.00000E+00  9.000E+00
      25     1     1     2     0     0 -4.564410686E+00  2.364674929E+02 -1.080189558E+02  2.884974937E+02  1.250000000E+02  0.00000E+00  9.000E+00
      25     1     1     2     0     0  2.297846380E+01 -2.095610978E+02  1.692782318E+02  2.978657135E+02  1.250000000E+02  0.00000E+00  9.000E+00
      21     1     1     2   501   511 -1.841405311E+01 -2.690639511E+01  2.525682100E+01  4.124243515E+01  3.371747881E-07  0.00000E+00  9.000E+00
#rwgt            1           1   2.5792134572200080E-002           6       69425           0
</event>
<event>
      5   9999  3.19816E-02  5.06717E+02 -1.00000E+00  9.86876E-02
      21    -1     0     0   502   501  0.000000000E+00  0.000000000E+00  9.845134982E+02  9.845134982E+02  0.000000000E+00  0.00000E+00  9.000E+00
      21    -1     0     0   501   512  0.000000000E+00  0.000000000E+00 -4.401920335E+02  4.401920335E+02  0.000000000E+00  0.00000E+00  9.000E+00
      25     1     1     2     0     0  8.976511434E+01  3.290505020E+02  5.155183899E+02  6.306474601E+02  1.250000000E+02  0.00000E+00  9.000E+00
      25     1     1     2     0     0  2.158637805E+02  7.511932462E+01  1.064637003E+02  2.814242423E+02  1.250000000E+02  0.00000E+00  9.000E+00
      21     1     1     2   502   512 -3.056288949E+02 -4.041698266E+02 -7.766062556E+01  5.126338293E+02  9.536743164E-07  0.00000E+00  9.000E+00
#rwgt            1           1   3.1864396067643588E-002           6       69538           0
</event>
<event>
      5   9999  3.19816E-02  1.00980E+02 -1.00000E+00  1.23638E-01
      21    -1     0     0   502   511  0.000000000E+00  0.000000000E+00  3.157063538E+02  3.157063538E+02  0.000000000E+00  0.00000E+00  9.000E+00
      21    -1     0     0   501   502  0.000000000E+00  0.000000000E+00 -6.532239297E+02  6.532239297E+02  0.000000000E+00  0.00000E+00  9.000E+00
      25     1     1     2     0     0  6.422464188E+01  8.227396065E+01 -9.644782388E+01  1.892643441E+02  1.250000000E+02  0.00000E+00  9.000E+00
      25     1     1     2     0     0 -1.172239513E+02  3.679338642E+00 -4.856763647E+02  5.150354585E+02  1.250000000E+02  0.00000E+00  9.000E+00
      21     1     1     2   501   511  5.299930946E+01 -8.595329929E+01  2.446066127E+02  2.646304809E+02  3.814697266E-06  0.00000E+00  9.000E+00
#rwgt            1           1   2.7357902535412749E-002           6       69581           0
</event>
<event>
      5   9999  3.19816E-02  5.87554E+01 -1.00000E+00  1.35192E-01
      21    -1     0     0   512   501  0.000000000E+00  0.000000000E+00  3.864066696E+02  3.864066696E+02  0.000000000E+00  0.00000E+00  9.000E+00
      21    -1     0     0   501   502  0.000000000E+00  0.000000000E+00 -1.328938296E+03  1.328938296E+03  0.000000000E+00  0.00000E+00  9.000E+00
      25     1     1     2     0     0  4.641404599E+02  1.860741131E+02 -7.349002562E+02  8.976376377E+02  1.250000000E+02  0.00000E+00  9.000E+00
      25     1     1     2     0     0 -4.615986193E+02 -2.447744952E+02 -3.651584268E+02  6.495794913E+02  1.250000000E+02  0.00000E+00  9.000E+00
      21     1     1     2   512   502 -2.541840574E+00  5.870038218E+01  1.575270566E+02  1.681278365E+02  3.814697266E-06  0.00000E+00  9.000E+00
#rwgt            1           1   3.1689097458397333E-002           6       69665           0
</event>
<event>
      5   9999  3.19816E-02  2.56942E+02 -1.00000E+00  1.07825E-01
      21    -1     0     0   511   501  0.000000000E+00  0.000000000E+00  9.555741300E+02  9.555741300E+02  0.000000000E+00  0.00000E+00  9.000E+00
      21    -1     0     0   501   502  0.000000000E+00  0.000000000E+00 -2.987143300E+03  2.987143300E+03  0.000000000E+00  0.00000E+00  9.000E+00
      25     1     1     2     0     0  1.607346673E+02 -5.490202596E+01 -2.840806471E+03  2.848623575E+03  1.250000000E+02  0.00000E+00  9.000E+00
      25     1     1     2     0     0  7.636787014E+01 -4.410197853E+01 -7.706943492E+01  1.712942903E+02  1.250000000E+02  0.00000E+00  9.000E+00
      21     1     1     2   511   502 -2.371025374E+02  9.900400448E+01  8.863067361E+02  9.227995647E+02  0.000000000E+00  0.00000E+00  9.000E+00
#rwgt            1           1   5.6668244914703882E-002           6       69757           0
</event>
<event>
      5   9999  3.19816E-02  2.32002E+01 -1.00000E+00  1.61220E-01
      21    -1     0     0   502   501  0.000000000E+00  0.000000000E+00  1.353296578E+02  1.353296578E+02  0.000000000E+00  0.00000E+00  9.000E+00
      21    -1     0     0   501   512  0.000000000E+00  0.000000000E+00 -8.744837689E+02  8.744837689E+02  0.000000000E+00  0.00000E+00  9.000E+00
      25     1     1     2     0     0  1.390017217E+02  1.988620817E+02 -2.426310740E+02  3.651882313E+02  1.250000000E+02  0.00000E+00  9.000E+00
      25     1     1     2     0     0 -1.344262898E+02 -2.216066019E+02 -2.077348052E+02  3.549065549E+02  1.250000000E+02  0.00000E+00  9.000E+00
      21     1     1     2   502   512 -4.575431949E+00  2.274452020E+01 -2.887882319E+02  2.897186405E+02  0.000000000E+00  0.00000E+00  9.000E+00
#rwgt            1           1   2.7335386184249143E-002           6       69813           0
</event>
<event>
      5   9999  3.19816E-02  2.72995E+02 -1.00000E+00  1.06940E-01
      21    -1     0     0   502   501  0.000000000E+00  0.000000000E+00  5.098006242E+02  5.098006242E+02  0.000000000E+00  0.00000E+00  9.000E+00
      21    -1     0     0   511   502  0.000000000E+00  0.000000000E+00 -2.653442529E+02  2.653442529E+02  0.000000000E+00  0.00000E+00  9.000E+00
      25     1     1     2     0     0  1.180426453E+02  3.292917287E+01  4.438152128E+01  1.805910185E+02  1.250000000E+02  0.00000E+00  9.000E+00
      25     1     1     2     0     0  8.666527504E+01 -2.135424106E+02  1.855103701E+02  3.211702484E+02  1.250000000E+02  0.00000E+00  9.000E+00
      21     1     1     2   511   501 -2.047079203E+02  1.806132378E+02  1.456447987E+01  2.733836103E+02  4.060122100E-06  0.00000E+00  9.000E+00
#rwgt            1           1   2.8677246251008436E-002           6       69943           0
</event>
<event>
      5   9999  3.19816E-02  1.78313E+01 -1.00000E+00  1.70590E-01
      21    -1     0     0   502   501  0.000000000E+00  0.000000000E+00  5.492050845E+02  5.492050845E+02  0.000000000E+00  0.00000E+00  9.000E+00
       2    -1     0     0   501     0  0.000000000E+00  0.000000000E+00 -3.236194091E+02  3.236194091E+02  0.000000000E+00  0.00000E+00  9.000E+00
      25     1     1     2     0     0  1.562509614E+02 -5.753050423E+01  3.161642364E+02  3.785616809E+02  1.250000000E+02  0.00000E+00  9.000E+00
      25     1     1     2     0     0 -1.733403663E+02  6.262039086E+01  1.399671803E+02  2.630285298E+02  1.250000000E+02  0.00000E+00  9.000E+00
       2     1     1     2   502     0  1.708940489E+01 -5.089886636E+00 -2.305457414E+02  2.312342828E+02  0.000000000E+00  0.00000E+00  9.000E+00
#rwgt            1           1   2.7620767173915657E-002           6       69988           0
</event>
<event>
      5   9999  3.19816E-02  5.11592E+01 -1.00000E+00  1.38510E-01
      21    -1     0     0   502   501  0.000000000E+00  0.000000000E+00  1.711799910E+02  1.711799910E+02  0.000000000E+00  0.00000E+00  9.000E+00
      21    -1     0     0   501   511  0.000000000E+00  0.000000000E+00 -6.657238163E+02  6.657238163E+02  0.000000000E+00  0.00000E+00  9.000E+00
      25     1     1     2     0     0  1.772920191E+02 -8.018194606E+00 -1.737078079E+02  2.780218589E+02  1.250000000E+02  0.00000E+00  9.000E+00
      25     1     1     2     0     0 -2.284494683E+02  8.436240825E+00 -2.849885794E+01  2.621021072E+02  1.250000000E+02  0.00000E+00  9.000E+00
      21     1     1     2   502   511  5.115744915E+01 -4.180462187E-01 -2.923371595E+02  2.967798413E+02  0.000000000E+00  0.00000E+00  9.000E+00
#rwgt            1           1   2.7911169094575760E-002           6       70137           0
</event>
<event>
      5   9999  3.19816E-02  3.35711E+01 -1.00000E+00  1.49723E-01
      21    -1     0     0   502   501  0.000000000E+00  0.000000000E+00  1.705343947E+02  1.705343947E+02  0.000000000E+00  0.00000E+00  9.000E+00
      21    -1     0     0   501   512  0.000000000E+00  0.000000000E+00 -1.065695284E+03  1.065695284E+03  0.000000000E+00  0.00000E+00  9.000E+00
      25     1     1     2     0     0 -1.224697520E+01  7.201814357E+01  1.298376065E+02  1.944721200E+02  1.250000000E+02  0.00000E+00  9.000E+00
      25     1     1     2     0     0  4.515403293E+01 -6.537423855E+01 -9.094130660E+02  9.213955732E+02  1.250000000E+02  0.00000E+00  9.000E+00
      21     1     1     2   502   512 -3.290705774E+01 -6.643905022E+00 -1.155854295E+02  1.203619850E+02  1.348699152E-06  0.00000E+00  9.000E+00
#rwgt            1           1   2.6366460071273329E-002           6       70203           0
</event>
<event>
      5   9999  3.19816E-02  6.95452E+01 -1.00000E+00  1.31364E-01
      21    -1     0     0   502   511  0.000000000E+00  0.000000000E+00  2.107888769E+02  2.107888769E+02  0.000000000E+00  0.00000E+00  9.000E+00
      21    -1     0     0   501   502  0.000000000E+00  0.000000000E+00 -2.645887182E+03  2.645887182E+03  0.000000000E+00  0.00000E+00  9.000E+00
      25     1     1     2     0     0 -4.984900101E+02 -5.138496530E+02 -1.111501092E+03  1.328003552E+03  1.250000000E+02  0.00000E+00  9.000E+00
      25     1     1     2     0     0  4.302635975E+02  5.273287244E+02 -1.239222543E+03  1.419330778E+03  1.250000000E+02  0.00000E+00  9.000E+00
      21     1     1     2   501   511  6.822641258E+01 -1.347907135E+01 -8.437467103E+01  1.093417297E+02  1.651812370E-06  0.00000E+00  9.000E+00
#rwgt            1           1   2.6130634214782344E-002           6       70283           0
</event>
<event>
      5   9999  3.19816E-02  5.83370E+01 -1.00000E+00  1.35359E-01
      21    -1     0     0   512   501  0.000000000E+00  0.000000000E+00  7.013033898E+02  7.013033898E+02  0.000000000E+00  0.00000E+00  9.000E+00
      21    -1     0     0   501   502  0.000000000E+00  0.000000000E+00 -2.473378725E+02  2.473378725E+02  0.000000000E+00  0.00000E+00  9.000E+00
      25     1     1     2     0     0 -3.665758519E+01  2.662097108E+02  3.441065646E+02  4.541428371E+02  1.250000000E+02  0.00000E+00  9.000E+00
      25     1     1     2     0     0  2.251146400E+01 -2.096138048E+02 -1.088263396E+02  2.681657797E+02  1.250000000E+02  0.00000E+00  9.000E+00
      21     1     1     2   512   502  1.414612118E+01 -5.659590596E+01  2.186852924E+02  2.263326455E+02  2.697398305E-06  0.00000E+00  9.000E+00
#rwgt            1           1   2.7871949519634127E-002           6       70400           0
</event>
<event>
      5   9999  3.19816E-02  3.55312E+01 -1.00000E+00  1.48105E-01
      21    -1     0     0   511   501  0.000000000E+00  0.000000000E+00  2.281787237E+02  2.281787237E+02  0.000000000E+00  0.00000E+00  9.000E+00
      21    -1     0     0   501   502  0.000000000E+00  0.000000000E+00 -4.680147450E+02  4.680147450E+02  0.000000000E+00  0.00000E+00  9.000E+00
      25     1     1     2     0     0 -1.114706104E+02 -1.789899973E+02 -2.091136725E+02  3.222059033E+02  1.250000000E+02  0.00000E+00  9.000E+00
      25     1     1     2     0     0  1.439566433E+02  1.933817061E+02 -1.053926034E+02  2.912946966E+02  1.250000000E+02  0.00000E+00  9.000E+00
      21     1     1     2   511   502 -3.248603295E+01 -1.439170881E+01  7.467025462E+01  8.269286876E+01  1.651812370E-06  0.00000E+00  9.000E+00
#rwgt            1           1   2.5300840149968834E-002           6       70547           0
</event>
<event>
      5   9999  3.19816E-02  1.53905E+02 -1.00000E+00  1.15953E-01
      21    -1     0     0   502   501  0.000000000E+00  0.000000000E+00  4.187654805E+02  4.187654805E+02  0.000000000E+00  0.00000E+00  9.000E+00
      21    -1     0     0   501   512  0.000000000E+00  0.000000000E+00 -6.468175999E+02  6.468175999E+02  0.000000000E+00  0.00000E+00  9.000E+00
      25     1     1     2     0     0  7.501635278E+01  2.867672779E+02  9.659552150E+01  3.358848309E+02  1.250000000E+02  0.00000E+00  9.000E+00
      25     1     1     2     0     0 -1.323673861E+02 -4.295875120E+02 -1.355099726E+02  4.858544103E+02  1.250000000E+02  0.00000E+00  9.000E+00
      21     1     1     2   502   512  5.735103334E+01  1.428202341E+02 -1.891376684E+02  2.438438392E+02  2.697398305E-06  0.00000E+00  9.000E+00
#rwgt            1           1   3.1870586545562053E-002           6       70652           0
</event>
<event>
      5   9999  3.19816E-02  2.54963E+01 -1.00000E+00  1.58114E-01
       5    -1     0     0   502     0  0.000000000E+00  0.000000000E+00  8.456998112E+01  8.456998112E+01  0.000000000E+00  0.00000E+00  9.000E+00
      21    -1     0     0   501   502  0.000000000E+00  0.000000000E+00 -1.304171048E+03  1.304171048E+03  0.000000000E+00  0.00000E+00  9.000E+00
      25     1     1     2     0     0  2.197813540E+02 -1.562557330E+01 -3.808272382E+02  4.573864750E+02  1.250000000E+02  0.00000E+00  9.000E+00
      25     1     1     2     0     0 -2.427189419E+02  2.675791289E+01 -8.571165420E+02  8.999456857E+02  1.250000000E+02  0.00000E+00  9.000E+00
       5     1     1     2   501     0  2.293758790E+01 -1.113233958E+01  1.834271293E+01  3.140886883E+01  1.143415337E-06  0.00000E+00  9.000E+00
#rwgt            1           1   2.9912005802753609E-002           6       70722           0
</event>
<event>
      5   9999  3.19816E-02  8.40035E+01 -1.00000E+00  1.27331E-01
      -3    -1     0     0     0   501  0.000000000E+00  0.000000000E+00  8.035944939E+02  8.035944939E+02  0.000000000E+00  0.00000E+00  9.000E+00
      21    -1     0     0   501   502  0.000000000E+00  0.000000000E+00 -2.002312950E+02  2.002312950E+02  0.000000000E+00  0.00000E+00  9.000E+00
      25     1     1     2     0     0 -1.903075272E+02  1.902317601E+02  4.990701627E+01  3.008667275E+02  1.250000000E+02  0.00000E+00  9.000E+00
      25     1     1     2     0     0  2.663082466E+02 -1.544479513E+02  3.487665217E+02  4.817025416E+02  1.250000000E+02  0.00000E+00  9.000E+00
      -3     1     1     2     0   502 -7.600071940E+01 -3.578380872E+01  2.046896609E+02  2.212565199E+02  0.000000000E+00  0.00000E+00  9.000E+00
#rwgt            1           1   2.4133213453352689E-002           6       70839           0
</event>
<event>
      5   9999  3.19816E-02  1.12761E+02 -1.00000E+00  1.21527E-01
      21    -1     0     0   502   501  0.000000000E+00  0.000000000E+00  7.712042710E+02  7.712042710E+02  0.000000000E+00  0.00000E+00  9.000E+00
      21    -1     0     0   511   502  0.000000000E+00  0.000000000E+00 -1.242702485E+03  1.242702485E+03  0.000000000E+00  0.00000E+00  9.000E+00
      25     1     1     2     0     0 -1.040166397E+02 -6.207704812E+01 -6.394189876E+02  6.626874549E+02  1.250000000E+02  0.00000E+00  9.000E+00
      25     1     1     2     0     0  1.943972746E+02 -5.349812280E+00  7.363120571E+02  7.717508447E+02  1.250000000E+02  0.00000E+00  9.000E+00
      21     1     1     2   511   501 -9.038063486E+01  6.742686040E+01 -5.683912836E+02  5.794684564E+02  1.078959322E-05  0.00000E+00  9.000E+00
#rwgt            1           1   3.1878794146824624E-002           6       70950           0
</event>
<event>
      5   9999  3.19816E-02  8.92761E+01 -1.00000E+00  1.26085E-01
      21    -1     0     0   512   501  0.000000000E+00  0.000000000E+00  8.515400538E+02  8.515400538E+02  0.000000000E+00  0.00000E+00  9.000E+00
      21    -1     0     0   501   502  0.000000000E+00  0.000000000E+00 -1.222626750E+03  1.222626750E+03  0.000000000E+00  0.00000E+00  9.000E+00
      25     1     1     2     0     0 -6.491671088E+02  5.681968701E+02 -3.359123788E+02  9.341989855E+02  1.250000000E+02  0.00000E+00  9.000E+00
      25     1     1     2     0     0  7.382934325E+02 -5.630284413E+02 -1.949641215E+02  9.569295830E+02  1.250000000E+02  0.00000E+00  9.000E+00
      21     1     1     2   512   502 -8.912632371E+01 -5.168428824E+00  1.597898039E+02  1.830382355E+02  2.697398305E-06  0.00000E+00  9.000E+00
#rwgt            2          11   4.4575059495512662E-003           6       71138           0
</event>
<event>
      5   9999  3.19816E-02  8.43138E+01 -1.00000E+00  1.27255E-01
      21    -1     0     0   502   511  0.000000000E+00  0.000000000E+00  2.331436567E+02  2.331436567E+02  0.000000000E+00  0.00000E+00  9.000E+00
      21    -1     0     0   501   502  0.000000000E+00  0.000000000E+00 -9.819911174E+02  9.819911174E+02  0.000000000E+00  0.00000E+00  9.000E+00
      25     1     1     2     0     0 -1.302284525E+02  2.689162324E+02 -1.553610134E+02  3.592178091E+02  1.250000000E+02  0.00000E+00  9.000E+00
      25     1     1     2     0     0  5.951169650E+01 -3.148288071E+02 -6.628337984E+02  7.467479254E+02  1.250000000E+02  0.00000E+00  9.000E+00
      21     1     1     2   501   511  7.071675600E+01  4.591257471E+01  6.934735110E+01  1.091690396E+02  2.336015456E-06  0.00000E+00  9.000E+00
#rwgt            1           1   2.8065565595279025E-002           6       71188           0
</event>
<event>
      5   9999  3.19816E-02  2.37634E+01 -1.00000E+00  1.60419E-01
      21    -1     0     0   502   501  0.000000000E+00  0.000000000E+00  2.007446097E+02  2.007446097E+02  0.000000000E+00  0.00000E+00  9.000E+00
      21    -1     0     0   512   502  0.000000000E+00  0.000000000E+00 -7.883299587E+02  7.883299587E+02  0.000000000E+00  0.00000E+00  9.000E+00
      25     1     1     2     0     0 -1.718382366E+02  5.864384969E+01  1.077249124E+02  2.453510494E+02  1.250000000E+02  0.00000E+00  9.000E+00
      25     1     1     2     0     0  1.782012967E+02 -8.153948834E+01 -6.691956531E+02  7.084152825E+02  1.250000000E+02  0.00000E+00  9.000E+00
      21     1     1     2   512   501 -6.363060134E+00  2.289563865E+01 -2.611460827E+01  3.530823655E+01  4.768371582E-07  0.00000E+00  9.000E+00
#rwgt            1           1   2.8241915305195625E-002           6       71233           0
</event>
<event>
      5   9999  3.19816E-02  9.63229E+01 -1.00000E+00  1.24564E-01
      21    -1     0     0   502   501  0.000000000E+00  0.000000000E+00  6.209286947E+02  6.209286947E+02  0.000000000E+00  0.00000E+00  9.000E+00
       2    -1     0     0   501     0  0.000000000E+00  0.000000000E+00 -3.700378875E+03  3.700378875E+03  0.000000000E+00  0.00000E+00  9.000E+00
      25     1     1     2     0     0 -3.848281628E+02 -3.560989773E+02  4.420654532E+02  6.970983155E+02  1.250000000E+02  0.00000E+00  9.000E+00
      25     1     1     2     0     0  4.062686224E+02  2.621926097E+02 -1.188019191E+03  1.288725633E+03  1.250000000E+02  0.00000E+00  9.000E+00
       2     1     1     2   502     0 -2.144045961E+01  9.390636761E+01 -2.333496442E+03  2.335483621E+03  4.315837288E-05  0.00000E+00  9.000E+00
#rwgt            1           1   1.7094200535585739E-002           6       71419           0
</event>
<event>
      5   9999  3.19816E-02  5.42250E+01 -1.00000E+00  1.37095E-01
      21    -1     0     0   511   501  0.000000000E+00  0.000000000E+00  2.404231471E+02  2.404231471E+02  0.000000000E+00  0.00000E+00  9.000E+00
      21    -1     0     0   501   502  0.000000000E+00  0.000000000E+00 -1.432373194E+03  1.432373194E+03  0.000000000E+00  0.00000E+00  9.000E+00
      25     1     1     2     0     0  6.992964937E+01 -3.536943457E+02 -1.033082083E+03  1.101305332E+03  1.250000000E+02  0.00000E+00  9.000E+00
      25     1     1     2     0     0 -1.230068189E+02  3.647921812E+02 -2.424821165E+02  4.718332224E+02  1.250000000E+02  0.00000E+00  9.000E+00
      21     1     1     2   511   502  5.307716952E+01 -1.109783550E+01  8.361415226E+01  9.965778612E+01  0.000000000E+00  0.00000E+00  9.000E+00
#rwgt            1           1   2.7955708202887185E-002           6       71484           0
</event>
<event>
      5   9999  3.19816E-02  1.00191E+01 -1.00000E+00  1.95662E-01
      21    -1     0     0   502   512  0.000000000E+00  0.000000000E+00  2.512777836E+03  2.512777836E+03  0.000000000E+00  0.00000E+00  9.000E+00
      21    -1     0     0   501   502  0.000000000E+00  0.000000000E+00 -9.368287504E+02  9.368287504E+02  0.000000000E+00  0.00000E+00  9.000E+00
      25     1     1     2     0     0  1.324156419E+03 -5.794686629E+02  1.219432371E+03  1.895208290E+03  1.250000000E+02  0.00000E+00  9.000E+00
      25     1     1     2     0     0 -1.331576001E+03  5.727358020E+02  2.854666842E+02  1.482645329E+03  1.250000000E+02  0.00000E+00  9.000E+00
      21     1     1     2   501   512  7.419581668E+00  6.732860838E+00  7.105003039E+01  7.175296806E+01  1.348699152E-06  0.00000E+00  9.000E+00
#rwgt            1           1   4.0179024807453917E-002           6       71578           0
</event>
<event>
      5   9999  3.19816E-02  7.28493E+01 -1.00000E+00  1.30349E-01
      21    -1     0     0   502   501  0.000000000E+00  0.000000000E+00  1.396121537E+03  1.396121537E+03  0.000000000E+00  0.00000E+00  9.000E+00
      -2    -1     0     0     0   502  0.000000000E+00  0.000000000E+00 -1.123923434E+02  1.123923434E+02  0.000000000E+00  0.00000E+00  9.000E+00
      25     1     1     2     0     0 -2.655067478E+02  9.855806482E+01  6.756996402E+02  7.432378684E+02  1.250000000E+02  0.00000E+00  9.000E+00
      25     1     1     2     0     0  2.176454314E+02 -4.363706941E+01  6.376341099E+02  6.866410894E+02  1.250000000E+02  0.00000E+00  9.000E+00
      -2     1     1     2     0   501  4.786131644E+01 -5.492099540E+01 -2.960455613E+01  7.863492285E+01  1.118282261E-06  0.00000E+00  9.000E+00
#rwgt            1           1   3.0924811333971597E-002           6       71986           0
</event>
<event>
      5   9999  3.19816E-02  2.79906E+01 -1.00000E+00  1.55161E-01
      21    -1     0     0   502   511  0.000000000E+00  0.000000000E+00  1.948307273E+02  1.948307273E+02  0.000000000E+00  0.00000E+00  9.000E+00
      21    -1     0     0   501   502  0.000000000E+00  0.000000000E+00 -3.382011240E+02  3.382011240E+02  0.000000000E+00  0.00000E+00  9.000E+00
      25     1     1     2     0     0  9.650144658E+01  6.982842690E+00 -2.724623816E+02  3.149952995E+02  1.250000000E+02  0.00000E+00  9.000E+00
      25     1     1     2     0     0 -6.851093140E+01 -7.068270744E+00  1.250549314E+02  1.897562754E+02  1.250000000E+02  0.00000E+00  9.000E+00
      21     1     1     2   501   511 -2.799051518E+01  8.542805345E-02  4.037053543E+00  2.828027650E+01  8.107108181E-07  0.00000E+00  9.000E+00
#rwgt            1           1   2.5027426625254773E-002           6       72050           0
</event>
<event>
      5   9999  3.19816E-02  8.51465E+01 -1.00000E+00  1.27052E-01
       1    -1     0     0   502     0  0.000000000E+00  0.000000000E+00  9.088034450E+02  9.088034450E+02  0.000000000E+00  0.00000E+00  9.000E+00
      21    -1     0     0   501   502  0.000000000E+00  0.000000000E+00 -8.959307637E+01  8.959307637E+01  0.000000000E+00  0.00000E+00  9.000E+00
      25     1     1     2     0     0  1.952159457E+01 -6.225299581E+01  1.568916989E+02  2.109420141E+02  1.250000000E+02  0.00000E+00  9.000E+00
      25     1     1     2     0     0 -1.037261252E+02  4.962250235E+01  6.150285023E+01  1.806352744E+02  1.250000000E+02  0.00000E+00  9.000E+00
       1     1     1     2   501     0  8.420453060E+01  1.263049346E+01  6.008158195E+02  6.068192328E+02  0.000000000E+00  0.00000E+00  9.000E+00
#rwgt            1           1   6.1157432158819268E-002           6       72136           0
</event>
<event>
      5   9999  3.19816E-02  1.71919E+02 -1.00000E+00  1.14093E-01
      21    -1     0     0   511   501  0.000000000E+00  0.000000000E+00  7.448973525E+02  7.448973525E+02  0.000000000E+00  0.00000E+00  9.000E+00
      21    -1     0     0   501   502  0.000000000E+00  0.000000000E+00 -3.075654066E+02  3.075654066E+02  0.000000000E+00  0.00000E+00  9.000E+00
      25     1     1     2     0     0  1.963958194E+02 -2.274683216E+02  8.889458393E+01  3.374024336E+02  1.250000000E+02  0.00000E+00  9.000E+00
      25     1     1     2     0     0 -1.004472494E+02  8.481500536E+01 -1.190375833E+02  2.169750706E+02  1.250000000E+02  0.00000E+00  9.000E+00
      21     1     1     2   511   502 -9.594856997E+01  1.426533162E+02  4.674749452E+02  4.980852548E+02  0.000000000E+00  0.00000E+00  9.000E+00
#rwgt            1           1   2.7925572030782123E-002           6       72173           0
</event>
<event>
      5   9999  3.19816E-02  1.99197E+01 -1.00000E+00  1.66513E-01
      21    -1     0     0   502   501  0.000000000E+00  0.000000000E+00  9.496750218E+01  9.496750218E+01  0.000000000E+00  0.00000E+00  9.000E+00
      21    -1     0     0   512   502  0.000000000E+00  0.000000000E+00 -1.674084513E+03  1.674084513E+03  0.000000000E+00  0.00000E+00  9.000E+00
      25     1     1     2     0     0 -1.297065833E+02 -1.495276066E+01 -1.177748168E+03  1.191538136E+03  1.250000000E+02  0.00000E+00  9.000E+00
      25     1     1     2     0     0  1.238261999E+02 -4.079156035E+00 -3.456537207E-01  1.759962692E+02  1.250000000E+02  0.00000E+00  9.000E+00
      21     1     1     2   512   501  5.880383344E+00  1.903191669E+01 -4.010231892E+02  4.015176099E+02  5.394796609E-06  0.00000E+00  9.000E+00
#rwgt            1           1   2.3905938130887081E-002           6       72232           0
</event>
<event>
      5   9999  3.19816E-02  2.93268E+01 -1.00000E+00  1.53728E-01
      21    -1     0     0   502   511  0.000000000E+00  0.000000000E+00  1.552746115E+02  1.552746115E+02  0.000000000E+00  0.00000E+00  9.000E+00
      21    -1     0     0   501   502  0.000000000E+00  0.000000000E+00 -7.904649488E+02  7.904649488E+02  0.000000000E+00  0.00000E+00  9.000E+00
      25     1     1     2     0     0 -1.800115644E+02 -2.010886941E+02 -5.352367144E+02  6.123268463E+02  1.250000000E+02  0.00000E+00  9.000E+00
      25     1     1     2     0     0  1.561935061E+02  1.839783641E+02 -1.208059955E+02  2.974282071E+02  1.250000000E+02  0.00000E+00  9.000E+00
      21     1     1     2   501   511  2.381805831E+01  1.711033006E+01  2.085237270E+01  3.598450700E+01  8.596304120E-07  0.00000E+00  9.000E+00
#rwgt            1           1   2.7988190759479416E-002           6       72348           0
</event>
<event>
      5   9999  3.19816E-02  5.95285E+01 -1.00000E+00  1.34887E-01
      21    -1     0     0   502   512  0.000000000E+00  0.000000000E+00  2.801859284E+02  2.801859284E+02  0.000000000E+00  0.00000E+00  9.000E+00
      21    -1     0     0   501   502  0.000000000E+00  0.000000000E+00 -2.682768695E+03  2.682768695E+03  0.000000000E+00  0.00000E+00  9.000E+00
      25     1     1     2     0     0  8.148710653E+02  1.776343514E+02 -1.230405415E+03  1.491673993E+03  1.250000000E+02  0.00000E+00  9.000E+00
      25     1     1     2     0     0 -7.581947785E+02 -1.594289167E+02 -1.173499384E+03  1.411737477E+03  1.250000000E+02  0.00000E+00  9.000E+00
      21     1     1     2   501   512 -5.667628679E+01 -1.820543474E+01  1.322031782E+00  5.954315331E+01  5.495276724E-07  0.00000E+00  9.000E+00
#rwgt            1           1   2.8181007901466000E-002           6       72456           0
</event>
<event>
      5   9999  3.19816E-02  2.28843E+01 -1.00000E+00  1.61682E-01
      21    -1     0     0   502   511  0.000000000E+00  0.000000000E+00  7.870466638E+01  7.870466638E+01  0.000000000E+00  0.00000E+00  9.000E+00
      21    -1     0     0   501   502  0.000000000E+00  0.000000000E+00 -2.465481199E+03  2.465481199E+03  0.000000000E+00  0.00000E+00  9.000E+00
      25     1     1     2     0     0 -1.791498611E+02  2.950843974E+02 -1.483718206E+03  1.528467922E+03  1.250000000E+02  0.00000E+00  9.000E+00
      25     1     1     2     0     0  1.678411070E+02 -2.751896388E+02 -9.228369162E+02  9.854709273E+02  1.250000000E+02  0.00000E+00  9.000E+00
      21     1     1     2   501   511  1.130875409E+01 -1.989475863E+01  1.977858988E+01  3.024701568E+01  2.261837239E-06  0.00000E+00  9.000E+00
#rwgt            1           1   7.8984141552391238E-002           6       72644           0
</event>
<event>
      5   9999  3.19816E-02  2.06296E+02 -1.00000E+00  1.11160E-01
       2    -1     0     0   502     0  0.000000000E+00  0.000000000E+00  9.169008568E+02  9.169008568E+02  0.000000000E+00  0.00000E+00  9.000E+00
      21    -1     0     0   501   502  0.000000000E+00  0.000000000E+00 -2.495477746E+02  2.495477746E+02  0.000000000E+00  0.00000E+00  9.000E+00
      25     1     1     2     0     0  6.985658128E+01  5.448232525E+01 -1.273066003E+02  1.991989864E+02  1.250000000E+02  0.00000E+00  9.000E+00
      25     1     1     2     0     0 -2.345340482E+02 -1.787375102E+02  3.352615051E+02  4.636578417E+02  1.250000000E+02  0.00000E+00  9.000E+00
       2     1     1     2   501     0  1.646774669E+02  1.242551850E+02  4.593981773E+02  5.035918034E+02  5.394796609E-06  0.00000E+00  9.000E+00
#rwgt            1           1   3.1229080471360502E-002           6       72775           0
</event>
<event>
      5   9999  3.19816E-02  1.14799E+01 -1.00000E+00  1.89074E-01
      21    -1     0     0   511   501  0.000000000E+00  0.000000000E+00  2.237739414E+03  2.237739414E+03  0.000000000E+00  0.00000E+00  9.000E+00
      21    -1     0     0   501   502  0.000000000E+00  0.000000000E+00 -2.901247223E+01  2.901247223E+01  0.000000000E+00  0.00000E+00  9.000E+00
      25     1     1     2     0     0 -6.287735096E+01  1.836016919E+02  1.414600914E+03  1.433312209E+03  1.250000000E+02  0.00000E+00  9.000E+00
      25     1     1     2     0     0  6.918910480E+01 -1.931907519E+02  7.372799815E+02  7.754460458E+02  1.250000000E+02  0.00000E+00  9.000E+00
      21     1     1     2   511   502 -6.311753835E+00  9.589060034E+00  5.684604614E+01  5.799363129E+01  6.743495762E-07  0.00000E+00  9.000E+00
#rwgt            1           1   6.7923392053406265E-002           6       72820           0
</event>
<event>
      5   9999  3.19816E-02  6.26553E+01 -1.00000E+00  1.33706E-01
      21    -1     0     0   502   501  0.000000000E+00  0.000000000E+00  2.160905519E+02  2.160905519E+02  0.000000000E+00  0.00000E+00  9.000E+00
      21    -1     0     0   501   512  0.000000000E+00  0.000000000E+00 -3.532358734E+02  3.532358734E+02  0.000000000E+00  0.00000E+00  9.000E+00
      25     1     1     2     0     0 -5.888747008E+00 -7.194549046E+01  1.075714221E+02  1.800206705E+02  1.250000000E+02  0.00000E+00  9.000E+00
      25     1     1     2     0     0  5.288411009E+01  1.133837019E+02 -4.858152762E+01  1.834059917E+02  1.250000000E+02  0.00000E+00  9.000E+00
      21     1     1     2   502   512 -4.699536308E+01 -4.143821147E+01 -1.961352160E+02  2.058997632E+02  2.697398305E-06  0.00000E+00  9.000E+00
#rwgt            1           1   3.1720361056133524E-002           6       72996           0
</event>
<event>
      5   9999  3.19816E-02  8.83696E+00 -1.00000E+00  2.02176E-01
      21    -1     0     0   502   511  0.000000000E+00  0.000000000E+00  8.952621092E+01  8.952621092E+01  0.000000000E+00  0.00000E+00  9.000E+00
      21    -1     0     0   501   502  0.000000000E+00  0.000000000E+00 -5.434795285E+02  5.434795285E+02  0.000000000E+00  0.00000E+00  9.000E+00
      25     1     1     2     0     0  3.804300738E+01  4.227752310E+00  1.821914927E+01  1.319927335E+02  1.250000000E+02  0.00000E+00  9.000E+00
      25     1     1     2     0     0 -4.534570472E+01 -9.203938884E+00 -4.736556395E+02  4.920524466E+02  1.250000000E+02  0.00000E+00  9.000E+00
      21     1     1     2   501   511  7.302697340E+00  4.976186574E+00  1.483172642E+00  8.960559265E+00  4.214684851E-08  0.00000E+00  9.000E+00
#rwgt            1           1   2.8813210199998961E-002           6       73111           0
</event>
<event>
      5   9999  3.19816E-02  5.01815E+01 -1.00000E+00  1.38986E-01
      21    -1     0     0   502   501  0.000000000E+00  0.000000000E+00  1.076378003E+03  1.076378003E+03  0.000000000E+00  0.00000E+00  9.000E+00
      21    -1     0     0   512   502  0.000000000E+00  0.000000000E+00 -2.372287443E+02  2.372287443E+02  0.000000000E+00  0.00000E+00  9.000E+00
      25     1     1     2     0     0  2.432704110E+02  3.225828223E+02  3.070470330E+02  5.226308933E+02  1.250000000E+02  0.00000E+00  9.000E+00
      25     1     1     2     0     0 -2.465245922E+02 -2.725069004E+02  5.950625472E+02  7.104638065E+02  1.250000000E+02  0.00000E+00  9.000E+00
      21     1     1     2   512   501  3.254181195E+00 -5.007592192E+01 -6.296032172E+01  8.051204731E+01  2.236564522E-06  0.00000E+00  9.000E+00
#rwgt            1           1   2.9910257507858074E-002           6       73306           0
</event>
<event>
      5   9999  3.19816E-02  6.12129E+01 -1.00000E+00  1.34241E-01
      21    -1     0     0   502   501  0.000000000E+00  0.000000000E+00  2.450114647E+03  2.450114647E+03  0.000000000E+00  0.00000E+00  9.000E+00
      -3    -1     0     0     0   502  0.000000000E+00  0.000000000E+00 -1.066199855E+02  1.066199855E+02  0.000000000E+00  0.00000E+00  9.000E+00
      25     1     1     2     0     0  4.451078048E+01 -2.035086796E+02  3.534129804E+02  4.288621305E+02  1.250000000E+02  0.00000E+00  9.000E+00
      25     1     1     2     0     0 -9.559262873E+01  2.372380247E+02  2.033177157E+03  2.053011004E+03  1.250000000E+02  0.00000E+00  9.000E+00
      -3     1     1     2     0   501  5.108184825E+01 -3.372934503E+01 -4.309547539E+01  7.486149835E+01  2.939421655E-06  0.00000E+00  9.000E+00
#rwgt            1           1   7.2922363077125296E-002           6       73435           0
</event>
<event>
      5   9999  3.19816E-02  1.54279E+02 -1.00000E+00  1.15912E-01
       2    -1     0     0   502     0  0.000000000E+00  0.000000000E+00  3.030683394E+03  3.030683394E+03  0.000000000E+00  0.00000E+00  9.000E+00
      21    -1     0     0   501   502  0.000000000E+00  0.000000000E+00 -1.994338116E+03  1.994338116E+03  0.000000000E+00  0.00000E+00  9.000E+00
      25     1     1     2     0     0 -4.305295476E+02 -1.031844852E+03 -5.842391081E+02  1.267682856E+03  1.250000000E+02  0.00000E+00  9.000E+00
      25     1     1     2     0     0  2.762504639E+02  1.031650482E+03 -7.947309025E+02  1.337101059E+03  1.250000000E+02  0.00000E+00  9.000E+00
       2     1     1     2   501     0  1.542790838E+02  1.943698776E-01  2.415315288E+03  2.420237594E+03  0.000000000E+00  0.00000E+00  9.000E+00
#rwgt            1           1   3.2046886995576222E-002           6       73631           0
</event>
<event>
      5   9999  3.19816E-02  2.78085E+01 -1.00000E+00  1.55364E-01
      21    -1     0     0   502   501  0.000000000E+00  0.000000000E+00  5.627720703E+02  5.627720703E+02  0.000000000E+00  0.00000E+00  9.000E+00
      21    -1     0     0   501   511  0.000000000E+00  0.000000000E+00 -3.014712025E+02  3.014712025E+02  0.000000000E+00  0.00000E+00  9.000E+00
      25     1     1     2     0     0  7.393766790E+01  1.153208608E+02 -2.188885232E+02  2.868847595E+02  1.250000000E+02  0.00000E+00  9.000E+00
      25     1     1     2     0     0 -4.682167694E+01 -1.091535851E+02  5.089420586E+02  5.373581614E+02  1.250000000E+02  0.00000E+00  9.000E+00
      21     1     1     2   502   511 -2.711599097E+01 -6.167275773E+00 -2.875266757E+01  4.000035186E+01  0.000000000E+00  0.00000E+00  9.000E+00
#rwgt            1           1   2.4115110992732162E-002           6       73783           0
</event>
<event>
      5   9999  3.19816E-02  5.19329E+01 -1.00000E+00  1.38142E-01
      21    -1     0     0   502   512  0.000000000E+00  0.000000000E+00  1.067006092E+03  1.067006092E+03  0.000000000E+00  0.00000E+00  9.000E+00
      21    -1     0     0   501   502  0.000000000E+00  0.000000000E+00 -1.588154934E+02  1.588154934E+02  0.000000000E+00  0.00000E+00  9.000E+00
      25     1     1     2     0     0 -9.389540474E+01 -5.605743272E+01 -8.475198211E+01  1.864582561E+02  1.250000000E+02  0.00000E+00  9.000E+00
      25     1     1     2     0     0  4.333771904E+01  6.792964759E+01  2.252547374E+02  2.699208988E+02  1.250000000E+02  0.00000E+00  9.000E+00
      21     1     1     2   501   512  5.055768571E+01 -1.187221487E+01  7.676878438E+02  7.694424309E+02  1.868812365E-05  0.00000E+00  9.000E+00
#rwgt            1           1   2.7976613349360052E-002           6       73900           0
</event>
<event>
      5   9999  3.19816E-02  1.74729E+01 -1.00000E+00  1.71360E-01
      21    -1     0     0   511   501  0.000000000E+00  0.000000000E+00  5.024149993E+02  5.024149993E+02  0.000000000E+00  0.00000E+00  9.000E+00
      21    -1     0     0   501   502  0.000000000E+00  0.000000000E+00 -2.057468276E+02  2.057468276E+02  0.000000000E+00  0.00000E+00  9.000E+00
      25     1     1     2     0     0 -1.515040573E+02  2.347956045E+02  1.420160763E+02  3.374552136E+02  1.250000000E+02  0.00000E+00  9.000E+00
      25     1     1     2     0     0  1.677717718E+02 -2.411723026E+02  1.440319286E+02  3.502593945E+02  1.250000000E+02  0.00000E+00  9.000E+00
      21     1     1     2   511   502 -1.626771450E+01  6.376698109E+00  1.062016675E+01  2.044721877E+01  2.064765462E-07  0.00000E+00  9.000E+00
#rwgt            1           1   2.6686937589383074E-002           6       73983           0
</event>
<event>
      5   9999  3.19816E-02  1.05217E+02 -1.00000E+00  1.22843E-01
      21    -1     0     0   502   501  0.000000000E+00  0.000000000E+00  8.631732025E+02  8.631732025E+02  0.000000000E+00  0.00000E+00  9.000E+00
      21    -1     0     0   501   512  0.000000000E+00  0.000000000E+00 -9.183687560E+01  9.183687560E+01  0.000000000E+00  0.00000E+00  9.000E+00
      25     1     1     2     0     0  1.063984179E+02 -7.571515419E+01  2.328852214E+02  2.948116929E+02  1.250000000E+02  0.00000E+00  9.000E+00
      25     1     1     2     0     0 -1.697053491E+02  1.597558103E+02  4.534279994E+02  5.249226372E+02  1.250000000E+02  0.00000E+00  9.000E+00
      21     1     1     2   502   512  6.330693124E+01 -8.404065613E+01  8.502310614E+01  1.352757480E+02  3.015782986E-06  0.00000E+00  9.000E+00
#rwgt            1           1   3.4279188794495360E-002           6       74167           0
</event>
<event>
      5   9999  3.19816E-02  2.44235E+01 -1.00000E+00  1.59514E-01
      21    -1     0     0   502   501  0.000000000E+00  0.000000000E+00  3.589427339E+02  3.589427339E+02  0.000000000E+00  0.00000E+00  9.000E+00
      21    -1     0     0   501   511  0.000000000E+00  0.000000000E+00 -2.056442875E+03  2.056442875E+03  0.000000000E+00  0.00000E+00  9.000E+00
      25     1     1     2     0     0  1.126529299E+02  2.880489441E+02  2.059550001E+02  3.920527246E+02  1.250000000E+02  0.00000E+00  9.000E+00
      25     1     1     2     0     0 -1.008700871E+02 -2.666557018E+02 -3.449858247E+02  4.646722038E+02  1.250000000E+02  0.00000E+00  9.000E+00
      21     1     1     2   502   511 -1.178284287E+01 -2.139324227E+01 -1.558469316E+03  1.558660680E+03  0.000000000E+00  0.00000E+00  9.000E+00
#rwgt            1           1   2.4972447997226813E-002           6       74217           0
</event>
<event>
      5   9999  3.19816E-02  5.54374E+00 -1.00000E+00  2.30942E-01
      21    -1     0     0   512   501  0.000000000E+00  0.000000000E+00  1.435637648E+02  1.435637648E+02  0.000000000E+00  0.00000E+00  9.000E+00
      21    -1     0     0   501   502  0.000000000E+00  0.000000000E+00 -5.941958915E+02  5.941958915E+02  0.000000000E+00  0.00000E+00  9.000E+00
      25     1     1     2     0     0  1.484797905E+02  7.136468126E+01  1.809238538E+01  2.075849231E+02  1.250000000E+02  0.00000E+00  9.000E+00
      25     1     1     2     0     0 -1.498181943E+02 -6.598493207E+01 -4.773667649E+02  5.199072329E+02  1.250000000E+02  0.00000E+00  9.000E+00
      21     1     1     2   512   502  1.338403847E+00 -5.379749192E+00  8.642252837E+00  1.026750020E+01  2.064765462E-07  0.00000E+00  9.000E+00
#rwgt            1           1   3.1200833184561162E-002           6       74378           0
</event>
<event>
      5   9999  3.19816E-02  3.54579E+01 -1.00000E+00  1.48163E-01
      21    -1     0     0   502   501  0.000000000E+00  0.000000000E+00  2.640765706E+02  2.640765706E+02  0.000000000E+00  0.00000E+00  9.000E+00
      21    -1     0     0   511   502  0.000000000E+00  0.000000000E+00 -2.820436549E+02  2.820436549E+02  0.000000000E+00  0.00000E+00  9.000E+00
      25     1     1     2     0     0 -1.436744675E+02 -1.610525864E+02  9.299129585E+01  2.661816472E+02  1.250000000E+02  0.00000E+00  9.000E+00
      25     1     1     2     0     0  1.297062898E+02  1.284618729E+02 -1.002276870E+02  2.428924940E+02  1.250000000E+02  0.00000E+00  9.000E+00
      21     1     1     2   511   501  1.396817767E+01  3.259071344E+01 -1.073069313E+01  3.704608434E+01  1.685873940E-07  0.00000E+00  9.000E+00
#rwgt            1           1   2.5652030291028916E-002           6       74674           0
</event>
<event>
      5   9999  3.19816E-02  1.61784E+02 -1.00000E+00  1.15107E-01
       2    -1     0     0   502     0  0.000000000E+00  0.000000000E+00  1.307713454E+03  1.307713454E+03  0.000000000E+00  0.00000E+00  9.000E+00
      21    -1     0     0   501   502  0.000000000E+00  0.000000000E+00 -7.480773404E+02  7.480773404E+02  0.000000000E+00  0.00000E+00  9.000E+00
      25     1     1     2     0     0 -2.739623538E+01 -3.008071316E+02 -5.345645259E+02  6.265937412E+02  1.250000000E+02  0.00000E+00  9.000E+00
      25     1     1     2     0     0 -9.525277396E+01  4.063127251E+02  1.344732539E+02  4.559289172E+02  1.250000000E+02  0.00000E+00  9.000E+00
       2     1     1     2   501     0  1.226490093E+02 -1.055055934E+02  9.597273857E+02  9.732681360E+02  0.000000000E+00  0.00000E+00  9.000E+00
#rwgt            1           1   3.1591179358805163E-002           6       74804           0
</event>
<event>
      5   9999  3.19816E-02  3.33645E+01 -1.00000E+00  1.49901E-01
      21    -1     0     0   502   501  0.000000000E+00  0.000000000E+00  1.228041439E+03  1.228041439E+03  0.000000000E+00  0.00000E+00  9.000E+00
      21    -1     0     0   511   502  0.000000000E+00  0.000000000E+00 -2.951885597E+02  2.951885597E+02  0.000000000E+00  0.00000E+00  9.000E+00
      25     1     1     2     0     0 -5.194896565E+02  1.454308490E+01  7.636120132E+02  9.320994106E+02  1.250000000E+02  0.00000E+00  9.000E+00
      25     1     1     2     0     0  5.037494141E+02 -4.396132307E+01  1.868751229E+02  5.533926108E+02  1.250000000E+02  0.00000E+00  9.000E+00
      21     1     1     2   511   501  1.574024242E+01  2.941823817E+01 -1.763425630E+01  3.773797774E+01  8.259061849E-07  0.00000E+00  9.000E+00
#rwgt            1           1   2.9906538751186672E-002           6       74882           0
</event>
<event>
      5   9999  3.19816E-02  2.98253E+01 -1.00000E+00  1.53216E-01
      21    -1     0     0   502   501  0.000000000E+00  0.000000000E+00  7.525812649E+02  7.525812649E+02  0.000000000E+00  0.00000E+00  9.000E+00
      21    -1     0     0   501   512  0.000000000E+00  0.000000000E+00 -1.890765257E+02  1.890765257E+02  0.000000000E+00  0.00000E+00  9.000E+00
      25     1     1     2     0     0 -9.033208946E+00 -4.159400674E+01 -1.239514570E+02  1.811094253E+02  1.250000000E+02  0.00000E+00  9.000E+00
      25     1     1     2     0     0  1.706212635E+01  1.286973378E+01  7.112052202E+02  7.224227373E+02  1.250000000E+02  0.00000E+00  9.000E+00
      21     1     1     2   502   512 -8.028917406E+00  2.872427296E+01 -2.374902398E+01  3.812562802E+01  4.768371582E-07  0.00000E+00  9.000E+00
#rwgt            1           1   2.8030607854693551E-002           6       75039           0
</event>
<event>
      5   9999  3.19816E-02  1.32375E+01 -1.00000E+00  1.82655E-01
      21    -1     0     0   502   501  0.000000000E+00  0.000000000E+00  5.589302230E+02  5.589302230E+02  0.000000000E+00  0.00000E+00  9.000E+00
      21    -1     0     0   501   511  0.000000000E+00  0.000000000E+00 -1.755811509E+02  1.755811509E+02  0.000000000E+00  0.00000E+00  9.000E+00
      25     1     1     2     0     0  7.623260162E+01  2.631331522E+02  1.321510205E+02  3.288454919E+02  1.250000000E+02  0.00000E+00  9.000E+00
      25     1     1     2     0     0 -7.416729229E+01 -2.500577920E+02  2.606904989E+02  3.893767107E+02  1.250000000E+02  0.00000E+00  9.000E+00
      21     1     1     2   502   511 -2.065309335E+00 -1.307536014E+01 -9.492447320E+00  1.628917130E+01  1.192092896E-07  0.00000E+00  9.000E+00
#rwgt            1           1   2.7449395967420971E-002           6       75223           0
</event>
<event>
      5   9999  3.19816E-02  2.43510E+01 -1.00000E+00  1.59611E-01
      21    -1     0     0   502   501  0.000000000E+00  0.000000000E+00  7.980090096E+02  7.980090096E+02  0.000000000E+00  0.00000E+00  9.000E+00
      21    -1     0     0   501   512  0.000000000E+00  0.000000000E+00 -1.149138953E+02  1.149138953E+02  0.000000000E+00  0.00000E+00  9.000E+00
      25     1     1     2     0     0 -2.602543444E+02 -7.420124008E+00  3.861210635E+02  4.821844644E+02  1.250000000E+02  0.00000E+00  9.000E+00
      25     1     1     2     0     0  2.516765709E+02  3.021031262E+01  2.910118592E+02  4.056681668E+02  1.250000000E+02  0.00000E+00  9.000E+00
      21     1     1     2   502   512  8.577773560E+00 -2.279018861E+01  5.962191617E+00  2.507027373E+01  2.384185791E-07  0.00000E+00  9.000E+00
#rwgt            1           1   2.4696848323041028E-002           6       75462           0
</event>
<event>
      5   9999  3.19816E-02  2.73525E+02 -1.00000E+00  1.06912E-01
      -4    -1     0     0     0   501  0.000000000E+00  0.000000000E+00  7.729742763E+02  7.729742763E+02  0.000000000E+00  0.00000E+00  9.000E+00
      21    -1     0     0   501   502  0.000000000E+00  0.000000000E+00 -1.602873507E+03  1.602873507E+03  0.000000000E+00  0.00000E+00  9.000E+00
      25     1     1     2     0     0 -7.254390225E+02  7.425504363E-01 -6.776790503E+02  1.000567950E+03  1.250000000E+02  0.00000E+00  9.000E+00
      25     1     1     2     0     0  6.680920311E+02  2.667029918E+02 -5.347500542E+02  9.050193746E+02  1.250000000E+02  0.00000E+00  9.000E+00
      -4     1     1     2     0   502  5.734699135E+01 -2.674455422E+02  3.825298735E+02  4.702604593E+02  1.206313194E-05  0.00000E+00  9.000E+00
#rwgt            1           1   2.5175937120017186E-002           6       75641           0
</event>
<event>
      5   9999  3.19816E-02  5.69476E+01 -1.00000E+00  1.35926E-01
      21    -1     0     0   502   511  0.000000000E+00  0.000000000E+00  1.617510977E+03  1.617510977E+03  0.000000000E+00  0.00000E+00  9.000E+00
      21    -1     0     0   501   502  0.000000000E+00  0.000000000E+00 -1.873949509E+02  1.873949509E+02  0.000000000E+00  0.00000E+00  9.000E+00
      25     1     1     2     0     0  3.642269751E+02 -2.975043942E+02  7.608211109E+02  9.031300664E+02  1.250000000E+02  0.00000E+00  9.000E+00
      25     1     1     2     0     0 -4.037044442E+02  2.564610160E+02  4.280867664E+02  6.539363964E+02  1.250000000E+02  0.00000E+00  9.000E+00
      21     1     1     2   501   511  3.947746908E+01  4.104337826E+01  2.412081485E+02  2.478394649E+02  3.814697266E-06  0.00000E+00  9.000E+00
#rwgt            1           1   3.6182626096250718E-002           6       75729           0
</event>
<event>
      5   9999  3.19816E-02  4.52139E+00 -1.00000E+00  2.51531E-01
      21    -1     0     0   502   501  0.000000000E+00  0.000000000E+00  3.962826101E+01  3.962826101E+01  0.000000000E+00  0.00000E+00  9.000E+00
      21    -1     0     0   501   512  0.000000000E+00  0.000000000E+00 -1.016241219E+03  1.016241219E+03  0.000000000E+00  0.00000E+00  9.000E+00
      25     1     1     2     0     0  1.238190806E+02  1.032545514E+01 -2.583502669E+02  3.127421305E+02  1.250000000E+02  0.00000E+00  9.000E+00
      25     1     1     2     0     0 -1.274501509E+02 -1.301957031E+01 -6.350748931E+02  6.598167700E+02  1.250000000E+02  0.00000E+00  9.000E+00
      21     1     1     2   502   512  3.631070287E+00  2.694115165E+00 -8.318779760E+01  8.331057915E+01  1.651812370E-06  0.00000E+00  9.000E+00
#rwgt            1           1   3.8509463312596547E-002           6       75884           0
</event>
<event>
      5   9999  3.19816E-02  1.02040E+02 -1.00000E+00  1.23435E-01
      21    -1     0     0   502   501  0.000000000E+00  0.000000000E+00  3.622039495E+02  3.622039495E+02  0.000000000E+00  0.00000E+00  9.000E+00
      21    -1     0     0   511   502  0.000000000E+00  0.000000000E+00 -1.214415138E+03  1.214415138E+03  0.000000000E+00  0.00000E+00  9.000E+00
      25     1     1     2     0     0 -4.074211514E+02 -3.186695426E+02 -5.985737352E+02  8.009105995E+02  1.250000000E+02  0.00000E+00  9.000E+00
      25     1     1     2     0     0  4.365370275E+02  4.164669944E+02 -1.585160658E+02  6.362088313E+02  1.250000000E+02  0.00000E+00  9.000E+00
      21     1     1     2   511   501 -2.911587616E+01 -9.779745187E+01 -9.512138741E+01  1.394996566E+02  1.348699152E-06  0.00000E+00  9.000E+00
#rwgt            1           1   2.0857828955119451E-002           6       76200           0
</event>
<event>
      5   9999  3.19816E-02  4.27259E+01 -1.00000E+00  1.43087E-01
      21    -1     0     0   502   512  0.000000000E+00  0.000000000E+00  5.402331180E+02  5.402331180E+02  0.000000000E+00  0.00000E+00  9.000E+00
      21    -1     0     0   501   502  0.000000000E+00  0.000000000E+00 -3.725450233E+02  3.725450233E+02  0.000000000E+00  0.00000E+00  9.000E+00
      25     1     1     2     0     0 -4.755726367E+00 -5.423324272E+01  4.006271323E+02  4.231913996E+02  1.250000000E+02  0.00000E+00  9.000E+00
      25     1     1     2     0     0 -1.593057167E-01  1.179101069E+01 -3.463443348E+02  3.683998528E+02  1.250000000E+02  0.00000E+00  9.000E+00
      21     1     1     2   501   512  4.915032084E+00  4.244223203E+01  1.134052972E+02  1.211868889E+02  1.348699152E-06  0.00000E+00  9.000E+00
#rwgt            1           1   3.2654116328926154E-002           6       76286           0
</event>
<event>
      5   9999  3.19816E-02  5.23734E+01 -1.00000E+00  1.37936E-01
      21    -1     0     0   502   501  0.000000000E+00  0.000000000E+00  3.074924034E+02  3.074924034E+02  0.000000000E+00  0.00000E+00  9.000E+00
      21    -1     0     0   501   511  0.000000000E+00  0.000000000E+00 -1.335122299E+03  1.335122299E+03  0.000000000E+00  0.00000E+00  9.000E+00
      25     1     1     2     0     0 -1.380416022E+02  4.926915726E+02 -1.229907506E+02  5.408809428E+02  1.250000000E+02  0.00000E+00  9.000E+00
      25     1     1     2     0     0  1.300440079E+02 -5.444507183E+02 -7.957971669E+02  9.809465630E+02  1.250000000E+02  0.00000E+00  9.000E+00
      21     1     1     2   502   511  7.997594268E+00  5.175914574E+01 -1.088419783E+02  1.207871969E+02  1.348699152E-06  0.00000E+00  9.000E+00
#rwgt            1           1   2.8199438245107952E-002           6       76400           0
</event>
<event>
      5   9999  3.19816E-02  3.12907E+02 -1.00000E+00  1.05001E-01
      21    -1     0     0   502   501  0.000000000E+00  0.000000000E+00  2.306001604E+02  2.306001604E+02  0.000000000E+00  0.00000E+00  9.000E+00
       1    -1     0     0   501     0  0.000000000E+00  0.000000000E+00 -1.227243363E+03  1.227243363E+03  0.000000000E+00  0.00000E+00  9.000E+00
      25     1     1     2     0     0 -2.828579388E+02 -6.307335951E+01 -1.688934325E+02  3.579620843E+02  1.250000000E+02  0.00000E+00  9.000E+00
      25     1     1     2     0     0 -1.536329483E+01  1.578102785E+02  1.346800870E+01  2.023524205E+02  1.250000000E+02  0.00000E+00  9.000E+00
       1     1     1     2   502     0  2.982212336E+02 -9.473691896E+01 -8.412177783E+02  8.975290182E+02  1.078959322E-05  0.00000E+00  9.000E+00
#rwgt            2          12   8.0743870251997368E-004           6       76524           0
</event>
<event>
      5   9999  3.19816E-02  5.55459E+01 -1.00000E+00  1.36518E-01
      21    -1     0     0   502   501  0.000000000E+00  0.000000000E+00  5.378234722E+02  5.378234722E+02  0.000000000E+00  0.00000E+00  9.000E+00
      21    -1     0     0   511   502  0.000000000E+00  0.000000000E+00 -1.212819588E+03  1.212819588E+03  0.000000000E+00  0.00000E+00  9.000E+00
      25     1     1     2     0     0 -4.912126136E+02 -1.843941631E+02  2.711239369E+02  6.036755985E+02  1.250000000E+02  0.00000E+00  9.000E+00
      25     1     1     2     0     0  5.379207237E+02  2.144558145E+02 -8.532645570E+02  1.038766290E+03  1.250000000E+02  0.00000E+00  9.000E+00
      21     1     1     2   511   501 -4.670811007E+01 -3.006165144E+01 -9.285549565E+01  1.082011715E+02  0.000000000E+00  0.00000E+00  9.000E+00
#rwgt            1           1   3.0157508778588742E-002           6       76543           0
</event>
<event>
      5   9999  3.19816E-02  1.02455E+02 -1.00000E+00  1.23356E-01
      21    -1     0     0   502   501  0.000000000E+00  0.000000000E+00  3.630105634E+02  3.630105634E+02  0.000000000E+00  0.00000E+00  9.000E+00
      21    -1     0     0   501   512  0.000000000E+00  0.000000000E+00 -9.362070906E+02  9.362070906E+02  0.000000000E+00  0.00000E+00  9.000E+00
      25     1     1     2     0     0  1.590535710E+02  3.725562250E+02 -6.078613807E+02  7.410915176E+02  1.250000000E+02  0.00000E+00  9.000E+00
      25     1     1     2     0     0 -7.633711358E+01 -3.120987455E+02  1.732015715E+02  3.858196032E+02  1.250000000E+02  0.00000E+00  9.000E+00
      21     1     1     2   502   512 -8.271645745E+01 -6.045747946E+01 -1.385367179E+02  1.723065332E+02  1.907348633E-06  0.00000E+00  9.000E+00
#rwgt            1           1   2.1363701276033435E-002           6       76659           0
</event>
<event>
      5   9999  3.19816E-02  4.44306E+01 -1.00000E+00  1.42066E-01
      21    -1     0     0   502   501  0.000000000E+00  0.000000000E+00  8.060087481E+02  8.060087481E+02  0.000000000E+00  0.00000E+00  9.000E+00
      21    -1     0     0   511   502  0.000000000E+00  0.000000000E+00 -2.606520355E+02  2.606520355E+02  0.000000000E+00  0.00000E+00  9.000E+00
      25     1     1     2     0     0 -3.697612882E+02  4.096451280E-01  1.453241480E+02  4.164945210E+02  1.250000000E+02  0.00000E+00  9.000E+00
      25     1     1     2     0     0  4.128813697E+02  1.030181179E+01  4.193559935E+02  6.017155491E+02  1.250000000E+02  0.00000E+00  9.000E+00
      21     1     1     2   511   501 -4.312008146E+01 -1.071145692E+01 -1.932342890E+01  4.845071350E+01  9.233911863E-07  0.00000E+00  9.000E+00
#rwgt            1           1   2.8892486000400890E-002           6       76759           0
</event>
<event>
      5   9999  3.19816E-02  9.18508E+01 -1.00000E+00  1.25511E-01
      21    -1     0     0   502   501  0.000000000E+00  0.000000000E+00  8.372164791E+02  8.372164791E+02  0.000000000E+00  0.00000E+00  9.000E+00
       2    -1     0     0   501     0  0.000000000E+00  0.000000000E+00 -1.042116188E+03  1.042116188E+03  0.000000000E+00  0.00000E+00  9.000E+00
      25     1     1     2     0     0  7.604104080E+02  8.967265220E+01  7.161307554E+00  7.758488626E+02  1.250000000E+02  0.00000E+00  9.000E+00
      25     1     1     2     0     0 -8.438863070E+02 -1.279916632E+02  1.050907357E+01  8.627058627E+02  1.250000000E+02  0.00000E+00  9.000E+00
       2     1     1     2   502     0  8.347589893E+01  3.831901102E+01 -2.225700901E+02  2.407779419E+02  3.814697266E-06  0.00000E+00  9.000E+00
#rwgt            1           1   2.7291659965000842E-002           6       76859           0
</event>
<event>
      5   9999  3.19816E-02  4.66224E+01 -1.00000E+00  1.40831E-01
      21    -1     0     0   502   511  0.000000000E+00  0.000000000E+00  4.330846558E+02  4.330846558E+02  0.000000000E+00  0.00000E+00  9.000E+00
      21    -1     0     0   501   502  0.000000000E+00  0.000000000E+00 -1.165059206E+03  1.165059206E+03  0.000000000E+00  0.00000E+00  9.000E+00
      25     1     1     2     0     0 -4.025624090E+02  4.484318584E+02 -3.769129187E+02  7.216896653E+02  1.250000000E+02  0.00000E+00  9.000E+00
      25     1     1     2     0     0  4.365507109E+02 -4.165188492E+02 -4.551352394E+02  7.660532364E+02  1.250000000E+02  0.00000E+00  9.000E+00
      21     1     1     2   501   511 -3.398830187E+01 -3.191300923E+01  1.000736082E+02  1.104009596E+02  2.697398305E-06  0.00000E+00  9.000E+00
#rwgt            1           1   2.9654318836859254E-002           6       76965           0
</event>
<event>
      5   9999  3.19816E-02  1.01141E+02 -1.00000E+00  1.23607E-01
      21    -1     0     0   502   501  0.000000000E+00  0.000000000E+00  1.654576868E+02  1.654576868E+02  0.000000000E+00  0.00000E+00  9.000E+00
       1    -1     0     0   501     0  0.000000000E+00  0.000000000E+00 -7.257779912E+02  7.257779912E+02  0.000000000E+00  0.00000E+00  9.000E+00
      25     1     1     2     0     0  2.342041554E+02  7.815117514E+01 -2.442842766E+02  3.691327679E+02  1.250000000E+02  0.00000E+00  9.000E+00
      25     1     1     2     0     0 -2.130094393E+02 -1.770468375E+02 -1.820896878E+02  3.542601563E+02  1.250000000E+02  0.00000E+00  9.000E+00
       1     1     1     2   502     0 -2.119471612E+01  9.889566239E+01 -1.339463400E+02  1.678427539E+02  2.697398305E-06  0.00000E+00  9.000E+00
#rwgt            1           1   2.6644038135139041E-002           6       77099           0
</event>
<event>
      5   9999  3.19816E-02  2.34541E+02 -1.00000E+00  1.09186E-01
      21    -1     0     0   511   501  0.000000000E+00  0.000000000E+00  3.131956360E+02  3.131956360E+02  0.000000000E+00  0.00000E+00  9.000E+00
      21    -1     0     0   501   502  0.000000000E+00  0.000000000E+00 -5.292745589E+02  5.292745589E+02  0.000000000E+00  0.00000E+00  9.000E+00
      25     1     1     2     0     0 -2.399028983E+02 -7.154883780E+01 -2.955071861E+02  4.069669936E+02  1.250000000E+02  0.00000E+00  9.000E+00
      25     1     1     2     0     0  8.353486406E+01 -1.032615644E+02  8.425943624E+01  2.009121121E+02  1.250000000E+02  0.00000E+00  9.000E+00
      21     1     1     2   511   502  1.563680343E+02  1.748104022E+02 -4.831173062E+00  2.345910891E+02  1.870674470E-06  0.00000E+00  9.000E+00
#rwgt            2          11   3.3622391886335375E-003           6       77179           0
</event>
<event>
      5   9999  3.19816E-02  5.01450E+01 -1.00000E+00  1.39004E-01
      21    -1     0     0   502   501  0.000000000E+00  0.000000000E+00  1.155447787E+03  1.155447787E+03  0.000000000E+00  0.00000E+00  9.000E+00
      21    -1     0     0   512   502  0.000000000E+00  0.000000000E+00 -9.775511498E+01  9.775511498E+01  0.000000000E+00  0.00000E+00  9.000E+00
      25     1     1     2     0     0 -4.280072142E+01  2.479907119E+02  3.257615377E+02  4.302056188E+02  1.250000000E+02  0.00000E+00  9.000E+00
      25     1     1     2     0     0  8.207034825E+01 -2.168070818E+02  7.262499740E+02  7.725314734E+02  1.250000000E+02  0.00000E+00  9.000E+00
      21     1     1     2   512   501 -3.926962684E+01 -3.118363015E+01  5.681160441E+00  5.046580987E+01  4.693274423E-07  0.00000E+00  9.000E+00
#rwgt            1           1   2.6836834272988865E-002           6       77199           0
</event>
<event>
      5   9999  3.19816E-02  3.65843E+01 -1.00000E+00  1.47286E-01
      21    -1     0     0   502   501  0.000000000E+00  0.000000000E+00  4.192349247E+02  4.192349247E+02  0.000000000E+00  0.00000E+00  9.000E+00
      21    -1     0     0   501   511  0.000000000E+00  0.000000000E+00 -3.818881966E+02  3.818881966E+02  0.000000000E+00  0.00000E+00  9.000E+00
      25     1     1     2     0     0  4.160600711E+01 -2.455889140E+02 -2.467496843E+02  3.722302798E+02  1.250000000E+02  0.00000E+00  9.000E+00
      25     1     1     2     0     0 -3.469820881E+01  2.096626481E+02  3.005839832E+02  3.887648681E+02  1.250000000E+02  0.00000E+00  9.000E+00
      21     1     1     2   502   511 -6.907798299E+00  3.592626584E+01 -1.648757077E+01  4.012797335E+01  4.129530925E-07  0.00000E+00  9.000E+00
#rwgt            1           1   2.7383864935791154E-002           6       77299           0
</event>
<event>
      5   9999  3.19816E-02  1.86035E+02 -1.00000E+00  1.12804E-01
      21    -1     0     0   502   501  0.000000000E+00  0.000000000E+00  7.336170273E+02  7.336170273E+02  0.000000000E+00  0.00000E+00  9.000E+00
      21    -1     0     0   501   512  0.000000000E+00  0.000000000E+00 -2.211121194E+02  2.211121194E+02  0.000000000E+00  0.00000E+00  9.000E+00
      25     1     1     2     0     0  1.222504390E+02 -9.062760064E+01  6.560147989E+01  2.075742903E+02  1.250000000E+02  0.00000E+00  9.000E+00
      25     1     1     2     0     0 -2.576913028E+02  2.181616060E+02  4.293005742E+02  5.602885657E+02  1.250000000E+02  0.00000E+00  9.000E+00
      21     1     1     2   502   512  1.354408638E+02 -1.275340054E+02  1.760285373E+01  1.868662906E+02  3.701251673E-06  0.00000E+00  9.000E+00
#rwgt            1           1   2.6725301944603489E-002           6       77412           0
</event>
<event>
      5   9999  3.19816E-02  2.80537E+01 -1.00000E+00  1.55091E-01
      21    -1     0     0   502   511  0.000000000E+00  0.000000000E+00  1.896513726E+03  1.896513726E+03  0.000000000E+00  0.00000E+00  9.000E+00
      21    -1     0     0   501   502  0.000000000E+00  0.000000000E+00 -2.331312905E+02  2.331312905E+02  0.000000000E+00  0.00000E+00  9.000E+00
      25     1     1     2     0     0 -4.581613550E+01  6.256024436E+02  7.767012682E+02  1.006164696E+03  1.250000000E+02  0.00000E+00  9.000E+00
      25     1     1     2     0     0  6.432970049E+01 -6.466799061E+02  8.468668544E+02  1.074775177E+03  1.250000000E+02  0.00000E+00  9.000E+00
      21     1     1     2   501   511 -1.851356499E+01  2.107746248E+01  3.981431306E+01  4.870514386E+01  8.259061849E-07  0.00000E+00  9.000E+00
#rwgt            1           1   3.6973628043575978E-002           6       77452           0
</event>
<event>
      5   9999  3.19816E-02  1.37596E+02 -1.00000E+00  1.17899E-01
      21    -1     0     0   502   501  0.000000000E+00  0.000000000E+00  2.717211208E+02  2.717211208E+02  0.000000000E+00  0.00000E+00  9.000E+00
      21    -1     0     0   501   512  0.000000000E+00  0.000000000E+00 -5.004301391E+02  5.004301391E+02  0.000000000E+00  0.00000E+00  9.000E+00
      25     1     1     2     0     0 -1.643713074E+02  1.329461218E+02  5.645086806E+01  2.520005923E+02  1.250000000E+02  0.00000E+00  9.000E+00
      25     1     1     2     0     0  2.679305204E+01 -1.307092350E+02  2.144516841E+01  1.840860315E+02  1.250000000E+02  0.00000E+00  9.000E+00
      21     1     1     2   502   512  1.375782554E+02 -2.236886823E+00 -3.066050547E+02  3.360646361E+02  3.814697266E-06  0.00000E+00  9.000E+00
#rwgt            2          11   2.8781556376227548E-003           6       77912           0
</event>
<event>
      5   9999  3.19816E-02  7.91388E+01 -1.00000E+00  1.28577E-01
      21    -1     0     0   511   501  0.000000000E+00  0.000000000E+00  1.470426302E+03  1.470426302E+03  0.000000000E+00  0.00000E+00  9.000E+00
      21    -1     0     0   501   502  0.000000000E+00  0.000000000E+00 -1.679754617E+02  1.679754617E+02  0.000000000E+00  0.00000E+00  9.000E+00
      25     1     1     2     0     0  1.841285463E+02  3.575939453E+02  9.630821943E+02  1.051156061E+03  1.250000000E+02  0.00000E+00  9.000E+00
      25     1     1     2     0     0 -1.720718913E+02 -2.793789459E+02  1.496492753E+02  3.816821148E+02  1.250000000E+02  0.00000E+00  9.000E+00
      21     1     1     2   511   502 -1.205665502E+01 -7.821499947E+01  1.897193704E+02  2.055635877E+02  3.814697266E-06  0.00000E+00  9.000E+00
#rwgt            1           1   2.9475523504952448E-002           6       77932           0
</event>
<event>
      5   9999  3.19816E-02  3.55982E+01 -1.00000E+00  1.48052E-01
      21    -1     0     0   502   501  0.000000000E+00  0.000000000E+00  1.935513627E+03  1.935513627E+03  0.000000000E+00  0.00000E+00  9.000E+00
      21    -1     0     0   501   512  0.000000000E+00  0.000000000E+00 -3.170853920E+02  3.170853920E+02  0.000000000E+00  0.00000E+00  9.000E+00
      25     1     1     2     0     0  5.530496848E+02 -4.241918768E+01  1.162040342E+03  1.293687017E+03  1.250000000E+02  0.00000E+00  9.000E+00
      25     1     1     2     0     0 -5.877272623E+02  5.046281048E+01  5.761370453E+02  8.339836479E+02  1.250000000E+02  0.00000E+00  9.000E+00
      21     1     1     2   502   512  3.467757744E+01 -8.043622791E+00 -1.197491522E+02  1.249283542E+02  2.697398305E-06  0.00000E+00  9.000E+00
#rwgt            1           1   2.6056543775856835E-002           6       78016           0
</event>
<event>
      5   9999  3.19816E-02  3.37419E+02 -1.00000E+00  1.03959E-01
      21    -1     0     0   502   501  0.000000000E+00  0.000000000E+00  3.905834393E+02  3.905834393E+02  0.000000000E+00  0.00000E+00  9.000E+00
       2    -1     0     0   501     0  0.000000000E+00  0.000000000E+00 -2.417478139E+03  2.417478139E+03  0.000000000E+00  0.00000E+00  9.000E+00
      25     1     1     2     0     0  5.614768697E+00 -1.570200684E+02 -1.426566752E+02  2.462981009E+02  1.250000000E+02  0.00000E+00  9.000E+00
      25     1     1     2     0     0  9.057142653E+01 -1.663987778E+02  2.861872483E+02  3.652668581E+02  1.250000000E+02  0.00000E+00  9.000E+00
       2     1     1     2   502     0 -9.618619523E+01  3.234188462E+02 -2.170425272E+03  2.196496619E+03  3.051757812E-05  0.00000E+00  9.000E+00
#rwgt            1           1   2.6243008216293075E-002           6       78182           0
</event>
<event>
      5   9999  3.19816E-02  1.38647E+02 -1.00000E+00  1.17764E-01
      21    -1     0     0   502   501  0.000000000E+00  0.000000000E+00  1.027064961E+03  1.027064961E+03  0.000000000E+00  0.00000E+00  9.000E+00
       3    -1     0     0   501     0  0.000000000E+00  0.000000000E+00 -2.449548708E+03  2.449548708E+03  0.000000000E+00  0.00000E+00  9.000E+00
      25     1     1     2     0     0 -4.454058016E+02  2.600579995E+02  5.420351557E+02  7.585799900E+02  1.250000000E+02  0.00000E+00  9.000E+00
      25     1     1     2     0     0  5.735238446E+02 -2.070592630E+02  1.157848888E+02  6.331147441E+02  1.250000000E+02  0.00000E+00  9.000E+00
       3     1     1     2   502     0 -1.281180431E+02 -5.299873652E+01 -2.080303791E+03  2.084918934E+03  3.051757812E-05  0.00000E+00  9.000E+00
#rwgt            1           1   2.9464925887394255E-002           6       78243           0
</event>
<event>
      5   9999  3.19816E-02  1.02888E+02 -1.00000E+00  1.23274E-01
      21    -1     0     0   502   501  0.000000000E+00  0.000000000E+00  1.366859712E+02  1.366859712E+02  0.000000000E+00  0.00000E+00  9.000E+00
      21    -1     0     0   511   502  0.000000000E+00  0.000000000E+00 -4.836231344E+02  4.836231344E+02  0.000000000E+00  0.00000E+00  9.000E+00
      25     1     1     2     0     0 -6.090771719E+01  2.374878878E+01  4.340463334E+01  1.475896920E+02  1.250000000E+02  0.00000E+00  9.000E+00
      25     1     1     2     0     0 -2.518574134E+01 -8.008593094E+01 -3.005502577E+02  3.361599847E+02  1.250000000E+02  0.00000E+00  9.000E+00
      21     1     1     2   511   501  8.609345853E+01  5.633714216E+01 -8.979153891E+01  1.365594290E+02  2.697398305E-06  0.00000E+00  9.000E+00
#rwgt            1           1   2.4916540253399871E-002           6       78318           0
</event>
<event>
      5   9999  3.19816E-02  4.34832E+02 -1.00000E+00  1.00606E-01
       3    -1     0     0   502     0  0.000000000E+00  0.000000000E+00  9.483564418E+02  9.483564418E+02  0.000000000E+00  0.00000E+00  9.000E+00
      21    -1     0     0   501   502  0.000000000E+00  0.000000000E+00 -7.257471977E+02  7.257471977E+02  0.000000000E+00  0.00000E+00  9.000E+00
      25     1     1     2     0     0  2.134061582E+02  3.752836388E+02 -1.088140803E+02  4.624343218E+02  1.250000000E+02  0.00000E+00  9.000E+00
      25     1     1     2     0     0 -6.296810946E+02 -2.496086781E+02  4.351232026E+01  6.901601953E+02  1.250000000E+02  0.00000E+00  9.000E+00
       3     1     1     2   501     0  4.162749365E+02 -1.256749608E+02  2.879110041E+02  5.215091224E+02  5.394796609E-06  0.00000E+00  9.000E+00
#rwgt            2          19   4.5194422632994127E-005           6       78394           0
</event>
<event>
      5   9999  3.19816E-02  1.77881E+02 -1.00000E+00  1.13533E-01
      21    -1     0     0   502   501  0.000000000E+00  0.000000000E+00  1.243390110E+03  1.243390110E+03  0.000000000E+00  0.00000E+00  9.000E+00
      21    -1     0     0   511   502  0.000000000E+00  0.000000000E+00 -3.931412583E+02  3.931412583E+02  0.000000000E+00  0.00000E+00  9.000E+00
      25     1     1     2     0     0  2.017837078E+02  2.995923360E+02  1.089015259E+03  1.154145340E+03  1.250000000E+02  0.00000E+00  9.000E+00
      25     1     1     2     0     0 -1.324854525E+02 -1.357649128E+02 -1.945365714E+02  2.990885893E+02  1.250000000E+02  0.00000E+00  9.000E+00
      21     1     1     2   511   501 -6.929825531E+01 -1.638274232E+02 -4.422983558E+01  1.832974390E+02  1.507891493E-06  0.00000E+00  9.000E+00
#rwgt            2          11   5.6613831792221275E-003           6       78473           0
</event>
<event>
      5   9999  3.19816E-02  3.07804E+01 -1.00000E+00  1.52269E-01
      21    -1     0     0   502   512  0.000000000E+00  0.000000000E+00  7.268421318E+02  7.268421318E+02  0.000000000E+00  0.00000E+00  9.000E+00
      21    -1     0     0   501   502  0.000000000E+00  0.000000000E+00 -1.370242751E+02  1.370242751E+02  0.000000000E+00  0.00000E+00  9.000E+00
      25     1     1     2     0     0  2.133690496E+02  3.214965818E+00  1.993442972E+02  3.176473456E+02  1.250000000E+02  0.00000E+00  9.000E+00
      25     1     1     2     0     0 -1.963321753E+02 -2.885039904E+01  1.013985622E+02  2.555099548E+02  1.250000000E+02  0.00000E+00  9.000E+00
      21     1     1     2   501   512 -1.703687431E+01  2.563543322E+01  2.890749973E+02  2.907091065E+02  3.814697266E-06  0.00000E+00  9.000E+00
#rwgt            1           1   2.6837579245992546E-002           6       78493           0
</event>
<event>
      5   9999  3.19816E-02  4.66721E+01 -1.00000E+00  1.40804E-01
      21    -1     0     0   502   501  0.000000000E+00  0.000000000E+00  8.200808259E+02  8.200808259E+02  0.000000000E+00  0.00000E+00  9.000E+00
      21    -1     0     0   511   502  0.000000000E+00  0.000000000E+00 -3.365417707E+02  3.365417707E+02  0.000000000E+00  0.00000E+00  9.000E+00
      25     1     1     2     0     0  1.121860289E+02  7.006829838E+01  2.583045542E+02  3.159770786E+02  1.250000000E+02  0.00000E+00  9.000E+00
      25     1     1     2     0     0 -1.339354867E+02 -1.113629427E+02  5.093968640E+02  5.526758405E+02  1.250000000E+02  0.00000E+00  9.000E+00
      21     1     1     2   511   501  2.174945780E+01  4.129464433E+01 -2.841623630E+02  2.879696774E+02  3.814697266E-06  0.00000E+00  9.000E+00
#rwgt            1           1   3.2596693406354287E-002           6       78586           0
</event>
<event>
      5   9999  3.19816E-02  2.61040E+01 -1.00000E+00  1.57358E-01
      21    -1     0     0   502   501  0.000000000E+00  0.000000000E+00  3.405763188E+02  3.405763188E+02  0.000000000E+00  0.00000E+00  9.000E+00
      21    -1     0     0   501   512  0.000000000E+00  0.000000000E+00 -2.649224114E+02  2.649224114E+02  0.000000000E+00  0.00000E+00  9.000E+00
      25     1     1     2     0     0  2.791284739E+00 -1.759331835E+02 -1.397195044E+02  2.571124583E+02  1.250000000E+02  0.00000E+00  9.000E+00
      25     1     1     2     0     0 -6.497623099E+00  1.500936774E+02  2.420245866E+02  3.110807477E+02  1.250000000E+02  0.00000E+00  9.000E+00
      21     1     1     2   502   512  3.706338360E+00  2.583950612E+01 -2.665117477E+01  3.730552422E+01  5.840038640E-07  0.00000E+00  9.000E+00
#rwgt            1           1   2.7217413214060675E-002           6       78648           0
</event>
<event>
      5   9999  3.19816E-02  1.52358E+02 -1.00000E+00  1.16126E-01
      21    -1     0     0   502   501  0.000000000E+00  0.000000000E+00  1.548190272E+02  1.548190272E+02  0.000000000E+00  0.00000E+00  9.000E+00
       2    -1     0     0   501     0  0.000000000E+00  0.000000000E+00 -2.988994728E+03  2.988994728E+03  0.000000000E+00  0.00000E+00  9.000E+00
      25     1     1     2     0     0 -4.753774100E+01  1.715539473E+02  2.065832644E+01  2.185002519E+02  1.250000000E+02  0.00000E+00  9.000E+00
      25     1     1     2     0     0  1.490426544E+02 -2.851749675E+02 -8.903092222E+02  9.548895151E+02  1.250000000E+02  0.00000E+00  9.000E+00
       2     1     1     2   502     0 -1.015049134E+02  1.136210203E+02 -1.964524805E+03  1.970423988E+03  3.051757812E-05  0.00000E+00  9.000E+00
#rwgt            1           1   2.6152557694990849E-002           6       78808           0
</event>
<event>
      5   9999  3.19816E-02  2.21112E+02 -1.00000E+00  1.10084E-01
      21    -1     0     0   502   501  0.000000000E+00  0.000000000E+00  1.949088151E+03  1.949088151E+03  0.000000000E+00  0.00000E+00  9.000E+00
      21    -1     0     0   511   502  0.000000000E+00  0.000000000E+00 -7.204687742E+02  7.204687742E+02  0.000000000E+00  0.00000E+00  9.000E+00
      25     1     1     2     0     0  1.679168863E+02  8.892728418E+02  8.303766741E+02  1.234565790E+03  1.250000000E+02  0.00000E+00  9.000E+00
      25     1     1     2     0     0 -3.550591975E+02 -7.715084468E+02  6.668970142E+02  1.087045972E+03  1.250000000E+02  0.00000E+00  9.000E+00
      21     1     1     2   511   501  1.871423112E+02 -1.177643949E+02 -2.686543120E+02  3.479451634E+02  7.629394531E-06  0.00000E+00  9.000E+00
#rwgt            1           1   1.9528411160436642E-002           6       78890           0
</event>
<event>
      5   9999  3.19816E-02  3.12664E+02 -1.00000E+00  1.05012E-01
      21    -1     0     0   502   501  0.000000000E+00  0.000000000E+00  2.842138051E+02  2.842138051E+02  0.000000000E+00  0.00000E+00  9.000E+00
      21    -1     0     0   512   502  0.000000000E+00  0.000000000E+00 -2.161516391E+03  2.161516391E+03  0.000000000E+00  0.00000E+00  9.000E+00
      25     1     1     2     0     0 -2.077726938E+02  3.344635757E+02 -8.762535869E+02  9.687521481E+02  1.250000000E+02  0.00000E+00  9.000E+00
      25     1     1     2     0     0  4.081119514E+02 -9.441635764E+01 -9.441977620E+00  4.372458855E+02  1.250000000E+02  0.00000E+00  9.000E+00
      21     1     1     2   512   501 -2.003392575E+02 -2.400472181E+02 -9.916070211E+02  1.039732162E+03  1.525878906E-05  0.00000E+00  9.000E+00
#rwgt            1           1   2.6577792147532305E-002           6       78975           0
</event>
<event>
      5   9999  3.19816E-02  4.66187E+01 -1.00000E+00  1.40833E-01
      21    -1     0     0   502   501  0.000000000E+00  0.000000000E+00  1.128077612E+03  1.128077612E+03  0.000000000E+00  0.00000E+00  9.000E+00
      21    -1     0     0   511   502  0.000000000E+00  0.000000000E+00 -7.921711311E+02  7.921711311E+02  0.000000000E+00  0.00000E+00  9.000E+00
      25     1     1     2     0     0 -1.789795996E+02 -1.585183711E+02  9.250551075E+02  9.635941692E+02  1.250000000E+02  0.00000E+00  9.000E+00
      25     1     1     2     0     0  1.932343927E+02  1.141324890E+02  9.278474308E+01  2.731295739E+02  1.250000000E+02  0.00000E+00  9.000E+00
      21     1     1     2   511   501 -1.425479303E+01  4.438588205E+01 -6.819333694E+02  6.835250003E+02  1.525878906E-05  0.00000E+00  9.000E+00
#rwgt            1           1   2.8833606927583216E-002           6       79038           0
</event>
<event>
      5   9999  3.19816E-02  2.01643E+01 -1.00000E+00  1.66076E-01
      21    -1     0     0   502   501  0.000000000E+00  0.000000000E+00  1.571699156E+02  1.571699156E+02  0.000000000E+00  0.00000E+00  9.000E+00
      21    -1     0     0   501   512  0.000000000E+00  0.000000000E+00 -2.561833821E+02  2.561833821E+02  0.000000000E+00  0.00000E+00  9.000E+00
      25     1     1     2     0     0 -3.857932182E+01 -8.037780205E+01  6.785244758E+01  1.678627707E+02  1.250000000E+02  0.00000E+00  9.000E+00
      25     1     1     2     0     0  5.853461812E+01  7.748230116E+01 -1.363623515E+02  2.089246262E+02  1.250000000E+02  0.00000E+00  9.000E+00
      21     1     1     2   502   512 -1.995529629E+01  2.895500897E+00 -3.050356259E+01  3.656590087E+01  4.768371582E-07  0.00000E+00  9.000E+00
#rwgt            1           1   3.0444853738991494E-002           6       79148           0
</event>
<event>
      5   9999  3.19816E-02  1.49008E+02 -1.00000E+00  1.16508E-01
       1    -1     0     0   502     0  0.000000000E+00  0.000000000E+00  1.007367115E+03  1.007367115E+03  0.000000000E+00  0.00000E+00  9.000E+00
      21    -1     0     0   501   502  0.000000000E+00  0.000000000E+00 -6.633813066E+01  6.633813066E+01  0.000000000E+00  0.00000E+00  9.000E+00
      25     1     1     2     0     0  6.933221458E+01 -8.781894511E+01  1.615797202E+02  2.329208644E+02  1.250000000E+02  0.00000E+00  9.000E+00
      25     1     1     2     0     0  4.460545036E+01 -8.210508707E+00  5.596976532E+02  5.752769087E+02  1.250000000E+02  0.00000E+00  9.000E+00
       1     1     1     2   501     0 -1.139376649E+02  9.602945382E+01  2.197516111E+02  2.655074727E+02  2.697398305E-06  0.00000E+00  9.000E+00
#rwgt            1           1   3.2059390942872155E-002           6       79282           0
</event>
<event>
      5   9999  3.19816E-02  1.57891E+01 -1.00000E+00  1.75311E-01
      21    -1     0     0   502   501  0.000000000E+00  0.000000000E+00  1.449937711E+02  1.449937711E+02  0.000000000E+00  0.00000E+00  9.000E+00
      21    -1     0     0   501   511  0.000000000E+00  0.000000000E+00 -7.041141089E+02  7.041141089E+02  0.000000000E+00  0.00000E+00  9.000E+00
      25     1     1     2     0     0  2.485531087E+01 -1.843070918E+02  2.078964738E+01  2.250424404E+02  1.250000000E+02  0.00000E+00  9.000E+00
      25     1     1     2     0     0 -2.092735393E+01  1.690143966E+02 -5.031816365E+02  5.457294016E+02  1.250000000E+02  0.00000E+00  9.000E+00
      21     1     1     2   502   511 -3.927956940E+00  1.529269522E+01 -7.672834863E+01  7.833603804E+01  9.536743164E-07  0.00000E+00  9.000E+00
#rwgt            1           1   2.6658169792458105E-002           6       79327           0
</event>
<event>
      5   9999  3.19816E-02  1.25999E+02 -1.00000E+00  1.19476E-01
      21    -1     0     0   502   501  0.000000000E+00  0.000000000E+00  3.306775935E+02  3.306775935E+02  0.000000000E+00  0.00000E+00  9.000E+00
      21    -1     0     0   501   512  0.000000000E+00  0.000000000E+00 -2.049996775E+03  2.049996775E+03  0.000000000E+00  0.00000E+00  9.000E+00
      25     1     1     2     0     0  4.748765476E+01 -3.928303713E+01  2.948984498E+02  3.261722399E+02  1.250000000E+02  0.00000E+00  9.000E+00
      25     1     1     2     0     0  7.799835101E+01  5.063826372E+01 -1.794268142E+03  1.801019473E+03  1.250000000E+02  0.00000E+00  9.000E+00
      21     1     1     2   502   512 -1.254860058E+02 -1.135522659E+01 -2.199494887E+02  2.534826550E+02  3.814697266E-06  0.00000E+00  9.000E+00
#rwgt            1           1   2.6013519629693133E-002           6       79544           0
</event>
<event>
      5   9999  3.19816E-02  5.38628E+02 -1.00000E+00  9.79424E-02
      21    -1     0     0   502   501  0.000000000E+00  0.000000000E+00  1.460785833E+03  1.460785833E+03  0.000000000E+00  0.00000E+00  9.000E+00
       2    -1     0     0   501     0  0.000000000E+00  0.000000000E+00 -4.575126953E+02  4.575126953E+02  0.000000000E+00  0.00000E+00  9.000E+00
      25     1     1     2     0     0  2.178028103E+02 -2.652469717E+02  2.885056904E+02  4.654616564E+02  1.250000000E+02  0.00000E+00  9.000E+00
      25     1     1     2     0     0 -6.636882477E+02 -3.692296264E+01  5.955027704E+02  9.011625519E+02  1.250000000E+02  0.00000E+00  9.000E+00
       2     1     1     2   502     0  4.458854374E+02  3.021699343E+02  1.192646772E+02  5.516743204E+02  9.910874219E-06  0.00000E+00  9.000E+00
#rwgt            2          13   2.3514582621598400E-004           6       79628           0
</event>
<event>
      5   9999  3.19816E-02  1.83694E+01 -1.00000E+00  1.69475E-01
       2    -1     0     0   502     0  0.000000000E+00  0.000000000E+00  1.520671228E+03  1.520671228E+03  0.000000000E+00  0.00000E+00  9.000E+00
      21    -1     0     0   501   502  0.000000000E+00  0.000000000E+00 -1.887909072E+02  1.887909072E+02  0.000000000E+00  0.00000E+00  9.000E+00
      25     1     1     2     0     0  9.865655221E+01  1.409845483E+02 -7.770779637E+01  2.264359948E+02  1.250000000E+02  0.00000E+00  9.000E+00
      25     1     1     2     0     0 -1.169521170E+02 -1.426298974E+02  3.020732240E+02  3.753589188E+02  1.250000000E+02  0.00000E+00  9.000E+00
       2     1     1     2   501     0  1.829556477E+01  1.645349092E+00  1.107514893E+03  1.107667222E+03  0.000000000E+00  0.00000E+00  9.000E+00
#rwgt            1           1   3.0261521721296605E-002           6       79647           0
</event>
<event>
      5   9999  3.19816E-02  2.63074E+01 -1.00000E+00  1.57110E-01
      21    -1     0     0   502   501  0.000000000E+00  0.000000000E+00  1.834630736E+02  1.834630736E+02  0.000000000E+00  0.00000E+00  9.000E+00
      21    -1     0     0   501   511  0.000000000E+00  0.000000000E+00 -2.940388262E+02  2.940388262E+02  0.000000000E+00  0.00000E+00  9.000E+00
      25     1     1     2     0     0  7.204371101E+01  5.316816977E+01 -1.918901411E+02  2.458942391E+02  1.250000000E+02  0.00000E+00  9.000E+00
      25     1     1     2     0     0 -6.247738536E+01 -2.866171693E+01  1.189156935E+02  1.857171501E+02  1.250000000E+02  0.00000E+00  9.000E+00
      21     1     1     2   502   511 -9.566325652E+00 -2.450645284E+01 -3.760130494E+01  4.589051046E+01  6.743495762E-07  0.00000E+00  9.000E+00
#rwgt            1           1   3.1825668415721417E-002           6       79842           0
</event>
<event>
      5   9999  3.19816E-02  2.40150E+02 -1.00000E+00  1.08830E-01
      21    -1     0     0   502   501  0.000000000E+00  0.000000000E+00  4.833383047E+02  4.833383047E+02  0.000000000E+00  0.00000E+00  9.000E+00
      21    -1     0     0   512   502  0.000000000E+00  0.000000000E+00 -3.528760693E+02  3.528760693E+02  0.000000000E+00  0.00000E+00  9.000E+00
      25     1     1     2     0     0  1.699303665E+02  1.551835516E+01  3.167951687E+02  3.809216818E+02  1.250000000E+02  0.00000E+00  9.000E+00
      25     1     1     2     0     0  6.940867022E+01 -3.523255246E+01 -1.538365654E+02  2.129544203E+02  1.250000000E+02  0.00000E+00  9.000E+00
      21     1     1     2   512   501 -2.393390367E+02  1.971419730E+01 -3.249636785E+01  2.423382718E+02  4.498472754E-06  0.00000E+00  9.000E+00
#rwgt            1           1   2.6895935031842216E-002           6       79976           0
</event>
<event>
      5   9999  3.19816E-02  2.51297E+02 -1.00000E+00  1.08153E-01
      21    -1     0     0   502   501  0.000000000E+00  0.000000000E+00  2.734528576E+02  2.734528576E+02  0.000000000E+00  0.00000E+00  9.000E+00
      21    -1     0     0   511   502  0.000000000E+00  0.000000000E+00 -5.887170111E+02  5.887170111E+02  0.000000000E+00  0.00000E+00  9.000E+00
      25     1     1     2     0     0 -9.744666410E+01 -4.981356813E+01 -1.559468778E+02  2.278632762E+02  1.250000000E+02  0.00000E+00  9.000E+00
      25     1     1     2     0     0  1.452326877E+02  2.965257149E+02 -3.749101064E+01  3.550360673E+02  1.250000000E+02  0.00000E+00  9.000E+00
      21     1     1     2   511   501 -4.778602363E+01 -2.467121468E+02 -1.218262650E+02  2.792705253E+02  2.336015456E-06  0.00000E+00  9.000E+00
#rwgt            1           1   2.7748149991815886E-002           6       80024           0
</event>
<event>
      5   9999  3.19816E-02  2.38295E+01 -1.00000E+00  1.60327E-01
      21    -1     0     0   502   501  0.000000000E+00  0.000000000E+00  6.246237425E+02  6.246237425E+02  0.000000000E+00  0.00000E+00  9.000E+00
      21    -1     0     0   512   502  0.000000000E+00  0.000000000E+00 -3.349369835E+02  3.349369835E+02  0.000000000E+00  0.00000E+00  9.000E+00
      25     1     1     2     0     0 -1.903332127E+02  2.725315089E+01 -2.259831238E+02  3.219671386E+02  1.250000000E+02  0.00000E+00  9.000E+00
      25     1     1     2     0     0  1.666713134E+02 -2.443147364E+01  5.540433057E+02  5.924231665E+02  1.250000000E+02  0.00000E+00  9.000E+00
      21     1     1     2   512   501  2.366189936E+01 -2.821677244E+00 -3.837342287E+01  4.517042093E+01  4.768371582E-07  0.00000E+00  9.000E+00
#rwgt            1           1   2.4159765905437315E-002           6       80060           0
</event>
<event>
      5   9999  3.19816E-02  3.62070E+01 -1.00000E+00  1.47576E-01
      21    -1     0     0   502   511  0.000000000E+00  0.000000000E+00  3.016270909E+02  3.016270909E+02  0.000000000E+00  0.00000E+00  9.000E+00
      21    -1     0     0   501   502  0.000000000E+00  0.000000000E+00 -4.665858006E+02  4.665858006E+02  0.000000000E+00  0.00000E+00  9.000E+00
      25     1     1     2     0     0  2.606036851E+01  5.537575830E+01  2.037104782E+02  2.467155778E+02  1.250000000E+02  0.00000E+00  9.000E+00
      25     1     1     2     0     0 -3.141905258E+01 -9.118402942E+01 -4.256492546E+02  4.539867532E+02  1.250000000E+02  0.00000E+00  9.000E+00
      21     1     1     2   501   511  5.358684074E+00  3.580827113E+01  5.698006668E+01  6.751056047E+01  1.348699152E-06  0.00000E+00  9.000E+00
#rwgt            1           1   2.7670547594995865E-002           6       80216           0
</event>
<event>
      5   9999  3.19816E-02  1.19061E+01 -1.00000E+00  1.87388E-01
      21    -1     0     0   502   501  0.000000000E+00  0.000000000E+00  7.432493969E+02  7.432493969E+02  0.000000000E+00  0.00000E+00  9.000E+00
      21    -1     0     0   512   502  0.000000000E+00  0.000000000E+00 -3.694452187E+02  3.694452187E+02  0.000000000E+00  0.00000E+00  9.000E+00
      25     1     1     2     0     0 -1.213970354E+02 -4.119203754E+02 -9.001097222E+01  4.562264909E+02  1.250000000E+02  0.00000E+00  9.000E+00
      25     1     1     2     0     0  1.329973441E+02  4.092395265E+02  4.633100179E+02  6.445513605E+02  1.250000000E+02  0.00000E+00  9.000E+00
      21     1     1     2   512   501 -1.160030869E+01  2.680848902E+00  5.051325202E-01  1.191676430E+01  2.668722673E-07  0.00000E+00  9.000E+00
#rwgt            1           1   2.2601535987953707E-002           6       80317           0
</event>
<event>
      5   9999  3.19816E-02  2.49211E+02 -1.00000E+00  1.08277E-01
      21    -1     0     0   511   501  0.000000000E+00  0.000000000E+00  9.842290182E+02  9.842290182E+02  0.000000000E+00  0.00000E+00  9.000E+00
      21    -1     0     0   501   502  0.000000000E+00  0.000000000E+00 -2.981152655E+02  2.981152655E+02  0.000000000E+00  0.00000E+00  9.000E+00
      25     1     1     2     0     0 -2.853818156E+00  3.206868467E+02  4.291776061E+02  5.501514478E+02  1.250000000E+02  0.00000E+00  9.000E+00
      25     1     1     2     0     0 -2.456800860E+02 -3.023306608E+02  5.780096181E+01  4.131930352E+02  1.250000000E+02  0.00000E+00  9.000E+00
      21     1     1     2   511   502  2.485339041E+02 -1.835618582E+01  1.991351848E+02  3.189998008E+02  3.814697266E-06  0.00000E+00  9.000E+00
#rwgt            2          11   3.6670209759059468E-003           6       80595           0
</event>
<event>
      5   9999  3.19816E-02  6.63993E+01 -1.00000E+00  1.32393E-01
      21    -1     0     0   502   501  0.000000000E+00  0.000000000E+00  5.427564207E+02  5.427564207E+02  0.000000000E+00  0.00000E+00  9.000E+00
      21    -1     0     0   501   512  0.000000000E+00  0.000000000E+00 -2.573602216E+02  2.573602216E+02  0.000000000E+00  0.00000E+00  9.000E+00
      25     1     1     2     0     0 -2.303641140E+02 -6.012570763E+00 -1.996671253E+01  2.629209874E+02  1.250000000E+02  0.00000E+00  9.000E+00
      25     1     1     2     0     0  1.655246693E+02 -8.295263240E+00  3.826326351E+02  4.353159324E+02  1.250000000E+02  0.00000E+00  9.000E+00
      21     1     1     2   502   512  6.483944469E+01  1.430783400E+01 -7.726972344E+01  1.018797225E+02  1.348699152E-06  0.00000E+00  9.000E+00
#rwgt            1           1   2.8588425017526908E-002           6       80615           0
</event>
<event>
      5   9999  3.19816E-02  3.13206E+01 -1.00000E+00  1.51752E-01
      21    -1     0     0   502   501  0.000000000E+00  0.000000000E+00  3.008206260E+02  3.008206260E+02  0.000000000E+00  0.00000E+00  9.000E+00
      21    -1     0     0   501   511  0.000000000E+00  0.000000000E+00 -1.969938766E+02  1.969938766E+02  0.000000000E+00  0.00000E+00  9.000E+00
      25     1     1     2     0     0 -1.364778946E+02 -1.707494023E+01  1.980287983E+02  2.715845619E+02  1.250000000E+02  0.00000E+00  9.000E+00
      25     1     1     2     0     0  1.078465056E+02  2.977228939E+01 -5.605877971E+01  1.768752237E+02  1.250000000E+02  0.00000E+00  9.000E+00
      21     1     1     2   502   511  2.863138896E+01 -1.269734916E+01 -3.814326921E+01  4.935471705E+01  4.768371582E-07  0.00000E+00  9.000E+00
#rwgt            1           1   3.0386083739445891E-002           6       80733           0
</event>
<event>
      5   9999  3.19816E-02  1.23196E+02 -1.00000E+00  1.19886E-01
       2    -1     0     0   502     0  0.000000000E+00  0.000000000E+00  2.017796065E+03  2.017796065E+03  0.000000000E+00  0.00000E+00  9.000E+00
      21    -1     0     0   501   502  0.000000000E+00  0.000000000E+00 -5.049653464E+01  5.049653464E+01  0.000000000E+00  0.00000E+00  9.000E+00
      25     1     1     2     0     0 -3.285843111E+01  9.363222978E+01  4.671202689E+02  4.936324711E+02  1.250000000E+02  0.00000E+00  9.000E+00
      25     1     1     2     0     0 -8.924708712E+01 -7.727536108E+01  1.806457106E+02  2.493880445E+02  1.250000000E+02  0.00000E+00  9.000E+00
       2     1     1     2   501     0  1.221055182E+02 -1.635686870E+01  1.319533551E+03  1.325272084E+03  2.642899792E-05  0.00000E+00  9.000E+00
#rwgt            1           1   2.4397810238722450E-002           6       80809           0
</event>
<event>
      5   9999  3.19816E-02  4.11422E+01 -1.00000E+00  1.44086E-01
      21    -1     0     0   502   501  0.000000000E+00  0.000000000E+00  1.663893912E+02  1.663893912E+02  0.000000000E+00  0.00000E+00  9.000E+00
       1    -1     0     0   501     0  0.000000000E+00  0.000000000E+00 -3.314795315E+03  3.314795315E+03  0.000000000E+00  0.00000E+00  9.000E+00
      25     1     1     2     0     0  1.275615699E+02 -1.223792149E+02 -7.226067829E+01  2.282437994E+02  1.250000000E+02  0.00000E+00  9.000E+00
      25     1     1     2     0     0 -1.453142442E+02  8.526419842E+01 -3.640685032E+01  2.129240988E+02  1.250000000E+02  0.00000E+00  9.000E+00
       1     1     1     2   502     0  1.775267430E+01  3.711501647E+01 -3.039738395E+03  3.040016808E+03  4.315837288E-05  0.00000E+00  9.000E+00
#rwgt            1           1   2.7987201617541788E-002           6       80872           0
</event>
<event>
      5   9999  3.19816E-02  1.98010E+01 -1.00000E+00  1.66728E-01
      21    -1     0     0   502   501  0.000000000E+00  0.000000000E+00  4.894134365E+02  4.894134365E+02  0.000000000E+00  0.00000E+00  9.000E+00
      21    -1     0     0   511   502  0.000000000E+00  0.000000000E+00 -9.976695004E+02  9.976695004E+02  0.000000000E+00  0.00000E+00  9.000E+00
      25     1     1     2     0     0 -4.224209470E+01  4.993143755E+01  4.705994779E+02  4.912905572E+02  1.250000000E+02  0.00000E+00  9.000E+00
      25     1     1     2     0     0  6.066039290E+01 -5.720096919E+01 -6.857279934E+02  7.019968056E+02  1.250000000E+02  0.00000E+00  9.000E+00
      21     1     1     2   511   501 -1.841829821E+01  7.269531638E+00 -2.931275484E+02  2.937955742E+02  5.394796609E-06  0.00000E+00  9.000E+00
#rwgt            1           1   2.7308904657310971E-002           6       80933           0
</event>
<event>
      5   9999  3.19816E-02  9.25601E+00 -1.00000E+00  1.99720E-01
      21    -1     0     0   502   501  0.000000000E+00  0.000000000E+00  9.509390929E+01  9.509390929E+01  0.000000000E+00  0.00000E+00  9.000E+00
      21    -1     0     0   501   512  0.000000000E+00  0.000000000E+00 -2.741102645E+03  2.741102645E+03  0.000000000E+00  0.00000E+00  9.000E+00
      25     1     1     2     0     0 -3.788505162E+00 -3.409094269E+02 -2.255676481E+03  2.284717701E+03  1.250000000E+02  0.00000E+00  9.000E+00
      25     1     1     2     0     0 -5.108718014E+00  3.434614996E+02 -3.364432783E+02  4.968007450E+02  1.250000000E+02  0.00000E+00  9.000E+00
      21     1     1     2   502   512  8.897223177E+00 -2.552072705E+00 -5.388897670E+01  5.467810773E+01  6.743495762E-07  0.00000E+00  9.000E+00
#rwgt            1           1   7.0197419379489534E-002           6       81128           0
</event>
<event>
      5   9999  3.19816E-02  2.11682E+02 -1.00000E+00  1.10758E-01
      21    -1     0     0   502   501  0.000000000E+00  0.000000000E+00  7.851118616E+02  7.851118616E+02  0.000000000E+00  0.00000E+00  9.000E+00
       1    -1     0     0   501     0  0.000000000E+00  0.000000000E+00 -3.050428611E+03  3.050428611E+03  0.000000000E+00  0.00000E+00  9.000E+00
      25     1     1     2     0     0  4.029833590E+02 -3.787908222E+02 -1.157638067E+03  1.289041880E+03  1.250000000E+02  0.00000E+00  9.000E+00
      25     1     1     2     0     0 -1.943686935E+02  3.428859594E+02  6.531275426E+02  7.730139436E+02  1.250000000E+02  0.00000E+00  9.000E+00
       1     1     1     2   502     0 -2.086146655E+02  3.590486280E+01 -1.760806225E+03  1.773484649E+03  3.051757812E-05  0.00000E+00  9.000E+00
#rwgt            1           1   3.5854643406948127E-002           6       81384           0
</event>
<event>
      5   9999  3.19816E-02  2.60639E+02 -1.00000E+00  1.07615E-01
       2    -1     0     0   502     0  0.000000000E+00  0.000000000E+00  1.277889971E+03  1.277889971E+03  0.000000000E+00  0.00000E+00  9.000E+00
      21    -1     0     0   501   502  0.000000000E+00  0.000000000E+00 -6.702631342E+02  6.702631342E+02  0.000000000E+00  0.00000E+00  9.000E+00
      25     1     1     2     0     0 -5.642977365E+01  2.376902036E+02 -2.095250311E+02  3.452632197E+02  1.250000000E+02  0.00000E+00  9.000E+00
      25     1     1     2     0     0  2.102280664E+02 -2.726554350E+01 -3.383352696E+02  4.183718495E+02  1.250000000E+02  0.00000E+00  9.000E+00
       2     1     1     2   501     0 -1.537982928E+02 -2.104246601E+02  1.155487137E+03  1.184518036E+03  1.525878906E-05  0.00000E+00  9.000E+00
#rwgt            1           1   2.6414640638902077E-002           6       81455           0
</event>
<event>
      5   9999  3.19816E-02  2.58775E+01 -1.00000E+00  1.57637E-01
      21    -1     0     0   511   501  0.000000000E+00  0.000000000E+00  2.343724179E+02  2.343724179E+02  0.000000000E+00  0.00000E+00  9.000E+00
      21    -1     0     0   501   502  0.000000000E+00  0.000000000E+00 -8.094916008E+02  8.094916008E+02  0.000000000E+00  0.00000E+00  9.000E+00
      25     1     1     2     0     0  9.849782857E+01 -1.239543961E+02 -7.276414832E+02  7.550851890E+02  1.250000000E+02  0.00000E+00  9.000E+00
      25     1     1     2     0     0 -1.093954733E+02  1.004833902E+02  7.683350023E+01  2.087885726E+02  1.250000000E+02  0.00000E+00  9.000E+00
      21     1     1     2   511   502  1.089764469E+01  2.347100590E+01  7.568880011E+01  7.999025716E+01  9.536743164E-07  0.00000E+00  9.000E+00
#rwgt            1           1   2.8399570887067956E-002           6       81496           0
</event>
<event>
      5   9999  3.19816E-02  2.44511E+02 -1.00000E+00  1.08561E-01
      21    -1     0     0   502   512  0.000000000E+00  0.000000000E+00  1.032210724E+03  1.032210724E+03  0.000000000E+00  0.00000E+00  9.000E+00
      21    -1     0     0   501   502  0.000000000E+00  0.000000000E+00 -4.173565695E+02  4.173565695E+02  0.000000000E+00  0.00000E+00  9.000E+00
      25     1     1     2     0     0  8.113032245E+01 -5.884181919E+02  6.729097601E+01  6.107136590E+02  1.250000000E+02  0.00000E+00  9.000E+00
      25     1     1     2     0     0 -9.692736768E+01  3.444182383E+02  4.098435353E+02  5.582253675E+02  1.250000000E+02  0.00000E+00  9.000E+00
      21     1     1     2   501   512  1.579704523E+01  2.439999536E+02  1.377196427E+02  2.806282666E+02  3.814697266E-06  0.00000E+00  9.000E+00
#rwgt            1           1   3.2191567820904009E-002           6       81700           0
</event>
<event>
      5   9999  3.19816E-02  3.61414E+02 -1.00000E+00  1.03029E-01
      21    -1     0     0   502   501  0.000000000E+00  0.000000000E+00  3.975521728E+02  3.975521728E+02  0.000000000E+00  0.00000E+00  9.000E+00
      21    -1     0     0   501   511  0.000000000E+00  0.000000000E+00 -2.012672431E+03  2.012672431E+03  0.000000000E+00  0.00000E+00  9.000E+00
      25     1     1     2     0     0  2.236115140E+02  1.472580933E+02 -7.174033830E+01  3.040702737E+02  1.250000000E+02  0.00000E+00  9.000E+00
      25     1     1     2     0     0 -5.791006329E+02 -2.124313559E+02 -1.239839354E+02  6.414683470E+02  1.250000000E+02  0.00000E+00  9.000E+00
      21     1     1     2   502   511  3.554891189E+02  6.517326260E+01 -1.419395985E+03  1.464685983E+03  2.157918644E-05  0.00000E+00  9.000E+00
#rwgt            1           1   2.7070342334673307E-002           6       81738           0
</event>
<event>
      5   9999  3.19816E-02  3.21682E+01 -1.00000E+00  1.50964E-01
      21    -1     0     0   502   501  0.000000000E+00  0.000000000E+00  1.046871007E+03  1.046871007E+03  0.000000000E+00  0.00000E+00  9.000E+00
      21    -1     0     0   512   502  0.000000000E+00  0.000000000E+00 -1.381173638E+02  1.381173638E+02  0.000000000E+00  0.00000E+00  9.000E+00
      25     1     1     2     0     0  1.789305293E+02 -2.473702281E+01  7.703192819E+02  8.010273720E+02  1.250000000E+02  0.00000E+00  9.000E+00
      25     1     1     2     0     0 -2.093947506E+02  3.506786355E+01  1.981239718E+02  3.161550645E+02  1.250000000E+02  0.00000E+00  9.000E+00
      21     1     1     2   512   501  3.046422124E+01 -1.033084074E+01 -5.968961079E+01  6.780593398E+01  1.907348633E-06  0.00000E+00  9.000E+00
#rwgt            1           1   3.0058904466545751E-002           6       81780           0
</event>
<event>
      5   9999  3.19816E-02  7.09903E+01 -1.00000E+00  1.30912E-01
      21    -1     0     0   502   501  0.000000000E+00  0.000000000E+00  1.048002314E+03  1.048002314E+03  0.000000000E+00  0.00000E+00  9.000E+00
       2    -1     0     0   501     0  0.000000000E+00  0.000000000E+00 -1.424905796E+03  1.424905796E+03  0.000000000E+00  0.00000E+00  9.000E+00
      25     1     1     2     0     0 -6.484763480E+02  4.173151021E+02  6.705898202E+02  1.029557757E+03  1.250000000E+02  0.00000E+00  9.000E+00
      25     1     1     2     0     0  6.475821685E+02 -4.882997821E+02 -6.704516819E+02  1.059683821E+03  1.250000000E+02  0.00000E+00  9.000E+00
       2     1     1     2   502     0  8.941794987E-01  7.098467997E+01 -3.770416208E+02  3.836665325E+02  7.629394531E-06  0.00000E+00  9.000E+00
#rwgt            1           1   2.9555179565956432E-002           6       81950           0
</event>
<event>
      5   9999  3.19816E-02  7.51853E+01 -1.00000E+00  1.29668E-01
      21    -1     0     0   502   511  0.000000000E+00  0.000000000E+00  1.486155262E+03  1.486155262E+03  0.000000000E+00  0.00000E+00  9.000E+00
      21    -1     0     0   501   502  0.000000000E+00  0.000000000E+00 -1.915251818E+02  1.915251818E+02  0.000000000E+00  0.00000E+00  9.000E+00
      25     1     1     2     0     0  6.487104021E+01  8.059627859E+01  1.212099110E+03  1.222911798E+03  1.250000000E+02  0.00000E+00  9.000E+00
      25     1     1     2     0     0 -7.350945870E+01 -1.552837103E+02 -1.162885618E+02  2.422079702E+02  1.250000000E+02  0.00000E+00  9.000E+00
      21     1     1     2   501   511  8.638418495E+00  7.468743171E+01  1.988195320E+02  2.125606761E+02  4.672030912E-06  0.00000E+00  9.000E+00
#rwgt            1           1   2.1548623439536133E-002           6       82118           0
</event>
<event>
      5   9999  3.19816E-02  5.97146E+01 -1.00000E+00  1.34814E-01
      21    -1     0     0   502   501  0.000000000E+00  0.000000000E+00  2.642456192E+02  2.642456192E+02  0.000000000E+00  0.00000E+00  9.000E+00
      21    -1     0     0   512   502  0.000000000E+00  0.000000000E+00 -3.089412324E+03  3.089412324E+03  0.000000000E+00  0.00000E+00  9.000E+00
      25     1     1     2     0     0 -1.861216322E+02 -6.225912918E+02 -1.094503225E+03  1.278993154E+03  1.250000000E+02  0.00000E+00  9.000E+00
      25     1     1     2     0     0  1.799771822E+02  6.819889013E+02 -5.779577936E+02  9.204134173E+02  1.250000000E+02  0.00000E+00  9.000E+00
      21     1     1     2   512   501  6.144450024E+00 -5.939760950E+01 -1.152705686E+03  1.154251372E+03  1.525878906E-05  0.00000E+00  9.000E+00
#rwgt            1           1   3.2285132971185994E-002           6       82221           0
</event>
<event>
      5   9999  3.19816E-02  4.72436E+01 -1.00000E+00  1.40495E-01
      21    -1     0     0   502   501  0.000000000E+00  0.000000000E+00  4.869564186E+02  4.869564186E+02  0.000000000E+00  0.00000E+00  9.000E+00
      21    -1     0     0   511   502  0.000000000E+00  0.000000000E+00 -1.017665548E+03  1.017665548E+03  0.000000000E+00  0.00000E+00  9.000E+00
      25     1     1     2     0     0  4.199408601E+02 -4.267230029E+02  4.988186404E+01  6.136416279E+02  1.250000000E+02  0.00000E+00  9.000E+00
      25     1     1     2     0     0 -3.969390846E+02  4.679888650E+02 -5.572383211E+02  8.382802402E+02  1.250000000E+02  0.00000E+00  9.000E+00
      21     1     1     2   511   501 -2.300177547E+01 -4.126586210E+01 -2.335267191E+01  5.270009806E+01  8.259061849E-07  0.00000E+00  9.000E+00
#rwgt            1           1   2.3212199894814736E-002           6       82373           0
</event>
<event>
      5   9999  3.19816E-02  1.04690E+02 -1.00000E+00  1.22939E-01
      21    -1     0     0   502   501  0.000000000E+00  0.000000000E+00  7.336998065E+02  7.336998065E+02  0.000000000E+00  0.00000E+00  9.000E+00
      21    -1     0     0   501   512  0.000000000E+00  0.000000000E+00 -2.584495258E+03  2.584495258E+03  0.000000000E+00  0.00000E+00  9.000E+00
      25     1     1     2     0     0  8.549045455E+02  8.717678329E+01  3.065496578E+02  9.209013335E+02  1.250000000E+02  0.00000E+00  9.000E+00
      25     1     1     2     0     0 -9.100134396E+02 -1.761885411E+02 -2.005261538E+03  2.212660322E+03  1.250000000E+02  0.00000E+00  9.000E+00
      21     1     1     2   502   512  5.510889417E+01  8.901175781E+01 -1.520835708E+02  1.846334091E+02  3.303624740E-06  0.00000E+00  9.000E+00
#rwgt            1           1   5.0985671003142885E-002           6       82546           0
</event>
<event>
      5   9999  3.19816E-02  1.81991E+01 -1.00000E+00  1.69823E-01
      21    -1     0     0   502   501  0.000000000E+00  0.000000000E+00  3.268789127E+02  3.268789127E+02  0.000000000E+00  0.00000E+00  9.000E+00
      21    -1     0     0   501   511  0.000000000E+00  0.000000000E+00 -8.035598440E+02  8.035598440E+02  0.000000000E+00  0.00000E+00  9.000E+00
      25     1     1     2     0     0 -4.257719531E+02 -4.020032318E+01  7.151921355E+00  4.456163955E+02  1.250000000E+02  0.00000E+00  9.000E+00
      25     1     1     2     0     0  4.296557663E+02  2.242042610E+01 -4.051148474E+02  6.040279734E+02  1.250000000E+02  0.00000E+00  9.000E+00
      21     1     1     2   502   511 -3.883813242E+00  1.777989709E+01 -7.871800529E+01  8.079438782E+01  1.348699152E-06  0.00000E+00  9.000E+00
#rwgt            1           1   2.7866876511315117E-002           6       82617           0
</event>
<event>
      5   9999  3.19816E-02  1.41499E+01 -1.00000E+00  1.79804E-01
      21    -1     0     0   512   501  0.000000000E+00  0.000000000E+00  3.410017002E+02  3.410017002E+02  0.000000000E+00  0.00000E+00  9.000E+00
      21    -1     0     0   501   502  0.000000000E+00  0.000000000E+00 -2.625040583E+02  2.625040583E+02  0.000000000E+00  0.00000E+00  9.000E+00
      25     1     1     2     0     0  2.393155870E+02  9.112945077E+01 -3.309726006E+01  2.868744596E+02  1.250000000E+02  0.00000E+00  9.000E+00
      25     1     1     2     0     0 -2.406072705E+02 -7.703858604E+01  1.091728535E+02  3.022755602E+02  1.250000000E+02  0.00000E+00  9.000E+00
      21     1     1     2   512   502  1.291683499E+00 -1.409086473E+01  2.422048410E+00  1.435573870E+01  1.931411236E-07  0.00000E+00  9.000E+00
#rwgt            1           1   2.9110342369487452E-002           6       82818           0
</event>
<event>
      5   9999  3.19816E-02  2.31156E+01 -1.00000E+00  1.61343E-01
      21    -1     0     0   502   501  0.000000000E+00  0.000000000E+00  6.424722026E+01  6.424722026E+01  0.000000000E+00  0.00000E+00  9.000E+00
       2    -1     0     0   501     0  0.000000000E+00  0.000000000E+00 -1.319220529E+03  1.319220529E+03  0.000000000E+00  0.00000E+00  9.000E+00
      25     1     1     2     0     0 -1.771939334E+02  1.341544038E+02 -2.977382670E+02  3.920053185E+02  1.250000000E+02  0.00000E+00  9.000E+00
      25     1     1     2     0     0  1.590820262E+02 -1.197916567E+02 -8.676125708E+02  8.989069502E+02  1.250000000E+02  0.00000E+00  9.000E+00
       2     1     1     2   502     0  1.811190718E+01 -1.436274706E+01 -8.962247062E+01  9.255548025E+01  1.907348633E-06  0.00000E+00  9.000E+00
#rwgt            1           1   2.7747307327917373E-002           6       83008           0
</event>
<event>
      5   9999  3.19816E-02  1.28583E+02 -1.00000E+00  1.19108E-01
      21    -1     0     0   502   501  0.000000000E+00  0.000000000E+00  3.905086690E+02  3.905086690E+02  0.000000000E+00  0.00000E+00  9.000E+00
      21    -1     0     0   501   511  0.000000000E+00  0.000000000E+00 -2.599098731E+02  2.599098731E+02  0.000000000E+00  0.00000E+00  9.000E+00
      25     1     1     2     0     0 -1.995205325E+01  1.244034696E+01  1.144389838E+01  1.277059492E+02  1.250000000E+02  0.00000E+00  9.000E+00
      25     1     1     2     0     0 -1.083794249E+02 -2.048065131E+01  2.744383049E+02  3.211026939E+02  1.250000000E+02  0.00000E+00  9.000E+00
      21     1     1     2   502   511  1.283314782E+02  8.040304353E+00 -1.552834074E+02  2.016098990E+02  1.907348633E-06  0.00000E+00  9.000E+00
#rwgt            1           1   2.1744564145163819E-002           6       83192           0
</event>
<event>
      5   9999  3.19816E-02  2.82742E+01 -1.00000E+00  1.54849E-01
      21    -1     0     0   502   501  0.000000000E+00  0.000000000E+00  1.303680174E+02  1.303680174E+02  0.000000000E+00  0.00000E+00  9.000E+00
       2    -1     0     0   501     0  0.000000000E+00  0.000000000E+00 -2.096394000E+03  2.096394000E+03  0.000000000E+00  0.00000E+00  9.000E+00
      25     1     1     2     0     0 -9.843487834E+00 -2.037276522E+02 -2.667048521E+02  3.582713059E+02  1.250000000E+02  0.00000E+00  9.000E+00
      25     1     1     2     0     0 -1.546767003E+01  2.163281762E+02 -1.010194904E+02  2.699390043E+02  1.250000000E+02  0.00000E+00  9.000E+00
       2     1     1     2   502     0  2.531115786E+01 -1.260052398E+01 -1.598301640E+03  1.598551707E+03  3.051757812E-05  0.00000E+00  9.000E+00
#rwgt            1           1   2.7710502942635318E-002           6       83232           0
</event>
<event>
      5   9999  3.19816E-02  2.56161E+02 -1.00000E+00  1.07870E-01
      21    -1     0     0   502   501  0.000000000E+00  0.000000000E+00  9.955805212E+01  9.955805212E+01  0.000000000E+00  0.00000E+00  9.000E+00
      21    -1     0     0   501   511  0.000000000E+00  0.000000000E+00 -1.313104136E+03  1.313104136E+03  0.000000000E+00  0.00000E+00  9.000E+00
      25     1     1     2     0     0  1.339664869E+01  2.227608519E+02 -1.936261066E+02  3.208082550E+02  1.250000000E+02  0.00000E+00  9.000E+00
      25     1     1     2     0     0 -3.361549343E+01  3.260081263E+01 -3.371902195E+02  3.626500496E+02  1.250000000E+02  0.00000E+00  9.000E+00
      21     1     1     2   502   511  2.021884474E+01 -2.553616646E+02 -6.827297578E+02  7.292038834E+02  7.629394531E-06  0.00000E+00  9.000E+00
#rwgt            1           1   2.5757501607490539E-002           6       83346           0
</event>
<event>
      5   9999  3.19816E-02  1.13970E+02 -1.00000E+00  1.21326E-01
      21    -1     0     0   502   501  0.000000000E+00  0.000000000E+00  2.446438311E+02  2.446438311E+02  0.000000000E+00  0.00000E+00  9.000E+00
      21    -1     0     0   512   502  0.000000000E+00  0.000000000E+00 -5.576567898E+02  5.576567898E+02  0.000000000E+00  0.00000E+00  9.000E+00
      25     1     1     2     0     0 -1.377114164E+02  4.963029278E+00  7.495865983E+01  2.005813215E+02  1.250000000E+02  0.00000E+00  9.000E+00
      25     1     1     2     0     0  1.738667567E+02  1.031201905E+02 -4.709404745E+01  2.422937723E+02  1.250000000E+02  0.00000E+00  9.000E+00
      21     1     1     2   512   501 -3.615534026E+01 -1.080832198E+02 -3.408775711E+02  3.594255271E+02  0.000000000E+00  0.00000E+00  9.000E+00
#rwgt            1           1   2.5780729267383670E-002           6       83393           0
</event>
<event>
      5   9999  3.19816E-02  1.03066E+02 -1.00000E+00  1.23241E-01
      21    -1     0     0   511   501  0.000000000E+00  0.000000000E+00  1.670108903E+02  1.670108903E+02  0.000000000E+00  0.00000E+00  9.000E+00
      21    -1     0     0   501   502  0.000000000E+00  0.000000000E+00 -1.049784506E+03  1.049784506E+03  0.000000000E+00  0.00000E+00  9.000E+00
      25     1     1     2     0     0 -1.022867820E+02  6.610987429E+01 -4.441446141E+02  4.772028285E+02  1.250000000E+02  0.00000E+00  9.000E+00
      25     1     1     2     0     0  4.524159327E+01  1.972986344E+01 -5.625685650E+02  5.783981843E+02  1.250000000E+02  0.00000E+00  9.000E+00
      21     1     1     2   511   502  5.704518875E+01 -8.583973773E+01  1.239395630E+02  1.611943839E+02  2.336015456E-06  0.00000E+00  9.000E+00
#rwgt            1           1   5.8487327252425524E-002           6       83449           0
</event>
<event>
      5   9999  3.19816E-02  3.89290E+01 -1.00000E+00  1.45575E-01
      21    -1     0     0   512   501  0.000000000E+00  0.000000000E+00  5.773128618E+02  5.773128618E+02  0.000000000E+00  0.00000E+00  9.000E+00
      21    -1     0     0   501   502  0.000000000E+00  0.000000000E+00 -2.756728271E+02  2.756728271E+02  0.000000000E+00  0.00000E+00  9.000E+00
      25     1     1     2     0     0 -2.928047727E+02 -1.733781708E+02  9.982904058E+01  3.760125827E+02  1.250000000E+02  0.00000E+00  9.000E+00
      25     1     1     2     0     0  3.081836726E+02  2.091406650E+02  1.777120669E+02  4.311885580E+02  1.250000000E+02  0.00000E+00  9.000E+00
      21     1     1     2   512   502 -1.537889995E+01 -3.576249422E+01  2.409892733E+01  4.578454821E+01  0.000000000E+00  0.00000E+00  9.000E+00
#rwgt            1           1   2.1501470431526216E-002           6       83485           0
</event>
<event>
      5   9999  3.19816E-02  5.07089E+01 -1.00000E+00  1.38728E-01
      21    -1     0     0   502   511  0.000000000E+00  0.000000000E+00  1.387494945E+02  1.387494945E+02  0.000000000E+00  0.00000E+00  9.000E+00
      21    -1     0     0   501   502  0.000000000E+00  0.000000000E+00 -5.803323394E+02  5.803323394E+02  0.000000000E+00  0.00000E+00  9.000E+00
      25     1     1     2     0     0  1.695411984E+02 -1.061137585E+01 -8.037258382E+01  2.257023958E+02  1.250000000E+02  0.00000E+00  9.000E+00
      25     1     1     2     0     0 -2.080543808E+02 -2.237546119E+01 -3.688364676E+02  4.421002448E+02  1.250000000E+02  0.00000E+00  9.000E+00
      21     1     1     2   501   511  3.851318236E+01  3.298683704E+01  7.626206519E+00  5.127919324E+01  9.310543151E-07  0.00000E+00  9.000E+00
#rwgt            1           1   2.8231021575708642E-002           6       83594           0
</event>
<event>
      5   9999  3.19816E-02  9.24066E+01 -1.00000E+00  1.25390E-01
      21    -1     0     0   512   501  0.000000000E+00  0.000000000E+00  6.359369328E+02  6.359369328E+02  0.000000000E+00  0.00000E+00  9.000E+00
      21    -1     0     0   501   502  0.000000000E+00  0.000000000E+00 -1.411419199E+02  1.411419199E+02  0.000000000E+00  0.00000E+00  9.000E+00
      25     1     1     2     0     0  8.906501286E+01  1.246741643E+02  3.239760990E+02  3.795546555E+02  1.250000000E+02  0.00000E+00  9.000E+00
      25     1     1     2     0     0 -3.181673594E+01 -1.972111121E+02  4.258443196E+01  2.394639039E+02  1.250000000E+02  0.00000E+00  9.000E+00
      21     1     1     2   512   502 -5.724827691E+01  7.253694776E+01  1.282344819E+02  1.580602934E+02  1.907348633E-06  0.00000E+00  9.000E+00
#rwgt            1           1   2.6504737758745504E-002           6       83675           0
</event>
<event>
      5   9999  3.19816E-02  7.51375E+01 -1.00000E+00  1.29682E-01
      21    -1     0     0   502   501  0.000000000E+00  0.000000000E+00  7.366314353E+02  7.366314353E+02  0.000000000E+00  0.00000E+00  9.000E+00
      21    -1     0     0   501   511  0.000000000E+00  0.000000000E+00 -4.337041974E+02  4.337041974E+02  0.000000000E+00  0.00000E+00  9.000E+00
      25     1     1     2     0     0 -3.718767873E+02 -1.957176496E+02 -1.740851615E+02  4.717291455E+02  1.250000000E+02  0.00000E+00  9.000E+00
      25     1     1     2     0     0  3.039383553E+02  2.278114148E+02  4.783280075E+02  6.234574943E+02  1.250000000E+02  0.00000E+00  9.000E+00
      21     1     1     2   502   511  6.793843202E+01 -3.209376520E+01 -1.315608086E+00  7.514899291E+01  1.086661497E-06  0.00000E+00  9.000E+00
#rwgt            1           1   3.1996849265987629E-002           6       83747           0
</event>
<event>
      5   9999  3.19816E-02  1.28740E+01 -1.00000E+00  1.83874E-01
      21    -1     0     0   502   512  0.000000000E+00  0.000000000E+00  5.284011587E+02  5.284011587E+02  0.000000000E+00  0.00000E+00  9.000E+00
      21    -1     0     0   501   502  0.000000000E+00  0.000000000E+00 -8.607327387E+02  8.607327387E+02  0.000000000E+00  0.00000E+00  9.000E+00
      25     1     1     2     0     0  4.295269105E+01 -3.451386672E+02  4.084476321E+02  5.508358208E+02  1.250000000E+02  0.00000E+00  9.000E+00
      25     1     1     2     0     0 -5.318367778E+01  3.373242198E+02 -7.409998179E+02  8.254222331E+02  1.250000000E+02  0.00000E+00  9.000E+00
      21     1     1     2   501   512  1.023098673E+01  7.814447400E+00  2.206057293E-01  1.287584345E+01  1.316034923E-07  0.00000E+00  9.000E+00
#rwgt            1           1   3.3463984063586215E-002           6       83820           0
</event>
<event>
      5   9999  3.19816E-02  5.10845E+01 -1.00000E+00  1.38546E-01
      21    -1     0     0   511   501  0.000000000E+00  0.000000000E+00  1.451066257E+02  1.451066257E+02  0.000000000E+00  0.00000E+00  9.000E+00
      21    -1     0     0   501   502  0.000000000E+00  0.000000000E+00 -1.410777852E+03  1.410777852E+03  0.000000000E+00  0.00000E+00  9.000E+00
      25     1     1     2     0     0  1.646011315E+02 -3.044822339E+02 -9.026973926E+02  9.748284700E+02  1.250000000E+02  0.00000E+00  9.000E+00
      25     1     1     2     0     0 -2.155363888E+02  3.083842006E+02 -3.487633182E+02  5.280318193E+02  1.250000000E+02  0.00000E+00  9.000E+00
      21     1     1     2   511   502  5.093525728E+01 -3.901966662E+00 -1.421051496E+01  5.302418800E+01  2.384185791E-07  0.00000E+00  9.000E+00
#rwgt            1           1   3.0772487160186525E-002           6       84072           0
</event>
<event>
      5   9999  3.19816E-02  2.90609E+01 -1.00000E+00  1.54005E-01
      21    -1     0     0   502   501  0.000000000E+00  0.000000000E+00  1.065318569E+03  1.065318569E+03  0.000000000E+00  0.00000E+00  9.000E+00
      21    -1     0     0   512   502  0.000000000E+00  0.000000000E+00 -8.614930095E+02  8.614930095E+02  0.000000000E+00  0.00000E+00  9.000E+00
      25     1     1     2     0     0 -2.665070881E+01  8.938102981E+02 -1.846906395E+02  9.215979284E+02  1.250000000E+02  0.00000E+00  9.000E+00
      25     1     1     2     0     0  5.449191468E+01 -8.854795260E+02  3.875211340E+02  9.761357431E+02  1.250000000E+02  0.00000E+00  9.000E+00
      21     1     1     2   512   501 -2.784120587E+01 -8.330772163E+00  9.950647423E-01  2.907790678E+01  3.932608134E-07  0.00000E+00  9.000E+00
#rwgt            1           1   2.8608333584880068E-002           6       84180           0
</event>
<event>
      5   9999  3.19816E-02  1.43598E+02 -1.00000E+00  1.17149E-01
      21    -1     0     0   502   501  0.000000000E+00  0.000000000E+00  1.118852593E+03  1.118852593E+03  0.000000000E+00  0.00000E+00  9.000E+00
      21    -1     0     0   501   511  0.000000000E+00  0.000000000E+00 -1.544225492E+03  1.544225492E+03  0.000000000E+00  0.00000E+00  9.000E+00
      25     1     1     2     0     0  2.043103545E+02  3.089585991E+02  2.034535993E+02  4.407000158E+02  1.250000000E+02  0.00000E+00  9.000E+00
      25     1     1     2     0     0 -3.418977722E+02 -3.500696336E+02  7.125254854E+02  8.733615531E+02  1.250000000E+02  0.00000E+00  9.000E+00
      21     1     1     2   502   511  1.375874177E+02  4.111103451E+01 -1.341351984E+03  1.349016516E+03  2.642899792E-05  0.00000E+00  9.000E+00
#rwgt            2          11   1.0707492885908561E-002           6       84336           0
</event>
<event>
      5   9999  3.19816E-02  7.61037E+01 -1.00000E+00  1.29408E-01
      21    -1     0     0   502   512  0.000000000E+00  0.000000000E+00  5.844920739E+01  5.844920739E+01  0.000000000E+00  0.00000E+00  9.000E+00
      21    -1     0     0   501   502  0.000000000E+00  0.000000000E+00 -8.676217340E+02  8.676217340E+02  0.000000000E+00  0.00000E+00  9.000E+00
      25     1     1     2     0     0  3.796897858E-01 -6.914189943E+01 -5.877248707E+02  6.048357381E+02  1.250000000E+02  0.00000E+00  9.000E+00
      25     1     1     2     0     0  7.445364008E+01  5.529479467E+01 -1.620951501E+02  2.247236003E+02  1.250000000E+02  0.00000E+00  9.000E+00
      21     1     1     2   501   512 -7.483332987E+01  1.384710476E+01 -5.935250575E+01  9.651160297E+01  1.907348633E-06  0.00000E+00  9.000E+00
#rwgt            1           1   2.5299640042440889E-002           6       84371           0
</event>
<event>
      5   9999  3.19816E-02  7.41959E+01 -1.00000E+00  1.29953E-01
      21    -1     0     0   502   501  0.000000000E+00  0.000000000E+00  1.539202444E+02  1.539202444E+02  0.000000000E+00  0.00000E+00  9.000E+00
      21    -1     0     0   501   511  0.000000000E+00  0.000000000E+00 -1.371707615E+03  1.371707615E+03  0.000000000E+00  0.00000E+00  9.000E+00
      25     1     1     2     0     0  8.669010118E+00  2.659107030E+02 -6.190222781E+02  6.852716501E+02  1.250000000E+02  0.00000E+00  9.000E+00
      25     1     1     2     0     0  4.766303919E+01 -2.176227178E+02 -1.932297153E+01  2.561831178E+02  1.250000000E+02  0.00000E+00  9.000E+00
      21     1     1     2   502   511 -5.633204931E+01 -4.828798526E+01 -5.794421208E+02  5.841730914E+02  7.629394531E-06  0.00000E+00  9.000E+00
#rwgt            1           1   2.8351950728817216E-002           6       84479           0
</event>
<event>
      5   9999  3.19816E-02  3.00932E+01 -1.00000E+00  1.52946E-01
      21    -1     0     0   502   512  0.000000000E+00  0.000000000E+00  6.557635555E+02  6.557635555E+02  0.000000000E+00  0.00000E+00  9.000E+00
      21    -1     0     0   501   502  0.000000000E+00  0.000000000E+00 -9.224485929E+02  9.224485929E+02  0.000000000E+00  0.00000E+00  9.000E+00
      25     1     1     2     0     0 -4.054060709E+02 -1.896652175E+02  4.441004440E+02  6.427885978E+02  1.250000000E+02  0.00000E+00  9.000E+00
      25     1     1     2     0     0  3.894302653E+02  1.641628187E+02 -7.595334108E+02  8.781351632E+02  1.250000000E+02  0.00000E+00  9.000E+00
      21     1     1     2   501   512  1.597580558E+01  2.550239882E+01  4.874792949E+01  5.728838747E+01  9.536743164E-07  0.00000E+00  9.000E+00
#rwgt            1           1   1.9070627522503662E-002           6       84562           0
</event>
<event>
      5   9999  3.19816E-02  1.51837E+01 -1.00000E+00  1.76887E-01
      21    -1     0     0   502   511  0.000000000E+00  0.000000000E+00  4.150985596E+02  4.150985596E+02  0.000000000E+00  0.00000E+00  9.000E+00
      21    -1     0     0   501   502  0.000000000E+00  0.000000000E+00 -5.481573186E+02  5.481573186E+02  0.000000000E+00  0.00000E+00  9.000E+00
      25     1     1     2     0     0 -2.675996675E+02 -2.979988766E+02  9.041345809E+01  4.291998438E+02  1.250000000E+02  0.00000E+00  9.000E+00
      25     1     1     2     0     0  2.816408467E+02  2.922205013E+02 -2.576117459E+02  4.966922584E+02  1.250000000E+02  0.00000E+00  9.000E+00
      21     1     1     2   501   511 -1.404117922E+01  5.778375292E+00  3.413952883E+01  3.736377609E+01  6.743495762E-07  0.00000E+00  9.000E+00
#rwgt            1           1   2.8408767215189638E-002           6       84723           0
</event>
<event>
      5   9999  3.19816E-02  3.38821E+01 -1.00000E+00  1.49458E-01
      21    -1     0     0   502   512  0.000000000E+00  0.000000000E+00  1.217456867E+03  1.217456867E+03  0.000000000E+00  0.00000E+00  9.000E+00
      21    -1     0     0   501   502  0.000000000E+00  0.000000000E+00 -6.093089178E+02  6.093089178E+02  0.000000000E+00  0.00000E+00  9.000E+00
      25     1     1     2     0     0 -1.119419955E+02  1.332876471E+02 -1.441672245E+02  2.582746520E+02  1.250000000E+02  0.00000E+00  9.000E+00
      25     1     1     2     0     0  1.121842080E+02 -1.671688421E+02 -3.734098685E+02  4.422563150E+02  1.250000000E+02  0.00000E+00  9.000E+00
      21     1     1     2   501   512 -2.422124462E-01  3.388119498E+01  1.125725043E+03  1.126234818E+03  1.525878906E-05  0.00000E+00  9.000E+00
#rwgt            1           1   2.5981893374313871E-002           6       84987           0
</event>
<event>
      5   9999  3.19816E-02  3.22731E+01 -1.00000E+00  1.50869E-01
      21    -1     0     0   502   511  0.000000000E+00  0.000000000E+00  5.611049862E+02  5.611049862E+02  0.000000000E+00  0.00000E+00  9.000E+00
      21    -1     0     0   501   502  0.000000000E+00  0.000000000E+00 -7.645297828E+02  7.645297828E+02  0.000000000E+00  0.00000E+00  9.000E+00
      25     1     1     2     0     0  1.054447426E+02 -9.925442540E+01 -4.219883246E+02  4.633240559E+02  1.250000000E+02  0.00000E+00  9.000E+00
      25     1     1     2     0     0 -1.318906580E+02  1.177522334E+02 -2.848820953E+02  3.578317235E+02  1.250000000E+02  0.00000E+00  9.000E+00
      21     1     1     2   501   511  2.644591536E+01 -1.849780797E+01  5.034456233E+02  5.044789896E+02  0.000000000E+00  0.00000E+00  9.000E+00
#rwgt            1           1   3.3961250074814986E-002           6       85078           0
</event>
<event>
      5   9999  3.19816E-02  1.97256E+01 -1.00000E+00  1.66866E-01
      21    -1     0     0   502   501  0.000000000E+00  0.000000000E+00  2.862169721E+02  2.862169721E+02  0.000000000E+00  0.00000E+00  9.000E+00
       2    -1     0     0   501     0  0.000000000E+00  0.000000000E+00 -3.703822440E+02  3.703822440E+02  0.000000000E+00  0.00000E+00  9.000E+00
      25     1     1     2     0     0 -2.193967017E+02  1.097293072E+02  6.481106691E+01  2.828443175E+02  1.250000000E+02  0.00000E+00  9.000E+00
      25     1     1     2     0     0  2.135120090E+02 -9.090198339E+01 -4.435234100E+01  2.672876329E+02  1.250000000E+02  0.00000E+00  9.000E+00
       2     1     1     2   502     0  5.884692700E+00 -1.882732383E+01 -1.046239978E+02  1.064672656E+02  0.000000000E+00  0.00000E+00  9.000E+00
#rwgt            1           1   2.9556811566961147E-002           6       85210           0
</event>
<event>
      5   9999  3.19816E-02  1.02488E+02 -1.00000E+00  1.23350E-01
       3    -1     0     0   502     0  0.000000000E+00  0.000000000E+00  5.545853168E+02  5.545853168E+02  0.000000000E+00  0.00000E+00  9.000E+00
      21    -1     0     0   501   502  0.000000000E+00  0.000000000E+00 -8.057599664E+02  8.057599664E+02  0.000000000E+00  0.00000E+00  9.000E+00
      25     1     1     2     0     0  1.982234124E+02 -1.963587595E+02 -2.862564263E+02  4.188281572E+02  1.250000000E+02  0.00000E+00  9.000E+00
      25     1     1     2     0     0 -9.659520336E+01  1.831100196E+02 -4.147777577E+02  4.801307123E+02  1.250000000E+02  0.00000E+00  9.000E+00
       3     1     1     2   501     0 -1.016282090E+02  1.324873987E+01  4.498595345E+02  4.613864137E+02  9.344061824E-06  0.00000E+00  9.000E+00
#rwgt            1           1   2.7694647235384503E-002           6       85371           0
</event>
<event>
      5   9999  3.19816E-02  1.29908E+02 -1.00000E+00  1.18924E-01
      21    -1     0     0   511   501  0.000000000E+00  0.000000000E+00  2.084231968E+03  2.084231968E+03  0.000000000E+00  0.00000E+00  9.000E+00
      21    -1     0     0   501   502  0.000000000E+00  0.000000000E+00 -4.446760342E+02  4.446760342E+02  0.000000000E+00  0.00000E+00  9.000E+00
      25     1     1     2     0     0  7.175869987E+01  1.388211335E+02  7.746356561E+01  2.145838347E+02  1.250000000E+02  0.00000E+00  9.000E+00
      25     1     1     2     0     0  4.141423348E+01 -7.503983485E+01 -3.585635016E+02  3.892799767E+02  1.250000000E+02  0.00000E+00  9.000E+00
      21     1     1     2   511   502 -1.131729333E+02 -6.378129867E+01  1.920655870E+03  1.925044191E+03  3.051757812E-05  0.00000E+00  9.000E+00
#rwgt            1           1   2.6474461307939345E-002           6       85448           0
</event>
<event>
      5   9999  3.19816E-02  6.74640E+01 -1.00000E+00  1.32037E-01
      21    -1     0     0   502   512  0.000000000E+00  0.000000000E+00  1.169408158E+03  1.169408158E+03  0.000000000E+00  0.00000E+00  9.000E+00
      21    -1     0     0   501   502  0.000000000E+00  0.000000000E+00 -2.713255506E+02  2.713255506E+02  0.000000000E+00  0.00000E+00  9.000E+00
      25     1     1     2     0     0 -2.674235038E+01  3.126627781E+01 -2.433682505E+02  2.766691866E+02  1.250000000E+02  0.00000E+00  9.000E+00
      25     1     1     2     0     0  2.103612204E+01 -9.848850541E+01  8.322587985E+02  8.475979069E+02  1.250000000E+02  0.00000E+00  9.000E+00
      21     1     1     2   501   512  5.706228347E+00  6.722222759E+01  3.091920597E+02  3.164666155E+02  6.607249480E-06  0.00000E+00  9.000E+00
#rwgt            1           1   2.8709789985587843E-002           6       85494           0
</event>
<event>
      5   9999  3.19816E-02  1.80814E+01 -1.00000E+00  1.70066E-01
      21    -1     0     0   502   501  0.000000000E+00  0.000000000E+00  3.944129926E+02  3.944129926E+02  0.000000000E+00  0.00000E+00  9.000E+00
      21    -1     0     0   501   511  0.000000000E+00  0.000000000E+00 -9.331934380E+02  9.331934380E+02  0.000000000E+00  0.00000E+00  9.000E+00
      25     1     1     2     0     0  6.109731843E+01  1.796585623E+02  2.187203091E+02  3.153944434E+02  1.250000000E+02  0.00000E+00  9.000E+00
      25     1     1     2     0     0 -4.334300059E+01 -1.762347282E+02  3.184638470E+01  2.226577808E+02  1.250000000E+02  0.00000E+00  9.000E+00
      21     1     1     2   502   511 -1.775431784E+01 -3.423834083E+00 -7.893471393E+02  7.895542064E+02  1.078959322E-05  0.00000E+00  9.000E+00
#rwgt            1           1   2.7655724007946823E-002           6       85604           0
</event>
<event>
      5   9999  3.19816E-02  1.35531E+02 -1.00000E+00  1.18167E-01
      21    -1     0     0   502   501  0.000000000E+00  0.000000000E+00  1.216867911E+02  1.216867911E+02  0.000000000E+00  0.00000E+00  9.000E+00
      21    -1     0     0   512   502  0.000000000E+00  0.000000000E+00 -8.178001223E+02  8.178001223E+02  0.000000000E+00  0.00000E+00  9.000E+00
      25     1     1     2     0     0 -1.691896669E+02  1.701609074E+02 -1.834836142E+02  3.269114780E+02  1.250000000E+02  0.00000E+00  9.000E+00
      25     1     1     2     0     0  7.492561079E+01 -7.277999105E+01 -1.356830920E+02  2.120039521E+02  1.250000000E+02  0.00000E+00  9.000E+00
      21     1     1     2   512   501  9.426405612E+01 -9.738091632E+01 -3.769466249E+02  4.005714832E+02  5.394796609E-06  0.00000E+00  9.000E+00
#rwgt            1           1   2.7720890468281505E-002           6       85750           0
</event>
<event>
      5   9999  3.19816E-02  3.80390E+01 -1.00000E+00  1.46207E-01
      21    -1     0     0   502   501  0.000000000E+00  0.000000000E+00  1.029043756E+03  1.029043756E+03  0.000000000E+00  0.00000E+00  9.000E+00
      21    -1     0     0   511   502  0.000000000E+00  0.000000000E+00 -1.092618068E+03  1.092618068E+03  0.000000000E+00  0.00000E+00  9.000E+00
      25     1     1     2     0     0 -3.644060481E+02  9.005134690E+02 -1.537329830E+02  9.914510103E+02  1.250000000E+02  0.00000E+00  9.000E+00
      25     1     1     2     0     0  3.813754373E+02 -9.345576691E+02  1.797755324E+02  1.032855025E+03  1.250000000E+02  0.00000E+00  9.000E+00
      21     1     1     2   511   501 -1.696938912E+01  3.404420016E+01 -8.961686170E+01  9.735578890E+01  9.536743164E-07  0.00000E+00  9.000E+00
#rwgt            2          11   4.3924501283680818E-003           6       85833           0
</event>
<event>
      5   9999  3.19816E-02  7.40220E+01 -1.00000E+00  1.30004E-01
      21    -1     0     0   502   501  0.000000000E+00  0.000000000E+00  6.817264610E+02  6.817264610E+02  0.000000000E+00  0.00000E+00  9.000E+00
      21    -1     0     0   512   502  0.000000000E+00  0.000000000E+00 -1.246602442E+02  1.246602442E+02  0.000000000E+00  0.00000E+00  9.000E+00
      25     1     1     2     0     0  7.910417085E+01  1.459653292E+02  3.461549099E+02  4.037469118E+02  1.250000000E+02  0.00000E+00  9.000E+00
      25     1     1     2     0     0 -6.218122623E+01 -2.180269371E+02  2.014025725E+02  3.280095218E+02  1.250000000E+02  0.00000E+00  9.000E+00
      21     1     1     2   512   501 -1.692294462E+01  7.206160792E+01  9.508734463E+00  7.463027149E+01  5.462855929E-07  0.00000E+00  9.000E+00
#rwgt            1           1   2.7866533701241179E-002           6       85868           0
</event>
<event>
      5   9999  3.19816E-02  2.08942E+02 -1.00000E+00  1.10961E-01
      21    -1     0     0   502   511  0.000000000E+00  0.000000000E+00  1.654856748E+03  1.654856748E+03  0.000000000E+00  0.00000E+00  9.000E+00
      21    -1     0     0   501   502  0.000000000E+00  0.000000000E+00 -3.730764531E+02  3.730764531E+02  0.000000000E+00  0.00000E+00  9.000E+00
      25     1     1     2     0     0 -4.369406947E+02 -3.421458833E+02  2.378097771E+02  6.165707309E+02  1.250000000E+02  0.00000E+00  9.000E+00
      25     1     1     2     0     0  6.373333365E+02  2.829890752E+02  6.317618280E+02  9.492231592E+02  1.250000000E+02  0.00000E+00  9.000E+00
      21     1     1     2   501   511 -2.003926418E+02  5.915680813E+01  4.122086901E+02  4.621393112E+02  5.394796609E-06  0.00000E+00  9.000E+00
#rwgt            1           1   3.1819912636920820E-002           6       85928           0
</event>
<event>
      5   9999  3.19816E-02  6.05745E+02 -1.00000E+00  9.65412E-02
      21    -1     0     0   502   501  0.000000000E+00  0.000000000E+00  2.003678040E+03  2.003678040E+03  0.000000000E+00  0.00000E+00  9.000E+00
       2    -1     0     0   501     0  0.000000000E+00  0.000000000E+00 -1.387560974E+03  1.387560974E+03  0.000000000E+00  0.00000E+00  9.000E+00
      25     1     1     2     0     0  1.600147108E+02 -6.405386874E+02 -3.143031721E+02  7.418261264E+02  1.250000000E+02  0.00000E+00  9.000E+00
      25     1     1     2     0     0  4.350861950E+02  7.535976204E+02  1.550615224E+03  1.782481961E+03  1.250000000E+02  0.00000E+00  9.000E+00
       2     1     1     2   502     0 -5.951009058E+02 -1.130589330E+02 -6.201949852E+02  8.669309258E+02  1.868812365E-05  0.00000E+00  9.000E+00
#rwgt            2          13   1.1747807292684716E-003           6       86007           0
</event>
<event>
      5   9999  3.19816E-02  3.02995E+01 -1.00000E+00  1.52741E-01
      21    -1     0     0   502   501  0.000000000E+00  0.000000000E+00  3.539309742E+02  3.539309742E+02  0.000000000E+00  0.00000E+00  9.000E+00
      21    -1     0     0   501   511  0.000000000E+00  0.000000000E+00 -9.422321549E+02  9.422321549E+02  0.000000000E+00  0.00000E+00  9.000E+00
      25     1     1     2     0     0  1.982024899E+02  1.632890417E+02 -3.884501129E+02  4.821473098E+02  1.250000000E+02  0.00000E+00  9.000E+00
      25     1     1     2     0     0 -2.227206893E+02 -1.810912997E+02  2.266025896E+02  3.864871251E+02  1.250000000E+02  0.00000E+00  9.000E+00
      21     1     1     2   502   511  2.451819948E+01  1.780225802E+01 -4.264536573E+02  4.275286942E+02  9.344061824E-06  0.00000E+00  9.000E+00
#rwgt            1           1   3.1778919919340030E-002           6       86026           0
</event>
<event>
      5   9999  3.19816E-02  5.10487E+02 -1.00000E+00  9.85966E-02
      21    -1     0     0   502   501  0.000000000E+00  0.000000000E+00  2.517561706E+03  2.517561706E+03  0.000000000E+00  0.00000E+00  9.000E+00
       2    -1     0     0   501     0  0.000000000E+00  0.000000000E+00 -1.386392239E+03  1.386392239E+03  0.000000000E+00  0.00000E+00  9.000E+00
      25     1     1     2     0     0  2.341767430E+02 -8.286454667E+02  2.235263869E+03  2.398649958E+03  1.250000000E+02  0.00000E+00  9.000E+00
      25     1     1     2     0     0 -1.019114262E+02  3.355906034E+02 -1.107347564E+02  3.884509983E+02  1.250000000E+02  0.00000E+00  9.000E+00
       2     1     1     2   502     0 -1.322653168E+02  4.930548634E+02 -9.933596456E+02  1.116852988E+03  2.854658040E-05  0.00000E+00  9.000E+00
#rwgt            2          13   2.4089865273850672E-003           6       86139           0
</event>
<event>
      5   9999  3.19816E-02  9.69130E+01 -1.00000E+00  1.24444E-01
      21    -1     0     0   511   501  0.000000000E+00  0.000000000E+00  3.640863930E+02  3.640863930E+02  0.000000000E+00  0.00000E+00  9.000E+00
      21    -1     0     0   501   502  0.000000000E+00  0.000000000E+00 -6.163017176E+02  6.163017176E+02  0.000000000E+00  0.00000E+00  9.000E+00
      25     1     1     2     0     0 -2.195186567E+02  1.519365403E+02  3.561741305E+01  2.969288686E+02  1.250000000E+02  0.00000E+00  9.000E+00
      25     1     1     2     0     0  1.387287520E+02 -2.054633923E+02 -4.297338240E+02  5.116219617E+02  1.250000000E+02  0.00000E+00  9.000E+00
      21     1     1     2   511   502  8.078990471E+01  5.352685204E+01  1.419010863E+02  1.718372803E+02  2.697398305E-06  0.00000E+00  9.000E+00
#rwgt            1           1   2.7642749579233839E-002           6       86173           0
</event>
<event>
      5   9999  3.19816E-02  1.55442E+02 -1.00000E+00  1.15783E-01
      21    -1     0     0   502   501  0.000000000E+00  0.000000000E+00  1.361348921E+03  1.361348921E+03  0.000000000E+00  0.00000E+00  9.000E+00
      21    -1     0     0   512   502  0.000000000E+00  0.000000000E+00 -1.662156320E+03  1.662156320E+03  0.000000000E+00  0.00000E+00  9.000E+00
      25     1     1     2     0     0  7.401844335E+02  2.524858006E+02  8.732439549E+02  1.178898672E+03  1.250000000E+02  0.00000E+00  9.000E+00
      25     1     1     2     0     0 -5.866534862E+02 -2.767868353E+02 -2.973244385E-01  6.606045364E+02  1.250000000E+02  0.00000E+00  9.000E+00
      21     1     1     2   512   501 -1.535309472E+02  2.430103467E+01 -1.173754030E+03  1.184002033E+03  2.157918644E-05  0.00000E+00  9.000E+00
#rwgt            1           1   3.0840583919905160E-002           6       86236           0
</event>
<event>
      5   9999  3.19816E-02  1.54945E+02 -1.00000E+00  1.15838E-01
      21    -1     0     0   502   501  0.000000000E+00  0.000000000E+00  8.175701889E+02  8.175701889E+02  0.000000000E+00  0.00000E+00  9.000E+00
      21    -1     0     0   501   511  0.000000000E+00  0.000000000E+00 -6.006702456E+02  6.006702456E+02  0.000000000E+00  0.00000E+00  9.000E+00
      25     1     1     2     0     0  4.027972245E+01 -4.904811646E+01 -1.081505775E+02  1.770585247E+02  1.250000000E+02  0.00000E+00  9.000E+00
      25     1     1     2     0     0  1.060427279E+02 -1.920645992E+00  7.610307596E+02  7.784867154E+02  1.250000000E+02  0.00000E+00  9.000E+00
      21     1     1     2   502   511 -1.463224504E+02  5.096876245E+01 -4.359802388E+02  4.626951943E+02  5.394796609E-06  0.00000E+00  9.000E+00
#rwgt            1           1   2.8122357955883075E-002           6       86325           0
</event>
<event>
      5   9999  3.19816E-02  2.05574E+01 -1.00000E+00  1.65390E-01
      21    -1     0     0   502   501  0.000000000E+00  0.000000000E+00  2.498674211E+02  2.498674211E+02  0.000000000E+00  0.00000E+00  9.000E+00
      21    -1     0     0   512   502  0.000000000E+00  0.000000000E+00 -5.026638013E+02  5.026638013E+02  0.000000000E+00  0.00000E+00  9.000E+00
      25     1     1     2     0     0  4.860494658E+01 -2.707875122E+02 -1.807894482E+01  3.027212676E+02  1.250000000E+02  0.00000E+00  9.000E+00
      25     1     1     2     0     0 -4.035539767E+01  2.519579167E+02 -8.203062611E+01  2.957454540E+02  1.250000000E+02  0.00000E+00  9.000E+00
      21     1     1     2   512   501 -8.249548905E+00  1.882959552E+01 -1.526868092E+02  1.540645009E+02  2.697398305E-06  0.00000E+00  9.000E+00
#rwgt            1           1   3.0447229889530553E-002           6       86401           0
</event>
<event>
      5   9999  3.19816E-02  1.78230E+01 -1.00000E+00  1.70607E-01
      21    -1     0     0   502   501  0.000000000E+00  0.000000000E+00  1.982343808E+02  1.982343808E+02  0.000000000E+00  0.00000E+00  9.000E+00
      21    -1     0     0   511   502  0.000000000E+00  0.000000000E+00 -2.410660221E+03  2.410660221E+03  0.000000000E+00  0.00000E+00  9.000E+00
      25     1     1     2     0     0  1.597137877E+02  5.941817198E+02 -1.355774849E+03  1.494091982E+03  1.250000000E+02  0.00000E+00  9.000E+00
      25     1     1     2     0     0 -1.572197069E+02 -6.118293681E+02 -6.772915705E+02  9.345598340E+02  1.250000000E+02  0.00000E+00  9.000E+00
      21     1     1     2   511   501 -2.494080741E+00  1.764764823E+01 -1.793594206E+02  1.802427854E+02  0.000000000E+00  0.00000E+00  9.000E+00
#rwgt            1           1   2.0891715567029446E-002           6       86523           0
</event>
<event>
      5   9999  3.19816E-02  2.14985E+01 -1.00000E+00  1.63821E-01
      21    -1     0     0   502   501  0.000000000E+00  0.000000000E+00  9.053809827E+02  9.053809827E+02  0.000000000E+00  0.00000E+00  9.000E+00
      21    -1     0     0   501   512  0.000000000E+00  0.000000000E+00 -4.591706808E+02  4.591706808E+02  0.000000000E+00  0.00000E+00  9.000E+00
      25     1     1     2     0     0 -5.699703443E+02 -6.465009396E+01  4.408425640E+02  7.341750433E+02  1.250000000E+02  0.00000E+00  9.000E+00
      25     1     1     2     0     0  5.914605769E+02  6.405365309E+01 -1.155595522E+00  6.079102071E+02  1.250000000E+02  0.00000E+00  9.000E+00
      21     1     1     2   502   512 -2.149023258E+01  5.964408675E-01  6.523333485E+00  2.246641310E+01  3.475518164E-07  0.00000E+00  9.000E+00
#rwgt            1           1   3.4527947080834273E-002           6       86653           0
</event>
<event>
      5   9999  3.19816E-02  9.95218E+01 -1.00000E+00  1.23922E-01
      21    -1     0     0   502   501  0.000000000E+00  0.000000000E+00  7.689205313E+02  7.689205313E+02  0.000000000E+00  0.00000E+00  9.000E+00
      21    -1     0     0   501   511  0.000000000E+00  0.000000000E+00 -1.970227166E+02  1.970227166E+02  0.000000000E+00  0.00000E+00  9.000E+00
      25     1     1     2     0     0 -3.437782947E+02  7.964180817E+01  2.769312925E+02  4.656632627E+02  1.250000000E+02  0.00000E+00  9.000E+00
      25     1     1     2     0     0  2.516679135E+02 -1.173281869E+02  2.252854279E+02  3.787890787E+02  1.250000000E+02  0.00000E+00  9.000E+00
      21     1     1     2   502   511  9.211038121E+01  3.768637869E+01  6.968109424E+01  1.214909065E+02  1.348699152E-06  0.00000E+00  9.000E+00
#rwgt            1           1   2.7524595459034091E-002           6       86889           0
</event>
<event>
      5   9999  3.19816E-02  3.76040E+01 -1.00000E+00  1.46524E-01
      21    -1     0     0   502   512  0.000000000E+00  0.000000000E+00  1.414555666E+02  1.414555666E+02  0.000000000E+00  0.00000E+00  9.000E+00
      21    -1     0     0   501   502  0.000000000E+00  0.000000000E+00 -3.650425167E+02  3.650425167E+02  0.000000000E+00  0.00000E+00  9.000E+00
      25     1     1     2     0     0 -1.921239127E+01  1.475584411E+02 -8.320453226E+01  2.114015225E+02  1.250000000E+02  0.00000E+00  9.000E+00
      25     1     1     2     0     0  5.421046011E+01 -1.613133801E+02 -1.465000660E+02  2.569981516E+02  1.250000000E+02  0.00000E+00  9.000E+00
      21     1     1     2   501   512 -3.499806884E+01  1.375493902E+01  6.117648033E+00  3.809840925E+01  4.129530925E-07  0.00000E+00  9.000E+00
#rwgt            1           1   2.7354562893722529E-002           6       86937           0
</event>
<event>
      5   9999  3.19816E-02  4.22637E+01 -1.00000E+00  1.43373E-01
      21    -1     0     0   502   501  0.000000000E+00  0.000000000E+00  2.150910247E+02  2.150910247E+02  0.000000000E+00  0.00000E+00  9.000E+00
      21    -1     0     0   501   511  0.000000000E+00  0.000000000E+00 -6.377786445E+02  6.377786445E+02  0.000000000E+00  0.00000E+00  9.000E+00
      25     1     1     2     0     0  2.396094336E+02  1.281537602E+02 -2.566114882E+00  2.991114372E+02  1.250000000E+02  0.00000E+00  9.000E+00
      25     1     1     2     0     0 -2.087401853E+02 -1.570209178E+02 -2.634387456E+02  3.914754223E+02  1.250000000E+02  0.00000E+00  9.000E+00
      21     1     1     2   502   511 -3.086924822E+01  2.886715764E+01 -1.566827593E+02  1.622828097E+02  0.000000000E+00  0.00000E+00  9.000E+00
#rwgt            1           1   2.7276220410979258E-002           6       87005           0
</event>
<event>
      5   9999  3.19816E-02  7.40562E+01 -1.00000E+00  1.29994E-01
      21    -1     0     0   502   501  0.000000000E+00  0.000000000E+00  2.758207005E+02  2.758207005E+02  0.000000000E+00  0.00000E+00  9.000E+00
      21    -1     0     0   512   502  0.000000000E+00  0.000000000E+00 -1.064279052E+03  1.064279052E+03  0.000000000E+00  0.00000E+00  9.000E+00
      25     1     1     2     0     0 -7.326908848E+01  2.740091498E+02  1.380837613E+02  3.393250634E+02  1.250000000E+02  0.00000E+00  9.000E+00
      25     1     1     2     0     0  1.370292136E+02 -2.363399751E+02 -6.814033729E+02  7.446939948E+02  1.250000000E+02  0.00000E+00  9.000E+00
      21     1     1     2   512   501 -6.376012510E+01 -3.766917469E+01 -2.451387397E+02  2.560806943E+02  2.697398305E-06  0.00000E+00  9.000E+00
#rwgt            1           1   3.1682790954187898E-002           6       87087           0
</event>
<event>
      5   9999  3.19816E-02  7.21751E+01 -1.00000E+00  1.30551E-01
      21    -1     0     0   502   501  0.000000000E+00  0.000000000E+00  1.295551284E+03  1.295551284E+03  0.000000000E+00  0.00000E+00  9.000E+00
      21    -1     0     0   511   502  0.000000000E+00  0.000000000E+00 -3.487797996E+02  3.487797996E+02  0.000000000E+00  0.00000E+00  9.000E+00
      25     1     1     2     0     0  4.696042702E+02  2.843185815E+01  3.998414376E+01  4.884263229E+02  1.250000000E+02  0.00000E+00  9.000E+00
      25     1     1     2     0     0 -5.361139852E+02 -5.646220284E+01  9.281813373E+02  1.080625643E+03  1.250000000E+02  0.00000E+00  9.000E+00
      21     1     1     2   511   501  6.650971500E+01  2.803034469E+01 -2.139399686E+01  7.527911739E+01  1.369610464E-06  0.00000E+00  9.000E+00
#rwgt            1           1   3.0685777074755883E-002           6       87214           0
</event>
<event>
      5   9999  3.19816E-02  1.51413E+02 -1.00000E+00  1.16232E-01
      21    -1     0     0   502   501  0.000000000E+00  0.000000000E+00  2.862663794E+02  2.862663794E+02  0.000000000E+00  0.00000E+00  9.000E+00
      21    -1     0     0   501   512  0.000000000E+00  0.000000000E+00 -1.127623736E+03  1.127623736E+03  0.000000000E+00  0.00000E+00  9.000E+00
      25     1     1     2     0     0  2.435082623E+02 -3.343579206E+02  5.947963786E-01  4.321074481E+02  1.250000000E+02  0.00000E+00  9.000E+00
      25     1     1     2     0     0 -9.309612838E+01  3.169740782E+02 -6.059701281E+02  7.014016335E+02  1.250000000E+02  0.00000E+00  9.000E+00
      21     1     1     2   502   512 -1.504121340E+02  1.738384245E+01 -2.359820247E+02  2.803810336E+02  0.000000000E+00  0.00000E+00  9.000E+00
#rwgt            2          11   3.9023006825568687E-003           6       87319           0
</event>
<event>
      5   9999  3.19816E-02  2.04360E+01 -1.00000E+00  1.65600E-01
      21    -1     0     0   502   511  0.000000000E+00  0.000000000E+00  5.919481077E+01  5.919481077E+01  0.000000000E+00  0.00000E+00  9.000E+00
      21    -1     0     0   501   502  0.000000000E+00  0.000000000E+00 -7.558624437E+02  7.558624437E+02  0.000000000E+00  0.00000E+00  9.000E+00
      25     1     1     2     0     0 -1.983313650E+01 -1.082074184E+02 -4.985260989E+02  5.256001047E+02  1.250000000E+02  0.00000E+00  9.000E+00
      25     1     1     2     0     0  1.400802186E+01  1.277956665E+02 -2.003832876E+02  2.688985292E+02  1.250000000E+02  0.00000E+00  9.000E+00
      21     1     1     2   501   511  5.825114645E+00 -1.958824803E+01  2.241753634E+00  2.055862059E+01  1.884864366E-07  0.00000E+00  9.000E+00
#rwgt            1           1   3.3594186843579552E-002           6       87354           0
</event>
<event>
      5   9999  3.19816E-02  2.37507E+01 -1.00000E+00  1.60437E-01
      21    -1     0     0   512   501  0.000000000E+00  0.000000000E+00  3.498647035E+02  3.498647035E+02  0.000000000E+00  0.00000E+00  9.000E+00
      21    -1     0     0   501   502  0.000000000E+00  0.000000000E+00 -3.239360293E+02  3.239360293E+02  0.000000000E+00  0.00000E+00  9.000E+00
      25     1     1     2     0     0  4.181162299E+01  1.914009480E+02 -2.259971787E+02  3.241639393E+02  1.250000000E+02  0.00000E+00  9.000E+00
      25     1     1     2     0     0 -2.315910720E+01 -1.766978573E+02  2.167002342E+02  3.071521911E+02  1.250000000E+02  0.00000E+00  9.000E+00
      21     1     1     2   512   502 -1.865251580E+01 -1.470309067E+01  3.522561878E+01  4.248460238E+01  4.768371582E-07  0.00000E+00  9.000E+00
#rwgt            1           1   2.9068560156236330E-002           6       87547           0
</event>
<event>
      5   9999  3.19816E-02  4.04541E+01 -1.00000E+00  1.44537E-01
      21    -1     0     0   511   501  0.000000000E+00  0.000000000E+00  5.238705304E+02  5.238705304E+02  0.000000000E+00  0.00000E+00  9.000E+00
      21    -1     0     0   501   502  0.000000000E+00  0.000000000E+00 -3.973096298E+02  3.973096298E+02  0.000000000E+00  0.00000E+00  9.000E+00
      25     1     1     2     0     0  1.249588938E+02  2.014611825E+02  2.970916437E+02  4.001122067E+02  1.250000000E+02  0.00000E+00  9.000E+00
      25     1     1     2     0     0 -1.358179578E+02 -2.404306291E+02 -2.748552323E+02  4.091745395E+02  1.250000000E+02  0.00000E+00  9.000E+00
      21     1     1     2   511   502  1.085906403E+01  3.896944664E+01  1.043244892E+02  1.118934140E+02  1.907348633E-06  0.00000E+00  9.000E+00
#rwgt            1           1   2.6003950879312059E-002           6       87646           0
</event>
<event>
      5   9999  3.19816E-02  1.23087E+02 -1.00000E+00  1.19902E-01
      21    -1     0     0   512   501  0.000000000E+00  0.000000000E+00  3.604887963E+02  3.604887963E+02  0.000000000E+00  0.00000E+00  9.000E+00
      21    -1     0     0   501   502  0.000000000E+00  0.000000000E+00 -1.483354417E+03  1.483354417E+03  0.000000000E+00  0.00000E+00  9.000E+00
      25     1     1     2     0     0 -5.178042047E+02 -2.278395392E+02 -5.117397812E+02  7.730036570E+02  1.250000000E+02  0.00000E+00  9.000E+00
      25     1     1     2     0     0  6.405733934E+02  2.189941560E+02 -6.447978315E+02  9.432295353E+02  1.250000000E+02  0.00000E+00  9.000E+00
      21     1     1     2   512   502 -1.227691886E+02  8.845383260E+00  3.367199185E+01  1.276100212E+02  2.023048729E-06  0.00000E+00  9.000E+00
#rwgt            1           1   2.9383034273300024E-002           6       87766           0
</event>
<event>
      5   9999  3.19816E-02  3.11672E+01 -1.00000E+00  1.51897E-01
      21    -1     0     0   502   501  0.000000000E+00  0.000000000E+00  5.509390173E+02  5.509390173E+02  0.000000000E+00  0.00000E+00  9.000E+00
      21    -1     0     0   501   511  0.000000000E+00  0.000000000E+00 -9.320429777E+01  9.320429777E+01  0.000000000E+00  0.00000E+00  9.000E+00
      25     1     1     2     0     0  1.187989267E+02  8.916108538E+00  3.496166032E+02  3.899351885E+02  1.250000000E+02  0.00000E+00  9.000E+00
      25     1     1     2     0     0 -1.448191509E+02 -2.607254919E+01  1.113371165E+02  2.228751170E+02  1.250000000E+02  0.00000E+00  9.000E+00
      21     1     1     2   502   511  2.602022418E+01  1.715644065E+01 -3.219000213E+00  3.133300951E+01  6.976544804E-07  0.00000E+00  9.000E+00
#rwgt            1           1   2.7553285838031204E-002           6       87864           0
</event>
<event>
      5   9999  3.19816E-02  7.60549E+01 -1.00000E+00  1.29422E-01
      21    -1     0     0   502   501  0.000000000E+00  0.000000000E+00  2.386963877E+02  2.386963877E+02  0.000000000E+00  0.00000E+00  9.000E+00
      21    -1     0     0   501   512  0.000000000E+00  0.000000000E+00 -2.515204556E+02  2.515204556E+02  0.000000000E+00  0.00000E+00  9.000E+00
      25     1     1     2     0     0 -3.081930166E+01 -5.274857658E+01 -1.272448578E+02  1.885430867E+02  1.250000000E+02  0.00000E+00  9.000E+00
      25     1     1     2     0     0 -3.744270205E+01  1.921284834E+01  1.643233008E+02  2.107088908E+02  1.250000000E+02  0.00000E+00  9.000E+00
      21     1     1     2   502   512  6.826200371E+01  3.353572824E+01 -4.990251091E+01  9.096486582E+01  9.536743164E-07  0.00000E+00  9.000E+00
#rwgt            1           1   3.2576090306848930E-002           6       88002           0
</event>
<event>
      5   9999  3.19816E-02  6.56888E+01 -1.00000E+00  1.32634E-01
      21    -1     0     0   502   501  0.000000000E+00  0.000000000E+00  6.216146151E+02  6.216146151E+02  0.000000000E+00  0.00000E+00  9.000E+00
      21    -1     0     0   511   502  0.000000000E+00  0.000000000E+00 -2.110579181E+02  2.110579181E+02  0.000000000E+00  0.00000E+00  9.000E+00
      25     1     1     2     0     0 -1.259016927E+02 -1.222408530E+02  5.267310010E+02  5.690910382E+02  1.250000000E+02  0.00000E+00  9.000E+00
      25     1     1     2     0     0  9.630941696E+01  6.359517408E+01 -9.322428082E+01  1.939990116E+02  1.250000000E+02  0.00000E+00  9.000E+00
      21     1     1     2   511   501  2.959227573E+01  5.864567888E+01 -2.295002315E+01  6.958248340E+01  1.719260824E-06  0.00000E+00  9.000E+00
#rwgt            1           1   2.8649211527465423E-002           6       88062           0
</event>
<event>
      5   9999  3.19816E-02  1.25987E+02 -1.00000E+00  1.19478E-01
      21    -1     0     0   502   512  0.000000000E+00  0.000000000E+00  1.578438858E+02  1.578438858E+02  0.000000000E+00  0.00000E+00  9.000E+00
      21    -1     0     0   501   502  0.000000000E+00  0.000000000E+00 -1.670151104E+03  1.670151104E+03  0.000000000E+00  0.00000E+00  9.000E+00
      25     1     1     2     0     0  1.667023677E+02  5.103300707E+01 -1.127828916E+03  1.148049264E+03  1.250000000E+02  0.00000E+00  9.000E+00
      25     1     1     2     0     0 -2.925144511E+02 -5.767611565E+01 -4.368851483E+02  5.434932117E+02  1.250000000E+02  0.00000E+00  9.000E+00
      21     1     1     2   501   512  1.258120834E+02  6.643108577E+00  5.240684622E+01  1.364525146E+02  1.507891493E-06  0.00000E+00  9.000E+00
#rwgt            1           1   2.6854112487323618E-002           6       88161           0
</event>
<event>
      5   9999  3.19816E-02  1.20114E+01 -1.00000E+00  1.86985E-01
      21    -1     0     0   502   511  0.000000000E+00  0.000000000E+00  2.392046048E+02  2.392046048E+02  0.000000000E+00  0.00000E+00  9.000E+00
      21    -1     0     0   501   502  0.000000000E+00  0.000000000E+00 -1.856775996E+02  1.856775996E+02  0.000000000E+00  0.00000E+00  9.000E+00
      25     1     1     2     0     0 -7.257234385E+01 -4.097104472E+01 -1.125572898E+02  1.877219089E+02  1.250000000E+02  0.00000E+00  9.000E+00
      25     1     1     2     0     0  8.348447380E+01  4.599089436E+01  1.522221045E+02  2.188181638E+02  1.250000000E+02  0.00000E+00  9.000E+00
      21     1     1     2   501   511 -1.091212995E+01 -5.019849644E+00  1.386219045E+01  1.834213168E+01  3.769728732E-07  0.00000E+00  9.000E+00
#rwgt            1           1   2.5484908357960027E-002           6       88257           0
</event>
<event>
      5   9999  3.19816E-02  1.34784E+02 -1.00000E+00  1.18265E-01
      21    -1     0     0   512   501  0.000000000E+00  0.000000000E+00  1.063175461E+03  1.063175461E+03  0.000000000E+00  0.00000E+00  9.000E+00
      21    -1     0     0   501   502  0.000000000E+00  0.000000000E+00 -4.047729543E+02  4.047729543E+02  0.000000000E+00  0.00000E+00  9.000E+00
      25     1     1     2     0     0  1.432089941E+02  3.788257164E+02  2.353507181E+02  4.848017119E+02  1.250000000E+02  0.00000E+00  9.000E+00
      25     1     1     2     0     0 -1.658114165E+01 -3.326499454E+02 -1.561214222E+02  3.884968712E+02  1.250000000E+02  0.00000E+00  9.000E+00
      21     1     1     2   512   502 -1.266278525E+02 -4.617577096E+01  5.791732111E+02  5.946498325E+02  7.629394531E-06  0.00000E+00  9.000E+00
#rwgt            1           1   2.7236816844418230E-002           6       88421           0
</event>
<event>
      5   9999  3.19816E-02  1.40032E+02 -1.00000E+00  1.17590E-01
       2    -1     0     0   502     0  0.000000000E+00  0.000000000E+00  7.978508718E+02  7.978508718E+02  0.000000000E+00  0.00000E+00  9.000E+00
      21    -1     0     0   501   502  0.000000000E+00  0.000000000E+00 -6.139982864E+02  6.139982864E+02  0.000000000E+00  0.00000E+00  9.000E+00
      25     1     1     2     0     0  3.608189531E+01  4.300659611E+02 -1.104749244E+02  4.626968154E+02  1.250000000E+02  0.00000E+00  9.000E+00
      25     1     1     2     0     0 -1.692432769E+02 -3.867425008E+02 -1.640665102E+02  4.698466436E+02  1.250000000E+02  0.00000E+00  9.000E+00
       2     1     1     2   501     0  1.331613816E+02 -4.332346031E+01  4.583940200E+02  4.793056993E+02  0.000000000E+00  0.00000E+00  9.000E+00
#rwgt            1           1   2.9505408749720234E-002           6       88522           0
</event>
<event>
      5   9999  3.19816E-02  2.65255E+01 -1.00000E+00  1.56848E-01
      21    -1     0     0   502   511  0.000000000E+00  0.000000000E+00  1.255831332E+02  1.255831332E+02  0.000000000E+00  0.00000E+00  9.000E+00
      21    -1     0     0   501   502  0.000000000E+00  0.000000000E+00 -5.813077671E+02  5.813077671E+02  0.000000000E+00  0.00000E+00  9.000E+00
      25     1     1     2     0     0  4.657010128E+01  2.038694665E+02 -1.615568004E+02  2.923305210E+02  1.250000000E+02  0.00000E+00  9.000E+00
      25     1     1     2     0     0 -7.285161784E+01 -2.002800922E+02 -2.987092530E+02  3.876489280E+02  1.250000000E+02  0.00000E+00  9.000E+00
      21     1     1     2   501   511  2.628151657E+01 -3.589374313E+00  4.541419583E+00  2.691145133E+01  5.161913656E-07  0.00000E+00  9.000E+00
#rwgt            1           1   2.7354374835165316E-002           6       88592           0
</event>
<event>
      5   9999  3.19816E-02  3.72819E+01 -1.00000E+00  1.46761E-01
      21    -1     0     0   512   501  0.000000000E+00  0.000000000E+00  2.641561616E+02  2.641561616E+02  0.000000000E+00  0.00000E+00  9.000E+00
      21    -1     0     0   501   502  0.000000000E+00  0.000000000E+00 -5.874760014E+02  5.874760014E+02  0.000000000E+00  0.00000E+00  9.000E+00
      25     1     1     2     0     0  2.902597302E+02 -1.672410149E+01 -3.903047865E+02  5.024870475E+02  1.250000000E+02  0.00000E+00  9.000E+00
      25     1     1     2     0     0 -2.670850007E+02  4.592802008E+01  8.112244511E+01  3.092727465E+02  1.250000000E+02  0.00000E+00  9.000E+00
      21     1     1     2   512   502 -2.317472956E+01 -2.920391859E+01 -1.413749836E+01  3.987236902E+01  6.529361695E-07  0.00000E+00  9.000E+00
#rwgt            1           1   2.6733079501086054E-002           6       88707           0
</event>
<event>
      5   9999  3.19816E-02  7.38981E+01 -1.00000E+00  1.30040E-01
      21    -1     0     0   502   501  0.000000000E+00  0.000000000E+00  1.819182141E+02  1.819182141E+02  0.000000000E+00  0.00000E+00  9.000E+00
      21    -1     0     0   511   502  0.000000000E+00  0.000000000E+00 -1.790134113E+03  1.790134113E+03  0.000000000E+00  0.00000E+00  9.000E+00
      25     1     1     2     0     0 -5.314272972E+02 -3.040384578E+01 -5.510961597E+02  7.763190989E+02  1.250000000E+02  0.00000E+00  9.000E+00
      25     1     1     2     0     0  4.644217951E+02  6.156770733E+01 -9.121717543E+02  1.033034605E+03  1.250000000E+02  0.00000E+00  9.000E+00
      21     1     1     2   511   501  6.700550208E+01 -3.116386155E+01 -1.449479844E+02  1.626986225E+02  0.000000000E+00  0.00000E+00  9.000E+00
#rwgt            1           1   2.7502945009571365E-002           6       88806           0
</event>
<event>
      5   9999  3.19816E-02  8.59274E+01 -1.00000E+00  1.26865E-01
      -1    -1     0     0     0   501  0.000000000E+00  0.000000000E+00  4.326794670E+02  4.326794670E+02  0.000000000E+00  0.00000E+00  9.000E+00
      21    -1     0     0   501   502  0.000000000E+00  0.000000000E+00 -2.542845775E+03  2.542845775E+03  0.000000000E+00  0.00000E+00  9.000E+00
      25     1     1     2     0     0  7.033707042E+01 -4.905989118E+02 -1.930618525E+03  1.997134819E+03  1.250000000E+02  0.00000E+00  9.000E+00
      25     1     1     2     0     0 -2.117830041E+01  4.201224385E+02 -4.891129540E+02  6.571208911E+02  1.250000000E+02  0.00000E+00  9.000E+00
      -1     1     1     2     0   502 -4.915877001E+01  7.047647325E+01  3.095651703E+02  3.212695327E+02  6.607249480E-06  0.00000E+00  9.000E+00
#rwgt            1           1   7.7606459391918306E-002           6       88882           0
</event>
<event>
      5   9999  3.19816E-02  1.08019E+02 -1.00000E+00  1.22340E-01
      21    -1     0     0   511   501  0.000000000E+00  0.000000000E+00  8.051299725E+02  8.051299725E+02  0.000000000E+00  0.00000E+00  9.000E+00
      21    -1     0     0   501   502  0.000000000E+00  0.000000000E+00 -1.103177533E+03  1.103177533E+03  0.000000000E+00  0.00000E+00  9.000E+00
      25     1     1     2     0     0 -3.676943564E+02 -6.335374709E+01 -8.941139961E+02  9.768713707E+02  1.250000000E+02  0.00000E+00  9.000E+00
      25     1     1     2     0     0  2.961590911E+02 -1.758295316E+01 -3.760712394E+00  3.219604175E+02  1.250000000E+02  0.00000E+00  9.000E+00
      21     1     1     2   511   502  7.153526527E+01  8.093670026E+01  5.998271475E+02  6.094757177E+02  7.629394531E-06  0.00000E+00  9.000E+00
#rwgt            1           1   2.8356208575951881E-002           6       88977           0
</event>
<event>
      5   9999  3.19816E-02  2.21890E+02 -1.00000E+00  1.10030E-01
      21    -1     0     0   502   501  0.000000000E+00  0.000000000E+00  3.260792331E+02  3.260792331E+02  0.000000000E+00  0.00000E+00  9.000E+00
      21    -1     0     0   501   512  0.000000000E+00  0.000000000E+00 -4.328480581E+02  4.328480581E+02  0.000000000E+00  0.00000E+00  9.000E+00
      25     1     1     2     0     0 -1.099772324E+02  3.114330028E+01  1.368287625E+02  2.177429839E+02  1.250000000E+02  0.00000E+00  9.000E+00
      25     1     1     2     0     0 -7.725094288E+01 -1.502265942E+02  2.055492516E+00  2.101546165E+02  1.250000000E+02  0.00000E+00  9.000E+00
      21     1     1     2   502   512  1.872281753E+02  1.190832939E+02 -2.456530800E+02  3.310296908E+02  0.000000000E+00  0.00000E+00  9.000E+00
#rwgt            1           1   2.9218049330525509E-002           6       89091           0
</event>
<event>
      5   9999  3.19816E-02  3.52747E+01 -1.00000E+00  1.48309E-01
      21    -1     0     0   502   501  0.000000000E+00  0.000000000E+00  2.778543655E+02  2.778543655E+02  0.000000000E+00  0.00000E+00  9.000E+00
      21    -1     0     0   511   502  0.000000000E+00  0.000000000E+00 -3.957083405E+02  3.957083405E+02  0.000000000E+00  0.00000E+00  9.000E+00
      25     1     1     2     0     0  1.913063865E+02  1.061913595E+02  1.006177444E+02  2.713368181E+02  1.250000000E+02  0.00000E+00  9.000E+00
      25     1     1     2     0     0 -2.265687657E+02 -1.052587508E+02 -1.322668045E+02  3.090830273E+02  1.250000000E+02  0.00000E+00  9.000E+00
      21     1     1     2   511   501  3.526237916E+01 -9.326087372E-01 -8.620491484E+01  9.314286063E+01  1.348699152E-06  0.00000E+00  9.000E+00
#rwgt            1           1   3.3804031798313670E-002           6       89134           0
</event>
<event>
      5   9999  3.19816E-02  7.11714E+01 -1.00000E+00  1.30857E-01
      21    -1     0     0   502   512  0.000000000E+00  0.000000000E+00  1.460582131E+02  1.460582131E+02  0.000000000E+00  0.00000E+00  9.000E+00
      21    -1     0     0   501   502  0.000000000E+00  0.000000000E+00 -1.866400232E+03  1.866400232E+03  0.000000000E+00  0.00000E+00  9.000E+00
      25     1     1     2     0     0 -3.177047243E+01  2.458390622E+02 -1.182303794E+03  1.214460155E+03  1.250000000E+02  0.00000E+00  9.000E+00
      25     1     1     2     0     0  9.197272778E+01 -2.078777592E+02 -6.302287687E+02  6.815316913E+02  1.250000000E+02  0.00000E+00  9.000E+00
      21     1     1     2   501   512 -6.020225535E+01 -3.796130301E+01  9.219054405E+01  1.164665982E+02  4.672030912E-06  0.00000E+00  9.000E+00
#rwgt            1           1   2.7308791181083820E-002           6       89286           0
</event>
<event>
      5   9999  3.19816E-02  2.23704E+02 -1.00000E+00  1.09905E-01
      21    -1     0     0   502   501  0.000000000E+00  0.000000000E+00  1.048039958E+03  1.048039958E+03  0.000000000E+00  0.00000E+00  9.000E+00
      21    -1     0     0   511   502  0.000000000E+00  0.000000000E+00 -3.207259007E+02  3.207259007E+02  0.000000000E+00  0.00000E+00  9.000E+00
      25     1     1     2     0     0  4.808145681E-01  5.924807211E+01  8.183562621E+02  8.299653830E+02  1.250000000E+02  0.00000E+00  9.000E+00
      25     1     1     2     0     0  8.276231845E+01 -2.668873923E+02 -3.440162435E+01  3.080372595E+02  1.250000000E+02  0.00000E+00  9.000E+00
      21     1     1     2   511   501 -8.324313302E+01  2.076393202E+02 -5.664058065E+01  2.307632160E+02  1.784161275E-06  0.00000E+00  9.000E+00
#rwgt            1           1   3.1742062675200106E-002           6       89414           0
</event>
<event>
      5   9999  3.19816E-02  3.58442E+01 -1.00000E+00  1.47858E-01
      21    -1     0     0   502   501  0.000000000E+00  0.000000000E+00  1.361003228E+02  1.361003228E+02  0.000000000E+00  0.00000E+00  9.000E+00
      21    -1     0     0   501   512  0.000000000E+00  0.000000000E+00 -2.228478856E+03  2.228478856E+03  0.000000000E+00  0.00000E+00  9.000E+00
      25     1     1     2     0     0 -1.467307644E+02 -7.133313994E+01 -1.610589056E+03  1.623650344E+03  1.250000000E+02  0.00000E+00  9.000E+00
      25     1     1     2     0     0  1.825682239E+02  7.202617662E+01  2.395267539E+01  2.339180565E+02  1.250000000E+02  0.00000E+00  9.000E+00
      21     1     1     2   502   512 -3.583745950E+01 -6.930366744E-01 -5.057421529E+02  5.070107780E+02  5.394796609E-06  0.00000E+00  9.000E+00
#rwgt            1           1   2.7283104591373168E-002           6       89521           0
</event>
<event>
      5   9999  3.19816E-02  2.73478E+01 -1.00000E+00  1.55885E-01
      21    -1     0     0   511   501  0.000000000E+00  0.000000000E+00  2.161972743E+03  2.161972743E+03  0.000000000E+00  0.00000E+00  9.000E+00
      21    -1     0     0   501   502  0.000000000E+00  0.000000000E+00 -1.895010845E+02  1.895010845E+02  0.000000000E+00  0.00000E+00  9.000E+00
      25     1     1     2     0     0  5.604784652E+02 -2.632460984E+02  1.032796043E+03  1.210672245E+03  1.250000000E+02  0.00000E+00  9.000E+00
      25     1     1     2     0     0 -5.560364136E+02  2.362614720E+02  8.754565236E+02  1.071001915E+03  1.250000000E+02  0.00000E+00  9.000E+00
      21     1     1     2   511   502 -4.442051578E+00  2.698462644E+01  6.421909219E+01  6.979966826E+01  0.000000000E+00  0.00000E+00  9.000E+00
#rwgt            1           1   2.6555792986528368E-002           6       89652           0
</event>
<event>
      5   9999  3.19816E-02  8.86851E+01 -1.00000E+00  1.26220E-01
      21    -1     0     0   502   512  0.000000000E+00  0.000000000E+00  6.057112275E+02  6.057112275E+02  0.000000000E+00  0.00000E+00  9.000E+00
      21    -1     0     0   501   502  0.000000000E+00  0.000000000E+00 -1.560315741E+03  1.560315741E+03  0.000000000E+00  0.00000E+00  9.000E+00
      25     1     1     2     0     0 -3.555525658E+02 -7.006379191E+02  4.272960725E+01  7.967194865E+02  1.250000000E+02  0.00000E+00  9.000E+00
      25     1     1     2     0     0  4.290986775E+02  6.510796673E+02 -1.007411012E+03  1.280051700E+03  1.250000000E+02  0.00000E+00  9.000E+00
      21     1     1     2   501   512 -7.354611166E+01  4.955825185E+01  1.007689117E+01  8.925578190E+01  1.884864366E-06  0.00000E+00  9.000E+00
#rwgt            1           1   3.2779354903050083E-002           6       89821           0
</event>
<event>
      5   9999  3.19816E-02  5.72780E+01 -1.00000E+00  1.35790E-01
      21    -1     0     0   502   501  0.000000000E+00  0.000000000E+00  2.532254585E+02  2.532254585E+02  0.000000000E+00  0.00000E+00  9.000E+00
      21    -1     0     0   501   511  0.000000000E+00  0.000000000E+00 -2.782635839E+02  2.782635839E+02  0.000000000E+00  0.00000E+00  9.000E+00
      25     1     1     2     0     0 -1.990933375E+02  4.956852718E+01  3.773347796E+01  2.431954179E+02  1.250000000E+02  0.00000E+00  9.000E+00
      25     1     1     2     0     0  1.847690154E+02  5.889423061E+00 -4.031053074E+01  2.267690747E+02  1.250000000E+02  0.00000E+00  9.000E+00
      21     1     1     2   502   511  1.432432202E+01 -5.545795024E+01 -2.246107253E+01  6.152454978E+01  8.920806376E-07  0.00000E+00  9.000E+00
#rwgt            1           1   3.5304446729564877E-002           6       89919           0
</event>
<event>
      5   9999  3.19816E-02  6.15164E+00 -1.00000E+00  2.23801E-01
      21    -1     0     0   502   512  0.000000000E+00  0.000000000E+00  7.747330091E+02  7.747330091E+02  0.000000000E+00  0.00000E+00  9.000E+00
      21    -1     0     0   501   502  0.000000000E+00  0.000000000E+00 -1.740584367E+02  1.740584367E+02  0.000000000E+00  0.00000E+00  9.000E+00
      25     1     1     2     0     0  2.248590937E+02 -2.116014417E+02  4.554290672E+02  5.642494284E+02  1.250000000E+02  0.00000E+00  9.000E+00
      25     1     1     2     0     0 -2.282888479E+02  2.064946422E+02  1.118106266E+02  3.505459335E+02  1.250000000E+02  0.00000E+00  9.000E+00
      21     1     1     2   501   512  3.429754153E+00  5.106799562E+00  3.343487861E+01  3.399608393E+01  0.000000000E+00  0.00000E+00  9.000E+00
#rwgt            1           1   3.6118546067536471E-002           6       90007           0
</event>
<event>
      5   9999  3.19816E-02  1.94019E+02 -1.00000E+00  1.12130E-01
      21    -1     0     0   502   501  0.000000000E+00  0.000000000E+00  4.459308495E+02  4.459308495E+02  0.000000000E+00  0.00000E+00  9.000E+00
      21    -1     0     0   501   511  0.000000000E+00  0.000000000E+00 -2.356979027E+02  2.356979027E+02  0.000000000E+00  0.00000E+00  9.000E+00
      25     1     1     2     0     0  6.681849618E+01  8.253508449E+01  2.580420574E+02  3.057571831E+02  1.250000000E+02  0.00000E+00  9.000E+00
      25     1     1     2     0     0  1.218402361E+02 -3.724514444E+01 -3.061250988E+01  1.810921580E+02  1.250000000E+02  0.00000E+00  9.000E+00
      21     1     1     2   502   511 -1.886587323E+02 -4.528994006E+01 -1.719660071E+01  1.947794111E+02  8.259061849E-07  0.00000E+00  9.000E+00
#rwgt            1           1   2.6616704006546674E-002           6       90363           0
</event>
<event>
      5   9999  3.19816E-02  1.38206E+02 -1.00000E+00  1.17821E-01
      21    -1     0     0   502   501  0.000000000E+00  0.000000000E+00  6.142897334E+02  6.142897334E+02  0.000000000E+00  0.00000E+00  9.000E+00
      21    -1     0     0   512   502  0.000000000E+00  0.000000000E+00 -5.894439808E+02  5.894439808E+02  0.000000000E+00  0.00000E+00  9.000E+00
      25     1     1     2     0     0 -4.589331386E+02  5.186368350E+01  1.468225987E+02  5.004911017E+02  1.250000000E+02  0.00000E+00  9.000E+00
      25     1     1     2     0     0  5.165273629E+02  7.377031926E+01 -3.028681278E+01  5.373870743E+02  1.250000000E+02  0.00000E+00  9.000E+00
      21     1     1     2   512   501 -5.759422427E+01 -1.256340028E+02 -9.169003332E+01  1.658555381E+02  1.907348633E-06  0.00000E+00  9.000E+00
#rwgt            1           1   3.1037918838850095E-002           6       90436           0
</event>
<event>
      5   9999  3.19816E-02  1.20831E+01 -1.00000E+00  1.86713E-01
      21    -1     0     0   502   501  0.000000000E+00  0.000000000E+00  1.024861849E+02  1.024861849E+02  0.000000000E+00  0.00000E+00  9.000E+00
      21    -1     0     0   501   511  0.000000000E+00  0.000000000E+00 -4.172896886E+02  4.172896886E+02  0.000000000E+00  0.00000E+00  9.000E+00
      25     1     1     2     0     0 -6.304914485E+00  1.257679842E+02 -5.443391789E+01  1.855946907E+02  1.250000000E+02  0.00000E+00  9.000E+00
      25     1     1     2     0     0  1.124415131E+01 -1.147404728E+02 -1.613119658E+02  2.343893286E+02  1.250000000E+02  0.00000E+00  9.000E+00
      21     1     1     2   502   511 -4.939236825E+00 -1.102751141E+01 -9.905762000E+01  9.979185412E+01  2.336015456E-06  0.00000E+00  9.000E+00
#rwgt            1           1   2.2998384785474960E-002           6       90510           0
</event>
<event>
      5   9999  3.19816E-02  2.01132E+01 -1.00000E+00  1.66167E-01
      21    -1     0     0   502   501  0.000000000E+00  0.000000000E+00  7.968767171E+01  7.968767171E+01  0.000000000E+00  0.00000E+00  9.000E+00
       2    -1     0     0   501     0  0.000000000E+00  0.000000000E+00 -2.988578345E+03  2.988578345E+03  0.000000000E+00  0.00000E+00  9.000E+00
      25     1     1     2     0     0  3.550505344E+00 -1.158159422E+02 -2.706193899E+01  1.725783506E+02  1.250000000E+02  0.00000E+00  9.000E+00
      25     1     1     2     0     0 -2.013991469E+01  1.044435334E+02 -9.725125499E+02  9.862655462E+02  1.250000000E+02  0.00000E+00  9.000E+00
       2     1     1     2   502     0  1.658940935E+01  1.137240877E+01 -1.909316184E+03  1.909422119E+03  3.051757812E-05  0.00000E+00  9.000E+00
#rwgt            1           1   2.9696612257948417E-002           6       90639           0
</event>
<event>
      5   9999  3.19816E-02  2.16389E+02 -1.00000E+00  1.10417E-01
      21    -1     0     0   511   501  0.000000000E+00  0.000000000E+00  2.986810398E+03  2.986810398E+03  0.000000000E+00  0.00000E+00  9.000E+00
      21    -1     0     0   501   502  0.000000000E+00  0.000000000E+00 -1.872731557E+02  1.872731557E+02  0.000000000E+00  0.00000E+00  9.000E+00
      25     1     1     2     0     0  9.069327504E+01 -2.287696497E+02 -6.559563943E+01  2.837051474E+02  1.250000000E+02  0.00000E+00  9.000E+00
      25     1     1     2     0     0 -1.644775161E+01  2.551667218E+01  5.361692115E+02  5.513837615E+02  1.250000000E+02  0.00000E+00  9.000E+00
      21     1     1     2   511   502 -7.424552342E+01  2.032529775E+02  2.328963671E+03  2.338994645E+03  0.000000000E+00  0.00000E+00  9.000E+00
#rwgt            1           1   3.3505740290875614E-002           6       90804           0
</event>
<event>
      5   9999  3.19816E-02  3.19053E+01 -1.00000E+00  1.51205E-01
      21    -1     0     0   512   501  0.000000000E+00  0.000000000E+00  4.597284472E+02  4.597284472E+02  0.000000000E+00  0.00000E+00  9.000E+00
      21    -1     0     0   501   502  0.000000000E+00  0.000000000E+00 -3.001464031E+02  3.001464031E+02  0.000000000E+00  0.00000E+00  9.000E+00
      25     1     1     2     0     0  3.281490196E+02  1.427933218E+01  1.216377714E+02  3.718957190E+02  1.250000000E+02  0.00000E+00  9.000E+00
      25     1     1     2     0     0 -3.138168762E+02  1.422566933E+01 -4.019375488E-01  3.380954939E+02  1.250000000E+02  0.00000E+00  9.000E+00
      21     1     1     2   512   502 -1.433214339E+01 -2.850500151E+01  3.834621020E+01  4.988363742E+01  8.259061849E-07  0.00000E+00  9.000E+00
#rwgt            1           1   2.7189826987450257E-002           6       90877           0
</event>
<event>
      5   9999  3.19816E-02  4.45552E+01 -1.00000E+00  1.41994E-01
      21    -1     0     0   511   501  0.000000000E+00  0.000000000E+00  2.084404577E+02  2.084404577E+02  0.000000000E+00  0.00000E+00  9.000E+00
      21    -1     0     0   501   502  0.000000000E+00  0.000000000E+00 -8.449558294E+02  8.449558294E+02  0.000000000E+00  0.00000E+00  9.000E+00
      25     1     1     2     0     0  4.299471101E+01  2.907597243E+02 -5.918259493E+02  6.725122428E+02  1.250000000E+02  0.00000E+00  9.000E+00
      25     1     1     2     0     0 -1.687382426E+00 -3.074590174E+02 -2.718379371E+01  3.330132930E+02  1.250000000E+02  0.00000E+00  9.000E+00
      21     1     1     2   511   502 -4.130732859E+01  1.669929317E+01 -1.750562867E+01  4.787075122E+01  5.331201500E-07  0.00000E+00  9.000E+00
#rwgt            1           1   2.8713898075060106E-002           6       91060           0
</event>
<event>
      5   9999  3.19816E-02  3.21280E+01 -1.00000E+00  1.51001E-01
      21    -1     0     0   502   501  0.000000000E+00  0.000000000E+00  6.498001880E+02  6.498001880E+02  0.000000000E+00  0.00000E+00  9.000E+00
      21    -1     0     0   501   512  0.000000000E+00  0.000000000E+00 -3.554409725E+02  3.554409725E+02  0.000000000E+00  0.00000E+00  9.000E+00
      25     1     1     2     0     0 -7.476416718E+01  3.546162903E+02 -7.716904373E+01  3.910530084E+02  1.250000000E+02  0.00000E+00  9.000E+00
      25     1     1     2     0     0  4.613979828E+01 -3.692058057E+02  4.076115060E+02  5.658744983E+02  1.250000000E+02  0.00000E+00  9.000E+00
      21     1     1     2   502   512  2.862436890E+01  1.458951540E+01 -3.608324674E+01  4.831365386E+01  6.743495762E-07  0.00000E+00  9.000E+00
#rwgt            1           1   2.6767788651755345E-002           6       91206           0
</event>
<event>
      5   9999  3.19816E-02  1.64560E+01 -1.00000E+00  1.73675E-01
      21    -1     0     0   511   501  0.000000000E+00  0.000000000E+00  2.933695640E+02  2.933695640E+02  0.000000000E+00  0.00000E+00  9.000E+00
      21    -1     0     0   501   502  0.000000000E+00  0.000000000E+00 -5.385272367E+02  5.385272367E+02  0.000000000E+00  0.00000E+00  9.000E+00
      25     1     1     2     0     0 -1.077032276E+02 -9.817132726E+01  5.657592076E+01  2.001585110E+02  1.250000000E+02  0.00000E+00  9.000E+00
      25     1     1     2     0     0  1.036911090E+02  1.141307233E+02 -4.451386590E+02  4.873921355E+02  1.250000000E+02  0.00000E+00  9.000E+00
      21     1     1     2   511   502  4.012118582E+00 -1.595939600E+01  1.434050654E+02  1.443461541E+02  1.907348633E-06  0.00000E+00  9.000E+00
#rwgt            1           1   2.6637169996839800E-002           6       91341           0
</event>
<event>
      5   9999  3.19816E-02  7.57403E+01 -1.00000E+00  1.29510E-01
      21    -1     0     0   502   501  0.000000000E+00  0.000000000E+00  1.669291678E+03  1.669291678E+03  0.000000000E+00  0.00000E+00  9.000E+00
      21    -1     0     0   501   512  0.000000000E+00  0.000000000E+00 -1.890272977E+02  1.890272977E+02  0.000000000E+00  0.00000E+00  9.000E+00
      25     1     1     2     0     0 -4.207580921E+01  2.292771226E+02  1.279790862E+03  1.306838944E+03  1.250000000E+02  0.00000E+00  9.000E+00
      25     1     1     2     0     0 -2.554713888E+00 -2.904711788E+02  2.935492064E+02  4.314813656E+02  1.250000000E+02  0.00000E+00  9.000E+00
      21     1     1     2   502   512  4.463052309E+01  6.119405612E+01 -9.307568872E+01  1.199986664E+02  2.697398305E-06  0.00000E+00  9.000E+00
#rwgt            1           1   2.7122025996542953E-002           6       91564           0
</event>
<event>
      5   9999  3.19816E-02  9.65007E+01 -1.00000E+00  1.24528E-01
      21    -1     0     0   502   501  0.000000000E+00  0.000000000E+00  1.178710954E+03  1.178710954E+03  0.000000000E+00  0.00000E+00  9.000E+00
      21    -1     0     0   511   502  0.000000000E+00  0.000000000E+00 -8.150632271E+02  8.150632271E+02  0.000000000E+00  0.00000E+00  9.000E+00
      25     1     1     2     0     0  3.551983406E+02  7.043463947E+02  6.975679791E+02  1.060422458E+03  1.250000000E+02  0.00000E+00  9.000E+00
      25     1     1     2     0     0 -2.598669203E+02 -7.193230936E+02 -2.924277138E+02  8.283088174E+02  1.250000000E+02  0.00000E+00  9.000E+00
      21     1     1     2   511   501 -9.533142037E+01  1.497669884E+01 -4.149253840E+01  1.050429053E+02  1.507891493E-06  0.00000E+00  9.000E+00
#rwgt            1           1   2.1031310383281113E-002           6       91652           0
</event>
<event>
      5   9999  3.19816E-02  1.55319E+02 -1.00000E+00  1.15797E-01
       2    -1     0     0   502     0  0.000000000E+00  0.000000000E+00  2.262510140E+03  2.262510140E+03  0.000000000E+00  0.00000E+00  9.000E+00
      21    -1     0     0   501   502  0.000000000E+00  0.000000000E+00 -1.548255727E+03  1.548255727E+03  0.000000000E+00  0.00000E+00  9.000E+00
      25     1     1     2     0     0 -2.611026197E+02 -9.600234676E+02 -1.111167594E+03  1.496709076E+03  1.250000000E+02  0.00000E+00  9.000E+00
      25     1     1     2     0     0  3.606155632E+02  1.079276455E+03  1.830118729E+03  2.158666443E+03  1.250000000E+02  0.00000E+00  9.000E+00
       2     1     1     2   501     0 -9.951294348E+01 -1.192529872E+02 -4.696721848E+00  1.553903474E+02  1.561141116E-06  0.00000E+00  9.000E+00
#rwgt            1           1   2.6910047706530237E-002           6       91720           0
</event>
<event>
      5   9999  3.19816E-02  1.91272E+01 -1.00000E+00  1.67984E-01
      21    -1     0     0   511   501  0.000000000E+00  0.000000000E+00  4.141743912E+02  4.141743912E+02  0.000000000E+00  0.00000E+00  9.000E+00
      21    -1     0     0   501   502  0.000000000E+00  0.000000000E+00 -1.606459414E+03  1.606459414E+03  0.000000000E+00  0.00000E+00  9.000E+00
      25     1     1     2     0     0  5.287319715E+02 -1.321079989E+02 -2.559730683E+01  5.597233630E+02  1.250000000E+02  0.00000E+00  9.000E+00
      25     1     1     2     0     0 -5.132075043E+02  1.209347198E+02 -1.256878815E+03  1.368713448E+03  1.250000000E+02  0.00000E+00  9.000E+00
      21     1     1     2   511   502 -1.552446720E+01  1.117327906E+01  9.019109909E+01  9.219699345E+01  2.861022949E-06  0.00000E+00  9.000E+00
#rwgt            1           1   3.2702171570972348E-002           6       91813           0
</event>
<event>
      5   9999  3.19816E-02  1.36434E+02 -1.00000E+00  1.18049E-01
       1    -1     0     0   502     0  0.000000000E+00  0.000000000E+00  2.316119389E+03  2.316119389E+03  0.000000000E+00  0.00000E+00  9.000E+00
      21    -1     0     0   501   502  0.000000000E+00  0.000000000E+00 -7.902867835E+02  7.902867835E+02  0.000000000E+00  0.00000E+00  9.000E+00
      25     1     1     2     0     0  9.816606910E+02  6.799918362E+01 -2.143643549E+02  1.014819530E+03  1.250000000E+02  0.00000E+00  9.000E+00
      25     1     1     2     0     0 -9.912412914E+02 -2.040964524E+02  1.472335965E+03  1.790980975E+03  1.250000000E+02  0.00000E+00  9.000E+00
       1     1     1     2   501     0  9.580600425E+00  1.360972687E+02  2.678609956E+02  3.006056677E+02  0.000000000E+00  0.00000E+00  9.000E+00
#rwgt            1           1   7.5844953016347194E-002           6       91985           0
</event>
<event>
      5   9999  3.19816E-02  2.89562E+01 -1.00000E+00  1.54116E-01
      21    -1     0     0   511   501  0.000000000E+00  0.000000000E+00  2.586151120E+02  2.586151120E+02  0.000000000E+00  0.00000E+00  9.000E+00
      21    -1     0     0   501   502  0.000000000E+00  0.000000000E+00 -3.382984169E+02  3.382984169E+02  0.000000000E+00  0.00000E+00  9.000E+00
      25     1     1     2     0     0  9.401951615E+01 -7.523217166E+01  1.672882394E+02  2.410599596E+02  1.250000000E+02  0.00000E+00  9.000E+00
      25     1     1     2     0     0 -1.131103837E+02  9.700366102E+01 -2.595047565E+02  3.243013842E+02  1.250000000E+02  0.00000E+00  9.000E+00
      21     1     1     2   511   502  1.909086755E+01 -2.177148935E+01  1.253321225E+01  3.155218506E+01  3.769728732E-07  0.00000E+00  9.000E+00
#rwgt            1           1   2.6593184693739821E-002           6       92082           0
</event>
<event>
      5   9999  3.19816E-02  2.56142E+01 -1.00000E+00  1.57965E-01
      21    -1     0     0   502   512  0.000000000E+00  0.000000000E+00  5.265957424E+02  5.265957424E+02  0.000000000E+00  0.00000E+00  9.000E+00
      21    -1     0     0   501   502  0.000000000E+00  0.000000000E+00 -1.520315963E+02  1.520315963E+02  0.000000000E+00  0.00000E+00  9.000E+00
      25     1     1     2     0     0 -1.513858680E+02 -8.945479026E+01  1.773023777E+02  2.792507362E+02  1.250000000E+02  0.00000E+00  9.000E+00
      25     1     1     2     0     0  1.698864387E+02  1.071696423E+02  3.987641064E+01  2.399205336E+02  1.250000000E+02  0.00000E+00  9.000E+00
      21     1     1     2   501   512 -1.850057074E+01 -1.771485205E+01  1.573853578E+02  1.594560690E+02  1.907348633E-06  0.00000E+00  9.000E+00
#rwgt            1           1   3.0083358221695528E-002           6       92228           0
</event>
<event>
      5   9999  3.19816E-02  1.04776E+02 -1.00000E+00  1.22923E-01
       2    -1     0     0   502     0  0.000000000E+00  0.000000000E+00  9.528254734E+02  9.528254734E+02  0.000000000E+00  0.00000E+00  9.000E+00
      21    -1     0     0   501   502  0.000000000E+00  0.000000000E+00 -2.166415620E+02  2.166415620E+02  0.000000000E+00  0.00000E+00  9.000E+00
      25     1     1     2     0     0 -1.259512164E+02  7.204458926E+01 -1.522645468E+02  2.446704395E+02  1.250000000E+02  0.00000E+00  9.000E+00
      25     1     1     2     0     0  3.002624102E+01 -2.989665660E+01  3.098805663E+02  3.368179784E+02  1.250000000E+02  0.00000E+00  9.000E+00
       2     1     1     2   501     0  9.592497535E+01 -4.214793265E+01  5.785678919E+02  5.879786175E+02  0.000000000E+00  0.00000E+00  9.000E+00
#rwgt            1           1   2.7131585692180375E-002           6       92317           0
</event>
<event>
      5   9999  3.19816E-02  1.11469E+02 -1.00000E+00  1.21744E-01
      21    -1     0     0   502   501  0.000000000E+00  0.000000000E+00  3.539655095E+02  3.539655095E+02  0.000000000E+00  0.00000E+00  9.000E+00
      21    -1     0     0   501   511  0.000000000E+00  0.000000000E+00 -3.023960496E+02  3.023960496E+02  0.000000000E+00  0.00000E+00  9.000E+00
      25     1     1     2     0     0 -2.324083074E+00  2.127339093E+02  7.579506494E+01  2.581298305E+02  1.250000000E+02  0.00000E+00  9.000E+00
      25     1     1     2     0     0 -1.072615280E+02 -2.331366051E+02 -2.702212025E+01  2.867279320E+02  1.250000000E+02  0.00000E+00  9.000E+00
      21     1     1     2   502   511  1.095856111E+02  2.040269576E+01  2.796515279E+00  1.115037966E+02  2.078698634E-06  0.00000E+00  9.000E+00
#rwgt            1           1   2.8619484230116080E-002           6       92380           0
</event>
<event>
      5   9999  3.19816E-02  5.66098E+01 -1.00000E+00  1.36067E-01
       1    -1     0     0   502     0  0.000000000E+00  0.000000000E+00  8.322888972E+02  8.322888972E+02  0.000000000E+00  0.00000E+00  9.000E+00
      21    -1     0     0   501   502  0.000000000E+00  0.000000000E+00 -4.034922092E+02  4.034922092E+02  0.000000000E+00  0.00000E+00  9.000E+00
      25     1     1     2     0     0 -2.724421895E+02  3.043668809E+02  1.311631851E+02  4.468699206E+02  1.250000000E+02  0.00000E+00  9.000E+00
      25     1     1     2     0     0  2.303670142E+02 -2.664940225E+02 -1.002726940E+02  3.869982408E+02  1.250000000E+02  0.00000E+00  9.000E+00
       1     1     1     2   501     0  4.207517536E+01 -3.787285838E+01  3.979061969E+02  4.019129450E+02  0.000000000E+00  0.00000E+00  9.000E+00
#rwgt            1           1   2.8554960992225421E-002           6       92430           0
</event>
<event>
      5   9999  3.19816E-02  4.72561E+00 -1.00000E+00  2.47501E-01
      21    -1     0     0   502   501  0.000000000E+00  0.000000000E+00  3.393398380E+02  3.393398380E+02  0.000000000E+00  0.00000E+00  9.000E+00
      21    -1     0     0   501   511  0.000000000E+00  0.000000000E+00 -1.928512454E+02  1.928512454E+02  0.000000000E+00  0.00000E+00  9.000E+00
      25     1     1     2     0     0 -9.086057670E+00 -1.574385255E+02  1.968759012E+02  2.815218752E+02  1.250000000E+02  0.00000E+00  9.000E+00
      25     1     1     2     0     0  4.591565233E+00  1.588983016E+02 -2.185511436E+00  2.022363201E+02  1.250000000E+02  0.00000E+00  9.000E+00
      21     1     1     2   502   511  4.494492438E+00 -1.459776083E+00 -4.820179708E+01  4.843288811E+01  9.536743164E-07  0.00000E+00  9.000E+00
#rwgt            1           1   3.1816043217611480E-002           6       92526           0
</event>
<event>
      5   9999  3.19816E-02  7.64434E+01 -1.00000E+00  1.29313E-01
      21    -1     0     0   502   501  0.000000000E+00  0.000000000E+00  5.356783337E+01  5.356783337E+01  0.000000000E+00  0.00000E+00  9.000E+00
       2    -1     0     0   501     0  0.000000000E+00  0.000000000E+00 -1.937769591E+03  1.937769591E+03  0.000000000E+00  0.00000E+00  9.000E+00
      25     1     1     2     0     0  1.676358764E+02  6.994424762E+01 -3.140214551E+02  3.837036084E+02  1.250000000E+02  0.00000E+00  9.000E+00
      25     1     1     2     0     0 -1.632416072E+02 -1.462612502E+02 -1.376104746E+03  1.399045906E+03  1.250000000E+02  0.00000E+00  9.000E+00
       2     1     1     2   502     0 -4.394269156E+00  7.631700255E+01 -1.940755565E+02  2.085879098E+02  3.814697266E-06  0.00000E+00  9.000E+00
#rwgt            1           1   2.8600982931663160E-002           6       92891           0
</event>
<event>
      5   9999  3.19816E-02  5.58082E+01 -1.00000E+00  1.36406E-01
      21    -1     0     0   511   501  0.000000000E+00  0.000000000E+00  2.499450896E+03  2.499450896E+03  0.000000000E+00  0.00000E+00  9.000E+00
      21    -1     0     0   501   502  0.000000000E+00  0.000000000E+00 -3.396393596E+01  3.396393596E+01  0.000000000E+00  0.00000E+00  9.000E+00
      25     1     1     2     0     0 -1.474370418E+02  1.708885864E+02  9.747612726E+02  1.008327888E+03  1.250000000E+02  0.00000E+00  9.000E+00
      25     1     1     2     0     0  1.904056766E+02 -1.352760089E+02  1.177927075E+03  1.207348795E+03  1.250000000E+02  0.00000E+00  9.000E+00
      21     1     1     2   511   502 -4.296863477E+01 -3.561257746E+01  3.127986125E+02  3.177381489E+02  0.000000000E+00  0.00000E+00  9.000E+00
#rwgt            1           1   7.5573951636125930E-002           6       92961           0
</event>
<event>
      5   9999  3.19816E-02  1.09005E+02 -1.00000E+00  1.22167E-01
      21    -1     0     0   502   501  0.000000000E+00  0.000000000E+00  4.694616776E+02  4.694616776E+02  0.000000000E+00  0.00000E+00  9.000E+00
       1    -1     0     0   501     0  0.000000000E+00  0.000000000E+00 -3.544911276E+02  3.544911276E+02  0.000000000E+00  0.00000E+00  9.000E+00
      25     1     1     2     0     0 -1.119508891E+02 -2.561465001E+02 -8.091431607E+01  3.167272606E+02  1.250000000E+02  0.00000E+00  9.000E+00
      25     1     1     2     0     0  7.644685490E+01  1.530853308E+02  2.927531820E+02  3.613982093E+02  1.250000000E+02  0.00000E+00  9.000E+00
       1     1     1     2   502     0  3.550403424E+01  1.030611693E+02 -9.686831596E+01  1.458273352E+02  1.907348633E-06  0.00000E+00  9.000E+00
#rwgt            1           1   3.0695256197094529E-002           6       93108           0
</event>
<event>
      5   9999  3.19816E-02  3.13734E+01 -1.00000E+00  1.51702E-01
      21    -1     0     0   502   511  0.000000000E+00  0.000000000E+00  7.940791794E+01  7.940791794E+01  0.000000000E+00  0.00000E+00  9.000E+00
      21    -1     0     0   501   502  0.000000000E+00  0.000000000E+00 -2.026792324E+03  2.026792324E+03  0.000000000E+00  0.00000E+00  9.000E+00
      25     1     1     2     0     0 -2.129709716E+02 -2.665372593E+02 -7.145838807E+02  8.016569515E+02  1.250000000E+02  0.00000E+00  9.000E+00
      25     1     1     2     0     0  2.221517507E+02  2.965373032E+02 -1.180220844E+03  1.243314929E+03  1.250000000E+02  0.00000E+00  9.000E+00
      21     1     1     2   501   511 -9.180779071E+00 -3.000004384E+01 -5.257968172E+01  6.122836160E+01  9.536743164E-07  0.00000E+00  9.000E+00
#rwgt            1           1   3.3009817551988174E-002           6       93242           0
</event>
<event>
      5   9999  3.19816E-02  1.72875E+01 -1.00000E+00  1.71767E-01
      21    -1     0     0   512   501  0.000000000E+00  0.000000000E+00  1.234705737E+03  1.234705737E+03  0.000000000E+00  0.00000E+00  9.000E+00
      21    -1     0     0   501   502  0.000000000E+00  0.000000000E+00 -1.054064734E+02  1.054064734E+02  0.000000000E+00  0.00000E+00  9.000E+00
      25     1     1     2     0     0  1.839958675E+01 -9.782969678E+01  4.914951251E+02  5.168187809E+02  1.250000000E+02  0.00000E+00  9.000E+00
      25     1     1     2     0     0 -1.167286501E+01  8.190454298E+01 -3.199170798E+01  1.532745227E+02  1.250000000E+02  0.00000E+00  9.000E+00
      21     1     1     2   512   502 -6.726721745E+00  1.592515380E+01  6.697958467E+02  6.700189069E+02  7.629394531E-06  0.00000E+00  9.000E+00
#rwgt            1           1   2.6988747376203024E-002           6       93433           0
</event>
<event>
      5   9999  3.19816E-02  3.66621E+02 -1.00000E+00  1.02837E-01
      21    -1     0     0   502   511  0.000000000E+00  0.000000000E+00  8.809248870E+02  8.809248870E+02  0.000000000E+00  0.00000E+00  9.000E+00
      21    -1     0     0   501   502  0.000000000E+00  0.000000000E+00 -1.855058531E+03  1.855058531E+03  0.000000000E+00  0.00000E+00  9.000E+00
      25     1     1     2     0     0 -7.074716498E+02  7.361293347E+01 -1.412953505E+03  1.586819967E+03  1.250000000E+02  0.00000E+00  9.000E+00
      25     1     1     2     0     0  4.001803218E+02  1.263437479E+02 -1.437231306E+02  4.608561282E+02  1.250000000E+02  0.00000E+00  9.000E+00
      21     1     1     2   501   511  3.072913280E+02 -1.999566814E+02  5.825429914E+02  6.883073234E+02  1.321449896E-05  0.00000E+00  9.000E+00
#rwgt            2          11   4.1882661504282050E-003           6       93644           0
</event>
<event>
      5   9999  3.19816E-02  2.44544E+01 -1.00000E+00  1.59472E-01
      21    -1     0     0   502   501  0.000000000E+00  0.000000000E+00  4.592849918E+01  4.592849918E+01  0.000000000E+00  0.00000E+00  9.000E+00
      21    -1     0     0   501   512  0.000000000E+00  0.000000000E+00 -6.687217967E+02  6.687217967E+02  0.000000000E+00  0.00000E+00  9.000E+00
      25     1     1     2     0     0 -8.694865501E+01  1.888925092E+01 -2.279799192E+02  2.748030494E+02  1.250000000E+02  0.00000E+00  9.000E+00
      25     1     1     2     0     0  1.113926723E+02 -1.817587778E+01 -3.282369131E+02  3.689216192E+02  1.250000000E+02  0.00000E+00  9.000E+00
      21     1     1     2   502   512 -2.444401734E+01 -7.133731368E-01 -6.657646527E+01  7.092562733E+01  0.000000000E+00  0.00000E+00  9.000E+00
#rwgt            1           1   2.0379432549470521E-002           6       93664           0
</event>
<event>
      5   9999  3.19816E-02  9.12681E+01 -1.00000E+00  1.25639E-01
      21    -1     0     0   502   501  0.000000000E+00  0.000000000E+00  8.226039736E+02  8.226039736E+02  0.000000000E+00  0.00000E+00  9.000E+00
      21    -1     0     0   511   502  0.000000000E+00  0.000000000E+00 -8.583568423E+02  8.583568423E+02  0.000000000E+00  0.00000E+00  9.000E+00
      25     1     1     2     0     0 -5.270996437E+02 -2.348930602E+02 -2.375023096E+02  6.364284180E+02  1.250000000E+02  0.00000E+00  9.000E+00
      25     1     1     2     0     0  5.609511590E+02  3.196511467E+02  4.387603619E+02  7.905559522E+02  1.250000000E+02  0.00000E+00  9.000E+00
      21     1     1     2   511   501 -3.385151530E+01 -8.475808652E+01 -2.370109209E+02  2.539764457E+02  0.000000000E+00  0.00000E+00  9.000E+00
#rwgt            1           1   3.2420230983731362E-002           6       93790           0
</event>
<event>
      5   9999  3.19816E-02  9.48980E+01 -1.00000E+00  1.24860E-01
      21    -1     0     0   502   501  0.000000000E+00  0.000000000E+00  2.631792741E+02  2.631792741E+02  0.000000000E+00  0.00000E+00  9.000E+00
      21    -1     0     0   512   502  0.000000000E+00  0.000000000E+00 -1.067332097E+03  1.067332097E+03  0.000000000E+00  0.00000E+00  9.000E+00
      25     1     1     2     0     0 -2.969268621E+02 -9.212913978E+01  9.416579173E+01  3.480596733E+02  1.250000000E+02  0.00000E+00  9.000E+00
      25     1     1     2     0     0  2.022851072E+02  9.909768315E+01 -8.196688971E+02  8.591982986E+02  1.250000000E+02  0.00000E+00  9.000E+00
      21     1     1     2   512   501  9.464175492E+01 -6.968543370E+00 -7.864971752E+01  1.232533993E+02  1.651812370E-06  0.00000E+00  9.000E+00
#rwgt            1           1   2.8637396752194375E-002           6       93902           0
</event>
<event>
      5   9999  3.19816E-02  2.21505E+01 -1.00000E+00  1.62791E-01
      21    -1     0     0   502   501  0.000000000E+00  0.000000000E+00  1.337968699E+02  1.337968699E+02  0.000000000E+00  0.00000E+00  9.000E+00
      21    -1     0     0   501   511  0.000000000E+00  0.000000000E+00 -3.939338408E+02  3.939338408E+02  0.000000000E+00  0.00000E+00  9.000E+00
      25     1     1     2     0     0  1.034330168E+02  2.290918925E+01 -2.574141228E+02  3.051397230E+02  1.250000000E+02  0.00000E+00  9.000E+00
      25     1     1     2     0     0 -1.192061694E+02 -3.846076329E+01  3.352954444E+01  1.801071111E+02  1.250000000E+02  0.00000E+00  9.000E+00
      21     1     1     2   502   511  1.577315257E+01  1.555157403E+01 -3.625239257E+01  4.248387652E+01  4.768371582E-07  0.00000E+00  9.000E+00
#rwgt            1           1   2.5520348601818673E-002           6       93980           0
</event>
<event>
      5   9999  3.19816E-02  6.98139E+01 -1.00000E+00  1.31279E-01
      21    -1     0     0   502   512  0.000000000E+00  0.000000000E+00  1.516570885E+02  1.516570885E+02  0.000000000E+00  0.00000E+00  9.000E+00
      21    -1     0     0   501   502  0.000000000E+00  0.000000000E+00 -4.909465855E+02  4.909465855E+02  0.000000000E+00  0.00000E+00  9.000E+00
      25     1     1     2     0     0  7.876985938E+01  1.449989687E+02 -1.963255815E+02  2.853035675E+02  1.250000000E+02  0.00000E+00  9.000E+00
      25     1     1     2     0     0 -1.425865542E+02 -1.733081736E+02 -1.023115372E+02  2.765127468E+02  1.250000000E+02  0.00000E+00  9.000E+00
      21     1     1     2   501   512  6.381669481E+01  2.830920493E+01 -4.065237836E+01  8.078735970E+01  1.581489940E-06  0.00000E+00  9.000E+00
#rwgt            1           1   2.2727714960060083E-002           6       94102           0
</event>
<event>
      5   9999  3.19816E-02  2.32407E+01 -1.00000E+00  1.61162E-01
       2    -1     0     0   502     0  0.000000000E+00  0.000000000E+00  3.520877701E+02  3.520877701E+02  0.000000000E+00  0.00000E+00  9.000E+00
      21    -1     0     0   501   502  0.000000000E+00  0.000000000E+00 -1.031388169E+03  1.031388169E+03  0.000000000E+00  0.00000E+00  9.000E+00
      25     1     1     2     0     0 -5.353789651E+02  8.455549352E+01 -4.641438811E+02  7.244548365E+02  1.250000000E+02  0.00000E+00  9.000E+00
      25     1     1     2     0     0  5.555830326E+02 -7.306955863E+01 -2.423985767E+02  6.232124328E+02  1.250000000E+02  0.00000E+00  9.000E+00
       2     1     1     2   501     0 -2.020406744E+01 -1.148593490E+01  2.724205902E+01  3.580866964E+01  4.768371582E-07  0.00000E+00  9.000E+00
#rwgt            1           1   3.4238339836579319E-002           6       94176           0
</event>
<event>
      5   9999  3.19816E-02  2.65965E+01 -1.00000E+00  1.56763E-01
      21    -1     0     0   502   501  0.000000000E+00  0.000000000E+00  1.752734618E+03  1.752734618E+03  0.000000000E+00  0.00000E+00  9.000E+00
      21    -1     0     0   511   502  0.000000000E+00  0.000000000E+00 -7.504881804E+02  7.504881804E+02  0.000000000E+00  0.00000E+00  9.000E+00
      25     1     1     2     0     0  4.349330661E+02 -2.848614269E+02  2.497362839E+02  5.901745640E+02  1.250000000E+02  0.00000E+00  9.000E+00
      25     1     1     2     0     0 -4.515896294E+02  2.641266188E+02  1.278159032E+03  1.386726929E+03  1.250000000E+02  0.00000E+00  9.000E+00
      21     1     1     2   511   501  1.665656329E+01  2.073480810E+01 -5.256488783E+02  5.263213055E+02  1.078959322E-05  0.00000E+00  9.000E+00
#rwgt            1           1   2.4253033064172973E-002           6       94366           0
</event>
<event>
      5   9999  3.19816E-02  1.67376E+02 -1.00000E+00  1.14538E-01
      21    -1     0     0   512   501  0.000000000E+00  0.000000000E+00  3.046151097E+02  3.046151097E+02  0.000000000E+00  0.00000E+00  9.000E+00
      21    -1     0     0   501   502  0.000000000E+00  0.000000000E+00 -8.166114870E+02  8.166114870E+02  0.000000000E+00  0.00000E+00  9.000E+00
      25     1     1     2     0     0 -1.755675282E+02 -3.204165066E+02 -4.099674750E+02  5.631953704E+02  1.250000000E+02  0.00000E+00  9.000E+00
      25     1     1     2     0     0  2.963134047E+02  2.045066205E+02 -6.523666201E+01  3.866592993E+02  1.250000000E+02  0.00000E+00  9.000E+00
      21     1     1     2   512   502 -1.207458765E+02  1.159098861E+02 -3.679224029E+01  1.713719270E+02  3.337860107E-06  0.00000E+00  9.000E+00
#rwgt            2          11   4.3594841778708242E-003           6       94652           0
</event>
<event>
      5   9999  3.19816E-02  1.48148E+02 -1.00000E+00  1.16608E-01
      21    -1     0     0   502   501  0.000000000E+00  0.000000000E+00  2.604705351E+03  2.604705351E+03  0.000000000E+00  0.00000E+00  9.000E+00
      21    -1     0     0   501   511  0.000000000E+00  0.000000000E+00 -1.493734478E+02  1.493734478E+02  0.000000000E+00  0.00000E+00  9.000E+00
      25     1     1     2     0     0  2.751166940E+02 -3.917667603E+02  1.374912845E+03  1.461225759E+03  1.250000000E+02  0.00000E+00  9.000E+00
      25     1     1     2     0     0 -1.896591090E+02  5.127825299E+02  8.250326963E+02  9.976073630E+02  1.250000000E+02  0.00000E+00  9.000E+00
      21     1     1     2   502   511 -8.545758498E+01 -1.210157696E+02  2.553863619E+02  2.952456760E+02  6.031565972E-06  0.00000E+00  9.000E+00
#rwgt            1           1   3.0653794840297822E-002           6       94672           0
</event>
<event>
      5   9999  3.19816E-02  1.59412E+01 -1.00000E+00  1.74929E-01
      21    -1     0     0   512   501  0.000000000E+00  0.000000000E+00  5.842437992E+02  5.842437992E+02  0.000000000E+00  0.00000E+00  9.000E+00
      21    -1     0     0   501   502  0.000000000E+00  0.000000000E+00 -4.069964474E+02  4.069964474E+02  0.000000000E+00  0.00000E+00  9.000E+00
      25     1     1     2     0     0 -4.306077493E+02 -1.427806055E+02 -2.705302365E+01  4.713450978E+02  1.250000000E+02  0.00000E+00  9.000E+00
      25     1     1     2     0     0  4.169985467E+02  1.344793220E+02  1.780474146E+02  4.891813139E+02  1.250000000E+02  0.00000E+00  9.000E+00
      21     1     1     2   512   502  1.360920263E+01  8.301283460E+00  2.625296086E+01  3.071383495E+01  0.000000000E+00  0.00000E+00  9.000E+00
#rwgt            1           1   2.8103344251943069E-002           6       94743           0
</event>
<event>
      5   9999  3.19816E-02  3.80763E+01 -1.00000E+00  1.46180E-01
      21    -1     0     0   502   501  0.000000000E+00  0.000000000E+00  2.264313853E+02  2.264313853E+02  0.000000000E+00  0.00000E+00  9.000E+00
      21    -1     0     0   501   511  0.000000000E+00  0.000000000E+00 -5.203143788E+02  5.203143788E+02  0.000000000E+00  0.00000E+00  9.000E+00
      25     1     1     2     0     0  1.046534251E+01 -9.051195114E+01 -4.518018761E+01  1.611464739E+02  1.250000000E+02  0.00000E+00  9.000E+00
      25     1     1     2     0     0 -2.927385474E+00  5.318927951E+01  1.399646477E+02  1.950711964E+02  1.250000000E+02  0.00000E+00  9.000E+00
      21     1     1     2   502   511 -7.537957035E+00  3.732267163E+01 -3.886674536E+02  3.905280939E+02  5.394796609E-06  0.00000E+00  9.000E+00
#rwgt            1           1   3.0249422543007078E-002           6       94955           0
</event>
<event>
      5   9999  3.19816E-02  1.80124E+02 -1.00000E+00  1.13328E-01
       1    -1     0     0   502     0  0.000000000E+00  0.000000000E+00  8.720246022E+02  8.720246022E+02  0.000000000E+00  0.00000E+00  9.000E+00
      21    -1     0     0   501   502  0.000000000E+00  0.000000000E+00 -6.112896813E+02  6.112896813E+02  0.000000000E+00  0.00000E+00  9.000E+00
      25     1     1     2     0     0 -3.079797894E+02 -4.273333244E+02 -2.285243451E+02  5.876339822E+02  1.250000000E+02  0.00000E+00  9.000E+00
      25     1     1     2     0     0  1.842830742E+02  2.963986162E+02 -3.804904709E+00  3.707450181E+02  1.250000000E+02  0.00000E+00  9.000E+00
       1     1     1     2   501     0  1.236967152E+02  1.309347082E+02  4.930641707E+02  5.249352832E+02  5.394796609E-06  0.00000E+00  9.000E+00
#rwgt            2          17   5.1944359173684374E-004           6       95160           0
</event>
<event>
      5   9999  3.19816E-02  4.02019E+02 -1.00000E+00  1.01620E-01
      21    -1     0     0   502   501  0.000000000E+00  0.000000000E+00  7.722149351E+02  7.722149351E+02  0.000000000E+00  0.00000E+00  9.000E+00
      21    -1     0     0   511   502  0.000000000E+00  0.000000000E+00 -1.015918722E+03  1.015918722E+03  0.000000000E+00  0.00000E+00  9.000E+00
      25     1     1     2     0     0 -3.925524165E+01 -2.597591272E+02  4.274703201E+02  5.170799288E+02  1.250000000E+02  0.00000E+00  9.000E+00
      25     1     1     2     0     0  5.085371028E+01  6.616111020E+02 -3.816062069E+02  7.756053425E+02  1.250000000E+02  0.00000E+00  9.000E+00
      21     1     1     2   511   501 -1.159846863E+01 -4.018519748E+02 -2.895678998E+02  4.954483855E+02  6.607249480E-06  0.00000E+00  9.000E+00
#rwgt            2          11   2.6938543388653632E-003           6       95209           0
</event>
<event>
      5   9999  3.19816E-02  4.13966E+02 -1.00000E+00  1.01239E-01
      21    -1     0     0   502   512  0.000000000E+00  0.000000000E+00  2.232159591E+03  2.232159591E+03  0.000000000E+00  0.00000E+00  9.000E+00
      21    -1     0     0   501   502  0.000000000E+00  0.000000000E+00 -7.200873170E+02  7.200873170E+02  0.000000000E+00  0.00000E+00  9.000E+00
      25     1     1     2     0     0 -2.391485782E+02 -3.080614109E+01 -5.974108581E+02  6.562513194E+02  1.250000000E+02  0.00000E+00  9.000E+00
      25     1     1     2     0     0 -1.660888858E+02 -5.375509408E+01  8.714009878E+01  2.317186332E+02  1.250000000E+02  0.00000E+00  9.000E+00
      21     1     1     2   501   512  4.052374640E+02  8.456123517E+01  2.022343033E+03  2.064276955E+03  3.737624730E-05  0.00000E+00  9.000E+00
#rwgt            2          11   1.4441581358725777E-002           6       95304           0
</event>
<event>
      5   9999  3.19816E-02  6.08426E+01 -1.00000E+00  1.34381E-01
      21    -1     0     0   502   501  0.000000000E+00  0.000000000E+00  2.592839366E+02  2.592839366E+02  0.000000000E+00  0.00000E+00  9.000E+00
      21    -1     0     0   511   502  0.000000000E+00  0.000000000E+00 -8.198805343E+02  8.198805343E+02  0.000000000E+00  0.00000E+00  9.000E+00
      25     1     1     2     0     0  2.362313588E+02 -1.365451487E+02 -6.271334328E+02  6.952490022E+02  1.250000000E+02  0.00000E+00  9.000E+00
      25     1     1     2     0     0 -1.828575532E+02  1.657523643E+02  1.212828930E+02  3.020683220E+02  1.250000000E+02  0.00000E+00  9.000E+00
      21     1     1     2   511   501 -5.337380560E+01 -2.920721563E+01 -5.474605781E+01  8.184714665E+01  1.168007728E-06  0.00000E+00  9.000E+00
#rwgt            1           1   2.6535142201494350E-002           6       95339           0
</event>
<event>
      5   9999  3.19816E-02  6.08721E+01 -1.00000E+00  1.34369E-01
      21    -1     0     0   502   501  0.000000000E+00  0.000000000E+00  2.798021486E+02  2.798021486E+02  0.000000000E+00  0.00000E+00  9.000E+00
      21    -1     0     0   512   502  0.000000000E+00  0.000000000E+00 -7.436980375E+02  7.436980375E+02  0.000000000E+00  0.00000E+00  9.000E+00
      25     1     1     2     0     0  2.955786195E+02  1.199039948E+02  7.542384744E+01  3.507954462E+02  1.250000000E+02  0.00000E+00  9.000E+00
      25     1     1     2     0     0 -3.010994333E+02 -5.928279863E+01 -5.013566520E+02  6.009649004E+02  1.250000000E+02  0.00000E+00  9.000E+00
      21     1     1     2   512   501  5.520813785E+00 -6.062119622E+01 -3.796308428E+01  7.173983958E+01  6.743495762E-07  0.00000E+00  9.000E+00
#rwgt            1           1   3.0038997209646763E-002           6       95409           0
</event>
<event>
      5   9999  3.19816E-02  2.55699E+02 -1.00000E+00  1.07897E-01
      21    -1     0     0   502   501  0.000000000E+00  0.000000000E+00  1.530650352E+03  1.530650352E+03  0.000000000E+00  0.00000E+00  9.000E+00
      21    -1     0     0   501   511  0.000000000E+00  0.000000000E+00 -8.003578583E+02  8.003578583E+02  0.000000000E+00  0.00000E+00  9.000E+00
      25     1     1     2     0     0 -2.317119467E+02  2.254640942E+01  1.337057640E+03  1.362918523E+03  1.250000000E+02  0.00000E+00  9.000E+00
      25     1     1     2     0     0  4.815781369E+02  3.175627901E+01 -3.937467388E+02  6.352853355E+02  1.250000000E+02  0.00000E+00  9.000E+00
      21     1     1     2   502   511 -2.498661902E+02 -5.430268843E+01 -2.130184073E+02  3.328043522E+02  4.672030912E-06  0.00000E+00  9.000E+00
#rwgt            1           1   2.4624603069664696E-002           6       95540           0
</event>
<event>
      5   9999  3.75163E-02  8.60973E+01 -1.00000E+00  1.26824E-01
       2    -1     0     0   502     0  0.000000000E+00  0.000000000E+00  1.263880933E+03  1.263880933E+03  0.000000000E+00  0.00000E+00  9.000E+00
      21    -1     0     0   501   502  0.000000000E+00  0.000000000E+00 -1.169462476E+03  1.169462476E+03  0.000000000E+00  0.00000E+00  9.000E+00
      25     1     1     2     0     0  2.488028381E+02 -5.986324432E+02  1.004450434E+03  1.202002216E+03  1.250000000E+02  0.00000E+00  9.000E+00
      25     1     1     2     0     0 -3.293515408E+02  5.682244450E+02 -9.276454164E+02  1.143460745E+03  1.250000000E+02  0.00000E+00  9.000E+00
       2     1     1     2   501     0  8.054870269E+01  3.040799815E+01  1.761343997E+01  8.788044791E+01  1.450243599E-06  0.00000E+00  9.000E+00
#rwgt            1           1   8.6163624096694230E-002           6       95592           0
</event>
<event>
      5   9999  3.19816E-02  2.27171E+01 -1.00000E+00  1.61930E-01
      21    -1     0     0   502   511  0.000000000E+00  0.000000000E+00  2.805090160E+02  2.805090160E+02  0.000000000E+00  0.00000E+00  9.000E+00
      21    -1     0     0   501   502  0.000000000E+00  0.000000000E+00 -1.106529579E+03  1.106529579E+03  0.000000000E+00  0.00000E+00  9.000E+00
      25     1     1     2     0     0  3.622308207E+02  2.595061030E+02 -7.493175965E+02  8.807136001E+02  1.250000000E+02  0.00000E+00  9.000E+00
      25     1     1     2     0     0 -3.623482673E+02 -2.822229121E+02 -6.394552330E+01  4.802708287E+02  1.250000000E+02  0.00000E+00  9.000E+00
      21     1     1     2   501   511  1.174466141E-01  2.271680913E+01 -1.275744273E+01  2.605416580E+01  1.685873940E-07  0.00000E+00  9.000E+00
#rwgt            1           1   3.4441975310009559E-002           6       95728           0
</event>
<event>
      5   9999  3.19816E-02  4.04366E+01 -1.00000E+00  1.44548E-01
      21    -1     0     0   502   501  0.000000000E+00  0.000000000E+00  1.443284708E+03  1.443284708E+03  0.000000000E+00  0.00000E+00  9.000E+00
      21    -1     0     0   512   502  0.000000000E+00  0.000000000E+00 -2.360445684E+02  2.360445684E+02  0.000000000E+00  0.00000E+00  9.000E+00
      25     1     1     2     0     0 -8.372451049E+01  3.309945617E+01  1.366991145E+03  1.375643544E+03  1.250000000E+02  0.00000E+00  9.000E+00
      25     1     1     2     0     0  8.812234206E+01 -7.329621219E+01 -3.583753828E+01  1.733413137E+02  1.250000000E+02  0.00000E+00  9.000E+00
      21     1     1     2   512   501 -4.397831568E+00  4.019675602E+01 -1.239134676E+02  1.303444190E+02  3.015782986E-06  0.00000E+00  9.000E+00
#rwgt            1           1   2.8257467197425268E-002           6       95929           0
</event>
<event>
      5   9999  3.19816E-02  1.02114E+02 -1.00000E+00  1.23421E-01
      21    -1     0     0   502   501  0.000000000E+00  0.000000000E+00  5.157434261E+02  5.157434261E+02  0.000000000E+00  0.00000E+00  9.000E+00
      21    -1     0     0   511   502  0.000000000E+00  0.000000000E+00 -2.581551044E+02  2.581551044E+02  0.000000000E+00  0.00000E+00  9.000E+00
      25     1     1     2     0     0 -2.590828106E+02 -1.420120465E+02  1.405980264E+02  3.502629428E+02  1.250000000E+02  0.00000E+00  9.000E+00
      25     1     1     2     0     0  2.384937027E+02  4.199558973E+01  1.563643820E+02  3.141937233E+02  1.250000000E+02  0.00000E+00  9.000E+00
      21     1     1     2   511   501  2.058910791E+01  1.000164567E+02 -3.937408671E+01  1.094418644E+02  1.507891493E-06  0.00000E+00  9.000E+00
#rwgt            1           1   2.9311769513264876E-002           6       96052           0
</event>
<event>
      5   9999  3.19816E-02  1.07253E+01 -1.00000E+00  1.92307E-01
      21    -1     0     0   502   501  0.000000000E+00  0.000000000E+00  2.865589216E+02  2.865589216E+02  0.000000000E+00  0.00000E+00  9.000E+00
      21    -1     0     0   512   502  0.000000000E+00  0.000000000E+00 -3.523592379E+02  3.523592379E+02  0.000000000E+00  0.00000E+00  9.000E+00
      25     1     1     2     0     0  8.846986139E+01 -6.856840793E+01 -2.443421881E+02  2.964062210E+02  1.250000000E+02  0.00000E+00  9.000E+00
      25     1     1     2     0     0 -7.902105361E+01  7.364295706E+01  2.337692234E+02  2.862527936E+02  1.250000000E+02  0.00000E+00  9.000E+00
      21     1     1     2   512   501 -9.448807780E+00 -5.074549133E+00 -5.522735158E+01  5.625914485E+01  6.743495762E-07  0.00000E+00  9.000E+00
#rwgt            1           1   2.9401229703577392E-002           6       96116           0
</event>
<event>
      5   9999  3.19816E-02  5.26526E+01 -1.00000E+00  1.37807E-01
      21    -1     0     0   502   501  0.000000000E+00  0.000000000E+00  4.477652720E+02  4.477652720E+02  0.000000000E+00  0.00000E+00  9.000E+00
      21    -1     0     0   511   502  0.000000000E+00  0.000000000E+00 -1.682185611E+03  1.682185611E+03  0.000000000E+00  0.00000E+00  9.000E+00
      25     1     1     2     0     0 -7.448287514E+02  2.620767361E+02 -2.955979903E+02  8.523246192E+02  1.250000000E+02  0.00000E+00  9.000E+00
      25     1     1     2     0     0  7.107470215E+02 -2.219427628E+02 -6.884165352E+02  1.021744706E+03  1.250000000E+02  0.00000E+00  9.000E+00
      21     1     1     2   511   501  3.408172996E+01 -4.013397333E+01 -2.504058135E+02  2.558815577E+02  3.814697266E-06  0.00000E+00  9.000E+00
#rwgt            1           1   2.6134422245414887E-002           6       96302           0
</event>
<event>
      5   9999  3.19816E-02  7.54719E+01 -1.00000E+00  1.29586E-01
      21    -1     0     0   502   501  0.000000000E+00  0.000000000E+00  1.396576706E+02  1.396576706E+02  0.000000000E+00  0.00000E+00  9.000E+00
      21    -1     0     0   512   502  0.000000000E+00  0.000000000E+00 -1.541930444E+03  1.541930444E+03  0.000000000E+00  0.00000E+00  9.000E+00
      25     1     1     2     0     0  3.714742687E+02 -4.704487243E+01 -2.700092127E+02  4.782638678E+02  1.250000000E+02  0.00000E+00  9.000E+00
      25     1     1     2     0     0 -2.985312036E+02  6.641808516E+01 -8.783990000E+02  9.384785798E+02  1.250000000E+02  0.00000E+00  9.000E+00
      21     1     1     2   512   501 -7.294306506E+01 -1.937321273E+01 -2.538645606E+02  2.648456669E+02  2.697398305E-06  0.00000E+00  9.000E+00
#rwgt            2          11   2.7211594035341613E-003           6       96796           0
</event>
<event>
      5   9999  3.19816E-02  5.52007E+02 -1.00000E+00  9.76463E-02
      21    -1     0     0   502   501  0.000000000E+00  0.000000000E+00  4.447631543E+02  4.447631543E+02  0.000000000E+00  0.00000E+00  9.000E+00
      21    -1     0     0   501   511  0.000000000E+00  0.000000000E+00 -1.347701681E+03  1.347701681E+03  0.000000000E+00  0.00000E+00  9.000E+00
      25     1     1     2     0     0 -3.733575711E+01 -1.893879152E+02 -3.446079775E+02  4.142962700E+02  1.250000000E+02  0.00000E+00  9.000E+00
      25     1     1     2     0     0  8.044930911E+00 -3.618412472E+02  2.064222429E+02  4.350045419E+02  1.250000000E+02  0.00000E+00  9.000E+00
      21     1     1     2   502   511  2.929082620E+01  5.512291624E+02 -7.647527923E+02  9.431640235E+02  1.078959322E-05  0.00000E+00  9.000E+00
#rwgt            2          11   1.9266041955746497E-003           6       96831           0
</event>
<event>
      5   9999  3.19816E-02  6.28181E+02 -1.00000E+00  9.61155E-02
      21    -1     0     0   502   501  0.000000000E+00  0.000000000E+00  7.473609046E+02  7.473609046E+02  0.000000000E+00  0.00000E+00  9.000E+00
       2    -1     0     0   501     0  0.000000000E+00  0.000000000E+00 -8.006292594E+02  8.006292594E+02  0.000000000E+00  0.00000E+00  9.000E+00
      25     1     1     2     0     0 -9.798609970E+01 -2.886547199E+02 -2.954428346E+02  4.425316842E+02  1.250000000E+02  0.00000E+00  9.000E+00
      25     1     1     2     0     0  1.877536540E+02 -3.330790979E+02  2.565518109E+02  4.771131435E+02  1.250000000E+02  0.00000E+00  9.000E+00
       2     1     1     2   502     0 -8.976755431E+01  6.217338177E+02 -1.437733104E+01  6.283453362E+02  1.129661345E-05  0.00000E+00  9.000E+00
#rwgt            2          13   3.4118356300167095E-004           6       96911           0
</event>
<event>
      5   9999  3.19816E-02  2.36349E+02 -1.00000E+00  1.09070E-01
       2    -1     0     0   502     0  0.000000000E+00  0.000000000E+00  3.981409385E+03  3.981409385E+03  0.000000000E+00  0.00000E+00  9.000E+00
      21    -1     0     0   501   502  0.000000000E+00  0.000000000E+00 -6.197781494E+02  6.197781494E+02  0.000000000E+00  0.00000E+00  9.000E+00
      25     1     1     2     0     0 -1.635271247E+02 -6.412814013E+01  4.233945553E+01  2.197070057E+02  1.250000000E+02  0.00000E+00  9.000E+00
      25     1     1     2     0     0  2.772345159E+02  2.713274944E+02 -4.486539144E+02  6.061294589E+02  1.250000000E+02  0.00000E+00  9.000E+00
       2     1     1     2   501     0 -1.137073912E+02 -2.071993542E+02  3.767945694E+03  3.775351069E+03  7.475249459E-05  0.00000E+00  9.000E+00
#rwgt            1           1   2.8703772065807407E-002           6       96960           0
</event>
<event>
      5   9999  3.19816E-02  4.43991E+01 -1.00000E+00  1.42085E-01
      21    -1     0     0   511   501  0.000000000E+00  0.000000000E+00  7.731021724E+01  7.731021724E+01  0.000000000E+00  0.00000E+00  9.000E+00
      21    -1     0     0   501   502  0.000000000E+00  0.000000000E+00 -7.096619076E+02  7.096619076E+02  0.000000000E+00  0.00000E+00  9.000E+00
      25     1     1     2     0     0 -2.575669644E+01  1.743248869E+02 -1.942947578E+02  2.905650125E+02  1.250000000E+02  0.00000E+00  9.000E+00
      25     1     1     2     0     0  4.054295704E+00 -1.355913879E+02 -3.872137229E+02  4.289066669E+02  1.250000000E+02  0.00000E+00  9.000E+00
      21     1     1     2   511   502  2.170240074E+01 -3.873349907E+01 -5.084320973E+01  6.750044535E+01  1.168007728E-06  0.00000E+00  9.000E+00
#rwgt            1           1   2.9977475669241496E-002           6       97010           0
</event>
<event>
      5   9999  3.19816E-02  4.13489E+01 -1.00000E+00  1.43952E-01
      21    -1     0     0   502   501  0.000000000E+00  0.000000000E+00  1.156602292E+03  1.156602292E+03  0.000000000E+00  0.00000E+00  9.000E+00
      21    -1     0     0   512   502  0.000000000E+00  0.000000000E+00 -1.200264671E+02  1.200264671E+02  0.000000000E+00  0.00000E+00  9.000E+00
      25     1     1     2     0     0 -1.049952158E+02  2.156713626E+01 -2.187808198E+01  1.661107678E+02  1.250000000E+02  0.00000E+00  9.000E+00
      25     1     1     2     0     0  1.438794157E+02 -7.504836812E+00  1.051412056E+03  1.068573779E+03  1.250000000E+02  0.00000E+00  9.000E+00
      21     1     1     2   512   501 -3.888419988E+01 -1.406229945E+01  7.041850301E+00  4.194421202E+01  4.298152060E-07  0.00000E+00  9.000E+00
#rwgt            1           1   2.7374152657671465E-002           6       97092           0
</event>
<event>
      5   9999  3.19816E-02  3.72021E+01 -1.00000E+00  1.46821E-01
      21    -1     0     0   502   501  0.000000000E+00  0.000000000E+00  1.487348484E+03  1.487348484E+03  0.000000000E+00  0.00000E+00  9.000E+00
      21    -1     0     0   501   511  0.000000000E+00  0.000000000E+00 -1.303946555E+02  1.303946555E+02  0.000000000E+00  0.00000E+00  9.000E+00
      25     1     1     2     0     0 -1.613722087E+02 -9.183119279E+01  1.310066504E+03  1.329049736E+03  1.250000000E+02  0.00000E+00  9.000E+00
      25     1     1     2     0     0  1.543008415E+02  5.530738503E+01  9.574217764E+01  2.272866496E+02  1.250000000E+02  0.00000E+00  9.000E+00
      21     1     1     2   502   511  7.071367265E+00  3.652380776E+01 -4.885485261E+01  6.140675363E+01  2.336015456E-06  0.00000E+00  9.000E+00
#rwgt            1           1   2.9457758105377024E-002           6       97144           0
</event>
<event>
      5   9999  3.19816E-02  3.27173E+01 -1.00000E+00  1.50470E-01
      21    -1     0     0   512   501  0.000000000E+00  0.000000000E+00  6.572546677E+02  6.572546677E+02  0.000000000E+00  0.00000E+00  9.000E+00
      21    -1     0     0   501   502  0.000000000E+00  0.000000000E+00 -1.636846129E+02  1.636846129E+02  0.000000000E+00  0.00000E+00  9.000E+00
      25     1     1     2     0     0 -1.381541855E+02  4.242123230E+01  1.043112191E+02  2.176969691E+02  1.250000000E+02  0.00000E+00  9.000E+00
      25     1     1     2     0     0  1.292963145E+02 -1.092580863E+01 -3.004857876E+01  1.826604153E+02  1.250000000E+02  0.00000E+00  9.000E+00
      21     1     1     2   512   502  8.857871087E+00 -3.149542367E+01  4.193074145E+02  4.205818962E+02  0.000000000E+00  0.00000E+00  9.000E+00
#rwgt            1           1   2.8607405478743991E-002           6       97315           0
</event>
<event>
      5   9999  3.19816E-02  2.02732E+01 -1.00000E+00  1.65884E-01
      21    -1     0     0   502   501  0.000000000E+00  0.000000000E+00  1.921610743E+02  1.921610743E+02  0.000000000E+00  0.00000E+00  9.000E+00
      21    -1     0     0   511   502  0.000000000E+00  0.000000000E+00 -4.850435594E+02  4.850435594E+02  0.000000000E+00  0.00000E+00  9.000E+00
      25     1     1     2     0     0 -5.127180226E+01  6.512282120E+01  1.189148263E+02  1.914040633E+02  1.250000000E+02  0.00000E+00  9.000E+00
      25     1     1     2     0     0  6.748113266E+01 -5.294654307E+01 -1.201181452E+02  1.934177047E+02  1.250000000E+02  0.00000E+00  9.000E+00
      21     1     1     2   511   501 -1.620933040E+01 -1.217627813E+01 -2.916791662E+02  2.923828657E+02  0.000000000E+00  0.00000E+00  9.000E+00
#rwgt            1           1   2.9058007402007268E-002           6       97423           0
</event>
<event>
      5   9999  3.19816E-02  6.58852E+01 -1.00000E+00  1.32567E-01
      21    -1     0     0   502   501  0.000000000E+00  0.000000000E+00  1.047206962E+03  1.047206962E+03  0.000000000E+00  0.00000E+00  9.000E+00
      21    -1     0     0   501   512  0.000000000E+00  0.000000000E+00 -7.810752572E+02  7.810752572E+02  0.000000000E+00  0.00000E+00  9.000E+00
      25     1     1     2     0     0  5.575897483E+01 -1.189205994E+02  2.475939543E+02  3.068858720E+02  1.250000000E+02  0.00000E+00  9.000E+00
      25     1     1     2     0     0 -1.067270110E+02  7.716985974E+01  7.577762470E+02  7.792276192E+02  1.250000000E+02  0.00000E+00  9.000E+00
      21     1     1     2   502   512  5.096803620E+01  4.175073967E+01 -7.392384968E+02  7.421687276E+02  0.000000000E+00  0.00000E+00  9.000E+00
#rwgt            1           1   2.7391732367802128E-002           6       97507           0
</event>
<event>
      5   9999  3.19816E-02  6.32297E+01 -1.00000E+00  1.33498E-01
      21    -1     0     0   502   501  0.000000000E+00  0.000000000E+00  1.987950104E+02  1.987950104E+02  0.000000000E+00  0.00000E+00  9.000E+00
      21    -1     0     0   511   502  0.000000000E+00  0.000000000E+00 -6.433717183E+02  6.433717183E+02  0.000000000E+00  0.00000E+00  9.000E+00
      25     1     1     2     0     0 -7.102156039E+00  8.886858030E+01 -4.973480519E+02  5.205075887E+02  1.250000000E+02  0.00000E+00  9.000E+00
      25     1     1     2     0     0  2.071862840E+01 -1.506147122E+02  1.190754185E+02  2.300391453E+02  1.250000000E+02  0.00000E+00  9.000E+00
      21     1     1     2   511   501 -1.361647236E+01  6.174613189E+01 -6.630407455E+01  9.161999468E+01  9.536743164E-07  0.00000E+00  9.000E+00
#rwgt            1           1   2.4382686105379813E-002           6       97574           0
</event>
<event>
      5   9999  3.19816E-02  4.36146E+01 -1.00000E+00  1.42548E-01
       1    -1     0     0   502     0  0.000000000E+00  0.000000000E+00  2.923512540E+03  2.923512540E+03  0.000000000E+00  0.00000E+00  9.000E+00
      21    -1     0     0   501   502  0.000000000E+00  0.000000000E+00 -5.713790976E+02  5.713790976E+02  0.000000000E+00  0.00000E+00  9.000E+00
      25     1     1     2     0     0  3.217722398E+02 -4.449848911E+02  7.549062061E+02  9.418371980E+02  1.250000000E+02  0.00000E+00  9.000E+00
      25     1     1     2     0     0 -3.519493731E+02  4.764741090E+02 -2.858300275E+02  6.694921526E+02  1.250000000E+02  0.00000E+00  9.000E+00
       1     1     1     2   501     0  3.017713324E+01 -3.148921793E+01  1.883057263E+03  1.883562287E+03  3.051757812E-05  0.00000E+00  9.000E+00
#rwgt            2          17   5.6858950027942714E-004           6       97765           0
</event>
<event>
      5   9999  3.19816E-02  7.86086E+01 -1.00000E+00  1.28719E-01
      21    -1     0     0   511   501  0.000000000E+00  0.000000000E+00  1.097467140E+02  1.097467140E+02  0.000000000E+00  0.00000E+00  9.000E+00
      21    -1     0     0   501   502  0.000000000E+00  0.000000000E+00 -2.549204328E+03  2.549204328E+03  0.000000000E+00  0.00000E+00  9.000E+00
      25     1     1     2     0     0  1.475739681E+01 -4.847601153E+02 -1.371781435E+03  1.460349087E+03  1.250000000E+02  0.00000E+00  9.000E+00
      25     1     1     2     0     0  5.353352008E+01  4.458286911E+02 -9.144240057E+02  1.026365102E+03  1.250000000E+02  0.00000E+00  9.000E+00
      21     1     1     2   511   502 -6.829091689E+01  3.893142418E+01 -1.532521738E+02  1.722368541E+02  1.907348633E-06  0.00000E+00  9.000E+00
#rwgt            1           1   2.2640307026915711E-002           6       97814           0
</event>
<event>
      5   9999  3.19816E-02  5.20023E+01 -1.00000E+00  1.38110E-01
      21    -1     0     0   502   501  0.000000000E+00  0.000000000E+00  5.775489262E+02  5.775489262E+02  0.000000000E+00  0.00000E+00  9.000E+00
       2    -1     0     0   501     0  0.000000000E+00  0.000000000E+00 -2.222296811E+03  2.222296811E+03  0.000000000E+00  0.00000E+00  9.000E+00
      25     1     1     2     0     0  4.989826492E+01  5.946748410E+02 -2.487198223E+02  6.584941559E+02  1.250000000E+02  0.00000E+00  9.000E+00
      25     1     1     2     0     0 -9.101902028E+01 -6.265074989E+02  9.251100719E+01  6.519044368E+02  1.250000000E+02  0.00000E+00  9.000E+00
       2     1     1     2   502     0  4.112075535E+01  3.183265789E+01 -1.488539069E+03  1.489447144E+03  3.051757812E-05  0.00000E+00  9.000E+00
#rwgt            1           1   2.9279916309954260E-002           6       97887           0
</event>
<event>
      5   9999  3.19816E-02  1.44754E+02 -1.00000E+00  1.17010E-01
      21    -1     0     0   502   511  0.000000000E+00  0.000000000E+00  2.024706262E+02  2.024706262E+02  0.000000000E+00  0.00000E+00  9.000E+00
      21    -1     0     0   501   502  0.000000000E+00  0.000000000E+00 -6.044679708E+02  6.044679708E+02  0.000000000E+00  0.00000E+00  9.000E+00
      25     1     1     2     0     0 -9.406202787E+01  8.128410087E+01 -3.916988295E+02  4.295436453E+02  1.250000000E+02  0.00000E+00  9.000E+00
      25     1     1     2     0     0  5.635385640E+00 -1.958900875E+02 -9.543560066E+00  2.326386973E+02  1.250000000E+02  0.00000E+00  9.000E+00
      21     1     1     2   501   511  8.842664223E+01  1.146059866E+02 -7.549549551E-01  1.447562544E+02  2.047025833E-06  0.00000E+00  9.000E+00
#rwgt            1           1   2.7877381731993653E-002           6       98034           0
</event>
<event>
      5   9999  3.19816E-02  1.56186E+02 -1.00000E+00  1.15702E-01
       3    -1     0     0   502     0  0.000000000E+00  0.000000000E+00  5.507685585E+02  5.507685585E+02  0.000000000E+00  0.00000E+00  9.000E+00
      21    -1     0     0   501   502  0.000000000E+00  0.000000000E+00 -4.284078871E+02  4.284078871E+02  0.000000000E+00  0.00000E+00  9.000E+00
      25     1     1     2     0     0  3.027628164E+02  9.124369657E+01  8.133337893E+01  3.496152938E+02  1.250000000E+02  0.00000E+00  9.000E+00
      25     1     1     2     0     0 -4.006976988E+02 -2.129099697E+02  1.267909487E+01  4.708238105E+02  1.250000000E+02  0.00000E+00  9.000E+00
       3     1     1     2   501     0  9.793488247E+01  1.216662731E+02  2.834819757E+01  1.587373413E+02  2.261837239E-06  0.00000E+00  9.000E+00
#rwgt            1           1   2.9030046065665133E-002           6       98134           0
</event>
<event>
      5   9999  3.19816E-02  5.02370E+01 -1.00000E+00  1.38958E-01
      21    -1     0     0   502   511  0.000000000E+00  0.000000000E+00  1.066894270E+02  1.066894270E+02  0.000000000E+00  0.00000E+00  9.000E+00
      21    -1     0     0   501   502  0.000000000E+00  0.000000000E+00 -6.967757959E+02  6.967757959E+02  0.000000000E+00  0.00000E+00  9.000E+00
      25     1     1     2     0     0 -1.253548503E+02 -5.640526117E+01 -1.948371178E+02  2.692246171E+02  1.250000000E+02  0.00000E+00  9.000E+00
      25     1     1     2     0     0  9.383421015E+01  9.552306308E+01 -4.338177720E+02  4.709059077E+02  1.250000000E+02  0.00000E+00  9.000E+00
      21     1     1     2   501   511  3.152064012E+01 -3.911780191E+01  3.856852086E+01  6.333469808E+01  1.784161275E-06  0.00000E+00  9.000E+00
#rwgt            1           1   3.1541060676998009E-002           6       98235           0
</event>
<event>
      5   9999  3.19816E-02  6.95768E+01 -1.00000E+00  1.31354E-01
      21    -1     0     0   512   501  0.000000000E+00  0.000000000E+00  2.360097252E+03  2.360097252E+03  0.000000000E+00  0.00000E+00  9.000E+00
      21    -1     0     0   501   502  0.000000000E+00  0.000000000E+00 -2.160000815E+02  2.160000815E+02  0.000000000E+00  0.00000E+00  9.000E+00
      25     1     1     2     0     0 -8.045563736E+01  4.309564613E+02  9.076482532E+01  4.648223689E+02  1.250000000E+02  0.00000E+00  9.000E+00
      25     1     1     2     0     0  7.720492032E+01 -3.614556322E+02  1.935488098E+03  1.974423955E+03  1.250000000E+02  0.00000E+00  9.000E+00
      21     1     1     2   512   502  3.250717039E+00 -6.950082907E+01  1.178442465E+02  1.368510096E+02  0.000000000E+00  0.00000E+00  9.000E+00
#rwgt            1           1   2.7427101898580688E-002           6       98323           0
</event>
<event>
      5   9999  3.19816E-02  4.88743E+01 -1.00000E+00  1.39642E-01
      21    -1     0     0   511   501  0.000000000E+00  0.000000000E+00  6.151024649E+02  6.151024649E+02  0.000000000E+00  0.00000E+00  9.000E+00
      21    -1     0     0   501   502  0.000000000E+00  0.000000000E+00 -1.711750964E+03  1.711750964E+03  0.000000000E+00  0.00000E+00  9.000E+00
      25     1     1     2     0     0  1.609780312E+02  9.962568175E+02 -6.901259475E+02  1.228959070E+03  1.250000000E+02  0.00000E+00  9.000E+00
      25     1     1     2     0     0 -1.392603500E+02 -9.524727613E+02 -3.926466135E+02  1.047088425E+03  1.250000000E+02  0.00000E+00  9.000E+00
      21     1     1     2   511   502 -2.171768119E+01 -4.378405612E+01 -1.387593788E+01  5.080593369E+01  2.920019320E-07  0.00000E+00  9.000E+00
#rwgt            1           1   3.7064920449208227E-002           6       98429           0
</event>
<event>
      5   9999  3.19816E-02  5.65617E+01 -1.00000E+00  1.36087E-01
      21    -1     0     0   502   501  0.000000000E+00  0.000000000E+00  1.140208482E+03  1.140208482E+03  0.000000000E+00  0.00000E+00  9.000E+00
      -1    -1     0     0     0   502  0.000000000E+00  0.000000000E+00 -4.687480582E+02  4.687480582E+02  0.000000000E+00  0.00000E+00  9.000E+00
      25     1     1     2     0     0 -3.484658683E+02 -1.500262530E+02  7.028958996E+02  8.084701501E+02  1.250000000E+02  0.00000E+00  9.000E+00
      25     1     1     2     0     0  2.961451648E+02  1.285374337E+02  3.037530001E+02  4.605591336E+02  1.250000000E+02  0.00000E+00  9.000E+00
      -1     1     1     2     0   501  5.232070348E+01  2.148881927E+01 -3.351884759E+02  3.399272565E+02  0.000000000E+00  0.00000E+00  9.000E+00
#rwgt            1           1   2.9099132611455716E-002           6       98588           0
</event>
<event>
      5   9999  3.19816E-02  4.39594E+01 -1.00000E+00  1.42343E-01
      21    -1     0     0   511   501  0.000000000E+00  0.000000000E+00  2.743503237E+02  2.743503237E+02  0.000000000E+00  0.00000E+00  9.000E+00
      21    -1     0     0   501   502  0.000000000E+00  0.000000000E+00 -9.217554823E+02  9.217554823E+02  0.000000000E+00  0.00000E+00  9.000E+00
      25     1     1     2     0     0 -2.896482800E+02 -3.634009484E+02 -4.615791386E+02  6.668108252E+02  1.250000000E+02  0.00000E+00  9.000E+00
      25     1     1     2     0     0  2.652630146E+02  3.268251637E+02 -2.008341930E+02  4.828442063E+02  1.250000000E+02  0.00000E+00  9.000E+00
      21     1     1     2   511   502  2.438526536E+01  3.657578477E+01  1.500817285E+01  4.645077449E+01  7.348554138E-07  0.00000E+00  9.000E+00
#rwgt            1           1   2.4838416743536148E-002           6       98710           0
</event>
<event>
      5   9999  3.19816E-02  5.13002E+01 -1.00000E+00  1.38442E-01
      21    -1     0     0   502   501  0.000000000E+00  0.000000000E+00  2.238772408E+02  2.238772408E+02  0.000000000E+00  0.00000E+00  9.000E+00
      21    -1     0     0   512   502  0.000000000E+00  0.000000000E+00 -4.560513273E+02  4.560513273E+02  0.000000000E+00  0.00000E+00  9.000E+00
      25     1     1     2     0     0  1.758202355E+02 -1.074147060E+02 -2.908460000E+02  3.777129465E+02  1.250000000E+02  0.00000E+00  9.000E+00
      25     1     1     2     0     0 -1.378823569E+02  1.419463249E+02  7.899936543E+01  2.470348219E+02  1.250000000E+02  0.00000E+00  9.000E+00
      21     1     1     2   512   501 -3.793787865E+01 -3.453161897E+01 -2.032745196E+01  5.518079963E+01  4.129530925E-07  0.00000E+00  9.000E+00
#rwgt            1           1   2.7149387238224954E-002           6       98875           0
</event>
<event>
      5   9999  3.19816E-02  1.52333E+02 -1.00000E+00  1.16129E-01
      21    -1     0     0   511   501  0.000000000E+00  0.000000000E+00  2.378067615E+02  2.378067615E+02  0.000000000E+00  0.00000E+00  9.000E+00
      21    -1     0     0   501   502  0.000000000E+00  0.000000000E+00 -1.807902663E+03  1.807902663E+03  0.000000000E+00  0.00000E+00  9.000E+00
      25     1     1     2     0     0  4.537380284E+02  2.475977572E+02 -1.159638991E+03  1.275762688E+03  1.250000000E+02  0.00000E+00  9.000E+00
      25     1     1     2     0     0 -3.199017278E+02 -1.748436473E+02 -4.687480470E+02  6.068419464E+02  1.250000000E+02  0.00000E+00  9.000E+00
      21     1     1     2   511   502 -1.338363006E+02 -7.275410990E+01  5.829113630E+01  1.631047897E+02  1.507891493E-06  0.00000E+00  9.000E+00
#rwgt            1           1   2.7036209028543798E-002           6       98963           0
</event>
<event>
      5   9999  3.19816E-02  1.17411E+02 -1.00000E+00  1.20772E-01
      21    -1     0     0   502   501  0.000000000E+00  0.000000000E+00  7.498723874E+02  7.498723874E+02  0.000000000E+00  0.00000E+00  9.000E+00
      21    -1     0     0   501   512  0.000000000E+00  0.000000000E+00 -1.175044489E+02  1.175044489E+02  0.000000000E+00  0.00000E+00  9.000E+00
      25     1     1     2     0     0  4.229192084E+01  1.347616897E+02  9.043238880E+01  2.091705919E+02  1.250000000E+02  0.00000E+00  9.000E+00
      25     1     1     2     0     0 -1.420343341E+02 -7.281959767E+01  4.891036698E+02  5.294561792E+02  1.250000000E+02  0.00000E+00  9.000E+00
      21     1     1     2   502   512  9.974241329E+01 -6.194209199E+01  5.283187983E+01  1.287500652E+02  2.523185073E-06  0.00000E+00  9.000E+00
#rwgt            1           1   2.6796616340296241E-002           6       99011           0
</event>
<event>
      5   9999  3.19816E-02  6.35732E+01 -1.00000E+00  1.33374E-01
       2    -1     0     0   502     0  0.000000000E+00  0.000000000E+00  6.130537066E+02  6.130537066E+02  0.000000000E+00  0.00000E+00  9.000E+00
      21    -1     0     0   501   502  0.000000000E+00  0.000000000E+00 -8.532541545E+02  8.532541545E+02  0.000000000E+00  0.00000E+00  9.000E+00
      25     1     1     2     0     0 -1.869650670E+01  4.758656578E+02 -3.146095432E+02  5.842960280E+02  1.250000000E+02  0.00000E+00  9.000E+00
      25     1     1     2     0     0 -4.365180391E+01 -4.882849992E+02 -2.409096356E+02  5.603482604E+02  1.250000000E+02  0.00000E+00  9.000E+00
       2     1     1     2   501     0  6.234831061E+01  1.241934140E+01  3.153187310E+02  3.216635727E+02  7.629394531E-06  0.00000E+00  9.000E+00
#rwgt            1           1   3.1121552014837725E-002           6       99054           0
</event>
<event>
      5   9999  3.19816E-02  2.15399E+01 -1.00000E+00  1.63754E-01
      21    -1     0     0   502   501  0.000000000E+00  0.000000000E+00  1.310175786E+03  1.310175786E+03  0.000000000E+00  0.00000E+00  9.000E+00
      21    -1     0     0   501   511  0.000000000E+00  0.000000000E+00 -2.799373950E+02  2.799373950E+02  0.000000000E+00  0.00000E+00  9.000E+00
      25     1     1     2     0     0  1.415928540E+02  1.071477978E+02  1.067796681E+03  1.089653128E+03  1.250000000E+02  0.00000E+00  9.000E+00
      25     1     1     2     0     0 -1.511254496E+02 -8.783202970E+01  1.809276480E+02  2.809148995E+02  1.250000000E+02  0.00000E+00  9.000E+00
      21     1     1     2   502   511  9.532595528E+00 -1.931576810E+01 -2.184859382E+02  2.195451536E+02  0.000000000E+00  0.00000E+00  9.000E+00
#rwgt            1           1   2.0488208087641811E-002           6       99138           0
</event>
<event>
      5   9999  3.19816E-02  3.36985E+01 -1.00000E+00  1.49614E-01
      21    -1     0     0   512   501  0.000000000E+00  0.000000000E+00  2.606861355E+03  2.606861355E+03  0.000000000E+00  0.00000E+00  9.000E+00
      21    -1     0     0   501   502  0.000000000E+00  0.000000000E+00 -8.927196423E+01  8.927196423E+01  0.000000000E+00  0.00000E+00  9.000E+00
      25     1     1     2     0     0  1.736718566E+01 -1.473049813E+02  3.084215026E+01  1.964093045E+02  1.250000000E+02  0.00000E+00  9.000E+00
      25     1     1     2     0     0 -4.871807227E+01  1.349474582E+02  2.384205551E+03  2.391787068E+03  1.250000000E+02  0.00000E+00  9.000E+00
      21     1     1     2   512   502  3.135088661E+01  1.235752317E+01  1.025416886E+02  1.079369463E+02  1.348699152E-06  0.00000E+00  9.000E+00
#rwgt            2          11   3.4493623585609805E-002           6       99350           0
</event>
<event>
      5   9999  3.19816E-02  2.46825E+02 -1.00000E+00  1.08420E-01
       1    -1     0     0   502     0  0.000000000E+00  0.000000000E+00  1.060722490E+03  1.060722490E+03  0.000000000E+00  0.00000E+00  9.000E+00
      21    -1     0     0   501   502  0.000000000E+00  0.000000000E+00 -2.148875298E+02  2.148875298E+02  0.000000000E+00  0.00000E+00  9.000E+00
      25     1     1     2     0     0  7.138684973E+01 -1.066682257E+02  2.856689553E+02  3.372031208E+02  1.250000000E+02  0.00000E+00  9.000E+00
      25     1     1     2     0     0  1.488413978E+01  3.379257067E+02  4.021714429E+01  3.628467164E+02  1.250000000E+02  0.00000E+00  9.000E+00
       1     1     1     2   501     0 -8.627098950E+01 -2.312574810E+02  5.199488605E+02  5.755601825E+02  1.078959322E-05  0.00000E+00  9.000E+00
#rwgt            1           1   2.9969899063629339E-002           6       99370           0
</event>
<event>
      5   9999  3.19816E-02  4.03200E+01 -1.00000E+00  1.44626E-01
      21    -1     0     0   502   501  0.000000000E+00  0.000000000E+00  1.617364504E+02  1.617364504E+02  0.000000000E+00  0.00000E+00  9.000E+00
      21    -1     0     0   501   511  0.000000000E+00  0.000000000E+00 -3.688059922E+02  3.688059922E+02  0.000000000E+00  0.00000E+00  9.000E+00
      25     1     1     2     0     0  7.567498303E+01  4.788638456E+01 -2.630756247E+02  3.047188757E+02  1.250000000E+02  0.00000E+00  9.000E+00
      25     1     1     2     0     0 -3.599415621E+01 -4.073542916E+01  9.778985663E+01  1.677581906E+02  1.250000000E+02  0.00000E+00  9.000E+00
      21     1     1     2   502   511 -3.968082682E+01 -7.150955400E+00 -4.178377371E+01  5.806537631E+01  4.768371582E-07  0.00000E+00  9.000E+00
#rwgt            1           1   2.6594796912763334E-002           6       99405           0
</event>
<event>
      5   9999  3.19816E-02  1.08257E+02 -1.00000E+00  1.22298E-01
      21    -1     0     0   502   512  0.000000000E+00  0.000000000E+00  2.025119266E+03  2.025119266E+03  0.000000000E+00  0.00000E+00  9.000E+00
      21    -1     0     0   501   502  0.000000000E+00  0.000000000E+00 -7.546625529E+01  7.546625529E+01  0.000000000E+00  0.00000E+00  9.000E+00
      25     1     1     2     0     0 -1.893752939E+02  1.827834835E+02  4.300794509E+02  5.194864174E+02  1.250000000E+02  0.00000E+00  9.000E+00
      25     1     1     2     0     0  1.308394079E+02 -2.738502540E+02  1.117696471E+03  1.164896267E+03  1.250000000E+02  0.00000E+00  9.000E+00
      21     1     1     2   501   512  5.853588596E+01  9.106677058E+01  4.018770886E+02  4.162028363E+02  0.000000000E+00  0.00000E+00  9.000E+00
#rwgt            1           1   3.1262762556130454E-002           6       99494           0
</event>
<event>
      5   9999  3.19816E-02  6.28994E+01 -1.00000E+00  1.33617E-01
      21    -1     0     0   502   511  0.000000000E+00  0.000000000E+00  6.461479002E+02  6.461479002E+02  0.000000000E+00  0.00000E+00  9.000E+00
      21    -1     0     0   501   502  0.000000000E+00  0.000000000E+00 -8.760744862E+01  8.760744862E+01  0.000000000E+00  0.00000E+00  9.000E+00
      25     1     1     2     0     0  7.721337471E+00 -1.093591344E+02  1.776277663E+02  2.433015879E+02  1.250000000E+02  0.00000E+00  9.000E+00
      25     1     1     2     0     0 -6.275779759E+01  1.398110306E+02  1.421667865E+02  2.435612051E+02  1.250000000E+02  0.00000E+00  9.000E+00
      21     1     1     2   501   511  5.503646012E+01 -3.045189623E+01  2.387458988E+02  2.468925558E+02  4.672030912E-06  0.00000E+00  9.000E+00
#rwgt            1           1   2.8633662974991980E-002           6       99560           0
</event>
<event>
      5   9999  3.19816E-02  6.37794E+01 -1.00000E+00  1.33301E-01
      21    -1     0     0   502   501  0.000000000E+00  0.000000000E+00  7.432437310E+02  7.432437310E+02  0.000000000E+00  0.00000E+00  9.000E+00
      21    -1     0     0   501   512  0.000000000E+00  0.000000000E+00 -6.736356799E+02  6.736356799E+02  0.000000000E+00  0.00000E+00  9.000E+00
      25     1     1     2     0     0 -1.899532818E+02  2.844457739E+02  5.681108011E+02  6.748085135E+02  1.250000000E+02  0.00000E+00  9.000E+00
      25     1     1     2     0     0  2.408337466E+02 -3.229034546E+02 -2.606454110E+02  4.958110172E+02  1.250000000E+02  0.00000E+00  9.000E+00
      21     1     1     2   502   512 -5.088046481E+01  3.845768068E+01 -2.378573390E+02  2.462598802E+02  3.814697266E-06  0.00000E+00  9.000E+00
#rwgt            1           1   2.3533081964445868E-002           6       99619           0
</event>
<event>
      5   9999  3.19816E-02  1.93871E+02 -1.00000E+00  1.12142E-01
      -2    -1     0     0     0   501  0.000000000E+00  0.000000000E+00  2.283231773E+03  2.283231773E+03  0.000000000E+00  0.00000E+00  9.000E+00
      21    -1     0     0   501   502  0.000000000E+00  0.000000000E+00 -3.317330969E+03  3.317330969E+03  0.000000000E+00  0.00000E+00  9.000E+00
      25     1     1     2     0     0  9.546832672E+02  2.114984940E+02 -4.214409493E+02  1.072095717E+03  1.250000000E+02  0.00000E+00  9.000E+00
      25     1     1     2     0     0 -8.715461725E+02 -3.635853848E+01 -2.489901162E+03  2.641239760E+03  1.250000000E+02  0.00000E+00  9.000E+00
      -2     1     1     2     0   502 -8.313709466E+01 -1.751399555E+02  1.877242916E+03  1.887227264E+03  4.315837288E-05  0.00000E+00  9.000E+00
#rwgt            1           1   5.1287432375920712E-002           6       99758           0
</event>
<event>
      5   9999  3.19816E-02  9.10496E+01 -1.00000E+00  1.25688E-01
      21    -1     0     0   502   501  0.000000000E+00  0.000000000E+00  3.862050956E+02  3.862050956E+02  0.000000000E+00  0.00000E+00  9.000E+00
      21    -1     0     0   501   511  0.000000000E+00  0.000000000E+00 -2.634178356E+02  2.634178356E+02  0.000000000E+00  0.00000E+00  9.000E+00
      25     1     1     2     0     0 -1.915582136E+01 -1.810389449E+02 -1.335035730E+02  2.580508653E+02  1.250000000E+02  0.00000E+00  9.000E+00
      25     1     1     2     0     0 -4.780619739E+01  1.193452243E+02  2.391732960E+02  2.989273835E+02  1.250000000E+02  0.00000E+00  9.000E+00
      21     1     1     2   502   511  6.696201875E+01  6.169372055E+01  1.711753693E+01  9.264468242E+01  1.599360450E-06  0.00000E+00  9.000E+00
#rwgt            1           1   2.6258322950463511E-002           6       99852           0
</event>
<event>
      5   9999  3.19816E-02  1.32077E+02 -1.00000E+00  1.18627E-01
      21    -1     0     0   512   501  0.000000000E+00  0.000000000E+00  1.187771096E+02  1.187771096E+02  0.000000000E+00  0.00000E+00  9.000E+00
      21    -1     0     0   501   502  0.000000000E+00  0.000000000E+00 -8.447834886E+02  8.447834886E+02  0.000000000E+00  0.00000E+00  9.000E+00
      25     1     1     2     0     0 -1.390550673E+02  2.030405984E+01 -6.066239029E+02  6.351111133E+02  1.250000000E+02  0.00000E+00  9.000E+00
      25     1     1     2     0     0  3.123862937E+01  5.598536795E+01 -1.357591380E+02  1.953605819E+02  1.250000000E+02  0.00000E+00  9.000E+00
      21     1     1     2   512   502  1.078164379E+02 -7.628942779E+01  1.637666196E+01  1.330889031E+02  3.006343892E-06  0.00000E+00  9.000E+00
#rwgt            1           1   3.0144016986747148E-002           6       99990           0
</event>
<event>
      5   9999  3.19816E-02  1.35848E+01 -1.00000E+00  1.81536E-01
      21    -1     0     0   502   511  0.000000000E+00  0.000000000E+00  2.234866033E+02  2.234866033E+02  0.000000000E+00  0.00000E+00  9.000E+00
      21    -1     0     0   501   502  0.000000000E+00  0.000000000E+00 -3.813531338E+02  3.813531338E+02  0.000000000E+00  0.00000E+00  9.000E+00
      25     1     1     2     0     0  8.070146380E+01 -6.989282563E+01 -3.103142574E+02  3.511661597E+02  1.250000000E+02  0.00000E+00  9.000E+00
      25     1     1     2     0     0 -9.149922605E+01  6.164933094E+01  8.940759021E+01  1.891863250E+02  1.250000000E+02  0.00000E+00  9.000E+00
      21     1     1     2   501   511  1.079776225E+01  8.243494681E+00  6.304013681E+01  6.448725241E+01  0.000000000E+00  0.00000E+00  9.000E+00
#rwgt            1           1   2.7732648839204243E-002           6      100043           0
</event>
<event>
      5   9999  3.19816E-02  2.42586E+01 -1.00000E+00  1.59736E-01
      21    -1     0     0   502   512  0.000000000E+00  0.000000000E+00  1.434520415E+03  1.434520415E+03  0.000000000E+00  0.00000E+00  9.000E+00
      21    -1     0     0   501   502  0.000000000E+00  0.000000000E+00 -4.372498941E+01  4.372498941E+01  0.000000000E+00  0.00000E+00  9.000E+00
      25     1     1     2     0     0  1.718486337E+02  1.433541660E+01  5.432584441E+02  5.835170899E+02  1.250000000E+02  0.00000E+00  9.000E+00
      25     1     1     2     0     0 -1.575887727E+02  5.289419251E+00  4.119347394E+02  4.584511193E+02  1.250000000E+02  0.00000E+00  9.000E+00
      21     1     1     2   501   512 -1.425986093E+01 -1.962483586E+01  4.356022425E+02  4.362771957E+02  5.394796609E-06  0.00000E+00  9.000E+00
#rwgt            1           1   2.8427778827682843E-002           6      100179           0
</event>
<event>
      5   9999  3.19816E-02  9.91300E+01 -1.00000E+00  1.23999E-01
      21    -1     0     0   511   501  0.000000000E+00  0.000000000E+00  5.912266688E+02  5.912266688E+02  0.000000000E+00  0.00000E+00  9.000E+00
      21    -1     0     0   501   502  0.000000000E+00  0.000000000E+00 -2.222883114E+02  2.222883114E+02  0.000000000E+00  0.00000E+00  9.000E+00
      25     1     1     2     0     0 -1.210197605E+02  1.789552760E+02  1.744407650E+02  3.045083804E+02  1.250000000E+02  0.00000E+00  9.000E+00
      25     1     1     2     0     0  1.985982456E+02 -1.172434945E+02 -2.957760990E+01  2.639832100E+02  1.250000000E+02  0.00000E+00  9.000E+00
      21     1     1     2   511   502 -7.757848508E+01 -6.171178147E+01  2.240752022E+02  2.450233898E+02  0.000000000E+00  0.00000E+00  9.000E+00
#rwgt            1           1   2.8357318707930110E-002           6      100305           0
</event>
<event>
      5   9999  3.19816E-02  3.34456E+01 -1.00000E+00  1.49831E-01
      21    -1     0     0   512   501  0.000000000E+00  0.000000000E+00  5.746952803E+02  5.746952803E+02  0.000000000E+00  0.00000E+00  9.000E+00
      21    -1     0     0   501   502  0.000000000E+00  0.000000000E+00 -1.436147697E+02  1.436147697E+02  0.000000000E+00  0.00000E+00  9.000E+00
      25     1     1     2     0     0  2.099844831E+02  6.178026735E+00  1.125528026E+02  2.691185325E+02  1.250000000E+02  0.00000E+00  9.000E+00
      25     1     1     2     0     0 -2.429097014E+02 -1.205519177E+01  2.399858240E+02  3.638250217E+02  1.250000000E+02  0.00000E+00  9.000E+00
      21     1     1     2   512   502  3.292521832E+01  5.877165038E+00  7.854188391E+01  8.536649576E+01  0.000000000E+00  0.00000E+00  9.000E+00
#rwgt            1           1   3.0446991590304947E-002           6      100397           0
</event>
<event>
      5   9999  3.19816E-02  3.07784E+02 -1.00000E+00  1.05232E-01
      21    -1     0     0   502   501  0.000000000E+00  0.000000000E+00  2.204105056E+03  2.204105056E+03  0.000000000E+00  0.00000E+00  9.000E+00
      21    -1     0     0   501   511  0.000000000E+00  0.000000000E+00 -1.886158328E+02  1.886158328E+02  0.000000000E+00  0.00000E+00  9.000E+00
      25     1     1     2     0     0 -1.433514465E+02  4.328281971E+02  8.457200552E+02  9.688948845E+02  1.250000000E+02  0.00000E+00  9.000E+00
      25     1     1     2     0     0 -1.639263888E+02 -4.504811564E+02  8.188903776E+02  9.570849407E+02  1.250000000E+02  0.00000E+00  9.000E+00
      21     1     1     2   502   511  3.072778353E+02  1.765295927E+01  3.508787908E+02  4.667410641E+02  7.629394531E-06  0.00000E+00  9.000E+00
#rwgt            1           1   3.7109961535750996E-002           6      100519           0
</event>
<event>
      5   9999  3.19816E-02  3.19371E+02 -1.00000E+00  1.04717E-01
      21    -1     0     0   502   501  0.000000000E+00  0.000000000E+00  2.021086097E+02  2.021086097E+02  0.000000000E+00  0.00000E+00  9.000E+00
       2    -1     0     0   501     0  0.000000000E+00  0.000000000E+00 -4.036438077E+03  4.036438077E+03  0.000000000E+00  0.00000E+00  9.000E+00
      25     1     1     2     0     0  1.727981482E+02 -9.332569477E+00 -1.610073497E+02  2.673848603E+02  1.250000000E+02  0.00000E+00  9.000E+00
      25     1     1     2     0     0 -4.670966495E+02  1.333727005E+02 -3.035499265E+02  5.862892760E+02  1.250000000E+02  0.00000E+00  9.000E+00
       2     1     1     2   502     0  2.942985013E+02 -1.240401310E+02 -3.369772192E+03  3.384872551E+03  0.000000000E+00  0.00000E+00  9.000E+00
#rwgt            2          13   1.2374373559213558E-003           6      100631           0
</event>
<event>
      5   9999  3.19816E-02  3.25091E+02 -1.00000E+00  1.04471E-01
      21    -1     0     0   502   511  0.000000000E+00  0.000000000E+00  1.156873688E+02  1.156873688E+02  0.000000000E+00  0.00000E+00  9.000E+00
      21    -1     0     0   501   502  0.000000000E+00  0.000000000E+00 -1.972746309E+03  1.972746309E+03  0.000000000E+00  0.00000E+00  9.000E+00
      25     1     1     2     0     0  1.279709077E+01  1.746486247E+01 -3.979003742E+01  1.329550075E+02  1.250000000E+02  0.00000E+00  9.000E+00
      25     1     1     2     0     0 -3.314480660E+02  4.692366014E+01 -1.266304684E+03  1.315755373E+03  1.250000000E+02  0.00000E+00  9.000E+00
      21     1     1     2   501   511  3.186509752E+02 -6.438852261E+01 -5.509642188E+02  6.397232966E+02  7.629394531E-06  0.00000E+00  9.000E+00
#rwgt            1           1   2.7889996024675696E-002           6      100650           0
</event>
<event>
      5   9999  3.19816E-02  6.45692E+00 -1.00000E+00  2.20633E-01
      21    -1     0     0   512   501  0.000000000E+00  0.000000000E+00  9.104663632E+02  9.104663632E+02  0.000000000E+00  0.00000E+00  9.000E+00
      21    -1     0     0   501   502  0.000000000E+00  0.000000000E+00 -1.290267461E+02  1.290267461E+02  0.000000000E+00  0.00000E+00  9.000E+00
      25     1     1     2     0     0 -1.522862662E+02 -2.360110977E+02  3.603585167E+02  4.736830223E+02  1.250000000E+02  0.00000E+00  9.000E+00
      25     1     1     2     0     0  1.507873089E+02  2.297305802E+02  2.428057441E+02  3.874178382E+02  1.250000000E+02  0.00000E+00  9.000E+00
      21     1     1     2   512   502  1.498957288E+00  6.280517553E+00  1.782753563E+02  1.783922489E+02  2.697398305E-06  0.00000E+00  9.000E+00
#rwgt            1           1   2.7575786030373795E-002           6      100706           0
</event>
<event>
      5   9999  3.19816E-02  3.54367E+01 -1.00000E+00  1.48180E-01
      21    -1     0     0   502   501  0.000000000E+00  0.000000000E+00  1.131177318E+03  1.131177318E+03  0.000000000E+00  0.00000E+00  9.000E+00
      21    -1     0     0   511   502  0.000000000E+00  0.000000000E+00 -1.092196895E+02  1.092196895E+02  0.000000000E+00  0.00000E+00  9.000E+00
      25     1     1     2     0     0 -1.707827945E+02  1.505572574E+02  6.431415938E+02  6.936067765E+02  1.250000000E+02  0.00000E+00  9.000E+00
      25     1     1     2     0     0  2.011575476E+02 -1.688092826E+02  4.078856320E+02  5.009557083E+02  1.250000000E+02  0.00000E+00  9.000E+00
      21     1     1     2   511   501 -3.037475311E+01  1.825202511E+01 -2.906959694E+01  4.583452316E+01  5.840038640E-07  0.00000E+00  9.000E+00
#rwgt            1           1   2.4536129195603065E-002           6      100910           0
</event>
<event>
      5   9999  3.19816E-02  8.59004E+01 -1.00000E+00  1.26871E-01
      21    -1     0     0   502   501  0.000000000E+00  0.000000000E+00  1.165389093E+02  1.165389093E+02  0.000000000E+00  0.00000E+00  9.000E+00
      21    -1     0     0   501   512  0.000000000E+00  0.000000000E+00 -5.503736837E+02  5.503736837E+02  0.000000000E+00  0.00000E+00  9.000E+00
      25     1     1     2     0     0 -1.764681090E+02 -9.732251866E+01 -2.295437407E+02  3.300424139E+02  1.250000000E+02  0.00000E+00  9.000E+00
      25     1     1     2     0     0  1.104057434E+02  4.241683255E+01 -9.090963485E+01  1.946231681E+02  1.250000000E+02  0.00000E+00  9.000E+00
      21     1     1     2   502   512  6.606236558E+01  5.490568611E+01 -1.133813989E+02  1.422470110E+02  1.348699152E-06  0.00000E+00  9.000E+00
#rwgt            1           1   2.5347303097051528E-002           6      101050           0
</event>
<event>
      5   9999  3.19816E-02  1.09138E+02 -1.00000E+00  1.22144E-01
      21    -1     0     0   502   501  0.000000000E+00  0.000000000E+00  2.046735784E+03  2.046735784E+03  0.000000000E+00  0.00000E+00  9.000E+00
      21    -1     0     0   511   502  0.000000000E+00  0.000000000E+00 -5.665874592E+02  5.665874592E+02  0.000000000E+00  0.00000E+00  9.000E+00
      25     1     1     2     0     0 -6.212092411E+02 -6.557949401E+02  1.102737620E+03  1.430951845E+03  1.250000000E+02  0.00000E+00  9.000E+00
      25     1     1     2     0     0  7.223820260E+02  6.967245917E+02  3.414139451E+02  1.067449966E+03  1.250000000E+02  0.00000E+00  9.000E+00
      21     1     1     2   511   501 -1.011727850E+02 -4.092965161E+01  3.599675972E+01  1.149214319E+02  2.185142372E-06  0.00000E+00  9.000E+00
#rwgt            1           1   2.5698747760140344E-002           6      101126           0
</event>
<event>
      5   9999  3.19816E-02  7.13789E+01 -1.00000E+00  1.30793E-01
      21    -1     0     0   502   501  0.000000000E+00  0.000000000E+00  2.391928428E+02  2.391928428E+02  0.000000000E+00  0.00000E+00  9.000E+00
      21    -1     0     0   512   502  0.000000000E+00  0.000000000E+00 -2.565979711E+03  2.565979711E+03  0.000000000E+00  0.00000E+00  9.000E+00
      25     1     1     2     0     0  2.807356108E+02  2.917638671E+02 -1.105071997E+03  1.183531899E+03  1.250000000E+02  0.00000E+00  9.000E+00
      25     1     1     2     0     0 -3.496511770E+02 -2.731736987E+02 -6.829465403E+01  4.660139214E+02  1.250000000E+02  0.00000E+00  9.000E+00
      21     1     1     2   512   501  6.891556618E+01 -1.859016841E+01 -1.153420218E+03  1.155626734E+03  2.157918644E-05  0.00000E+00  9.000E+00
#rwgt            2          11   8.1617241263929122E-004           6      101230           0
</event>
<event>
      5   9999  3.19816E-02  9.15145E+01 -1.00000E+00  1.25585E-01
      21    -1     0     0   502   501  0.000000000E+00  0.000000000E+00  1.224591988E+03  1.224591988E+03  0.000000000E+00  0.00000E+00  9.000E+00
      21    -1     0     0   511   502  0.000000000E+00  0.000000000E+00 -4.762442056E+02  4.762442056E+02  0.000000000E+00  0.00000E+00  9.000E+00
      25     1     1     2     0     0 -3.374389193E+02  3.754899453E+02 -2.681185011E+01  5.207701975E+02  1.250000000E+02  0.00000E+00  9.000E+00
      25     1     1     2     0     0  3.160979866E+02 -2.864985331E+02  9.125008030E+02  1.015028109E+03  1.250000000E+02  0.00000E+00  9.000E+00
      21     1     1     2   511   501  2.134093273E+01 -8.899141224E+01 -1.373411708E+02  1.650378868E+02  2.697398305E-06  0.00000E+00  9.000E+00
#rwgt            1           1   3.0705571954858166E-002           6      101250           0
</event>
<event>
      5   9999  3.19816E-02  5.73455E+01 -1.00000E+00  1.35762E-01
      21    -1     0     0   502   501  0.000000000E+00  0.000000000E+00  1.246010873E+03  1.246010873E+03  0.000000000E+00  0.00000E+00  9.000E+00
      21    -1     0     0   501   512  0.000000000E+00  0.000000000E+00 -1.264442482E+03  1.264442482E+03  0.000000000E+00  0.00000E+00  9.000E+00
      25     1     1     2     0     0  1.192701079E+03 -7.148559475E+01 -2.874601449E+02  1.235275026E+03  1.250000000E+02  0.00000E+00  9.000E+00
      25     1     1     2     0     0 -1.179821272E+03  1.560516402E+01  2.735592996E+02  1.217654075E+03  1.250000000E+02  0.00000E+00  9.000E+00
      21     1     1     2   502   512 -1.287980657E+01  5.588043072E+01 -4.530763991E+00  5.752425382E+01  3.318646170E-07  0.00000E+00  9.000E+00
#rwgt            1           1   6.2977324040438321E-002           6      101357           0
</event>
<event>
      5   9999  3.19816E-02  2.58767E+01 -1.00000E+00  1.57638E-01
      21    -1     0     0   502   501  0.000000000E+00  0.000000000E+00  3.337544254E+02  3.337544254E+02  0.000000000E+00  0.00000E+00  9.000E+00
       2    -1     0     0   501     0  0.000000000E+00  0.000000000E+00 -3.161510463E+03  3.161510463E+03  0.000000000E+00  0.00000E+00  9.000E+00
      25     1     1     2     0     0 -1.662225115E+02  1.064155944E+02  2.636719203E+02  3.522812564E+02  1.250000000E+02  0.00000E+00  9.000E+00
      25     1     1     2     0     0  1.908186698E+02 -1.144550844E+02 -6.076580360E+02  6.590789177E+02  1.250000000E+02  0.00000E+00  9.000E+00
       2     1     1     2   502     0 -2.459615826E+01  8.039490083E+00 -2.483769922E+03  2.483904715E+03  0.000000000E+00  0.00000E+00  9.000E+00
#rwgt            1           1   2.7452756909682456E-002           6      101565           0
</event>
<event>
      5   9999  3.19816E-02  3.20975E+01 -1.00000E+00  1.51029E-01
      21    -1     0     0   502   501  0.000000000E+00  0.000000000E+00  2.135272294E+02  2.135272294E+02  0.000000000E+00  0.00000E+00  9.000E+00
      21    -1     0     0   501   511  0.000000000E+00  0.000000000E+00 -2.511673902E+02  2.511673902E+02  0.000000000E+00  0.00000E+00  9.000E+00
      25     1     1     2     0     0  4.916438101E+01  6.391101476E-01  1.573714775E+02  2.069017321E+02  1.250000000E+02  0.00000E+00  9.000E+00
      25     1     1     2     0     0 -3.245618175E+01  2.676682672E+01 -1.777849783E+02  2.213647787E+02  1.250000000E+02  0.00000E+00  9.000E+00
      21     1     1     2   502   511 -1.670819926E+01 -2.740593687E+01 -1.722665987E+01  3.642810876E+01  8.920806376E-07  0.00000E+00  9.000E+00
#rwgt            1           1   2.6387146138696999E-002           6      101735           0
</event>
<event>
      5   9999  3.19816E-02  1.73667E+01 -1.00000E+00  1.71592E-01
       2    -1     0     0   502     0  0.000000000E+00  0.000000000E+00  1.250976479E+03  1.250976479E+03  0.000000000E+00  0.00000E+00  9.000E+00
      21    -1     0     0   501   502  0.000000000E+00  0.000000000E+00 -3.097073620E+02  3.097073620E+02  0.000000000E+00  0.00000E+00  9.000E+00
      25     1     1     2     0     0  1.127102280E+02  8.031183721E+01  1.781986483E+02  2.579405842E+02  1.250000000E+02  0.00000E+00  9.000E+00
      25     1     1     2     0     0 -1.261242854E+02 -6.928159554E+01 -2.360901275E+02  3.034317438E+02  1.250000000E+02  0.00000E+00  9.000E+00
       2     1     1     2   501     0  1.341405741E+01 -1.103024167E+01  9.991605960E+02  9.993115129E+02  1.078959322E-05  0.00000E+00  9.000E+00
#rwgt            1           1   2.5680625911747128E-002           6      101851           0
</event>
<event>
      5   9999  3.19816E-02  1.81905E+01 -1.00000E+00  1.69840E-01
      21    -1     0     0   502   501  0.000000000E+00  0.000000000E+00  1.559158135E+03  1.559158135E+03  0.000000000E+00  0.00000E+00  9.000E+00
      21    -1     0     0   511   502  0.000000000E+00  0.000000000E+00 -3.532959253E+02  3.532959253E+02  0.000000000E+00  0.00000E+00  9.000E+00
      25     1     1     2     0     0  3.121507332E+02 -5.868787078E+02  8.118344065E+02  1.056676299E+03  1.250000000E+02  0.00000E+00  9.000E+00
      25     1     1     2     0     0 -3.043832397E+02  5.704299499E+02  4.495541312E+02  7.973477292E+02  1.250000000E+02  0.00000E+00  9.000E+00
      21     1     1     2   511   501 -7.767493582E+00  1.644875789E+01 -5.552632765E+01  5.843003213E+01  1.784161275E-06  0.00000E+00  9.000E+00
#rwgt            2          11   4.9283579705532128E-003           6      102007           0
</event>
<event>
      5   9999  3.19816E-02  4.17225E+01 -1.00000E+00  1.43714E-01
      21    -1     0     0   502   501  0.000000000E+00  0.000000000E+00  1.949037520E+03  1.949037520E+03  0.000000000E+00  0.00000E+00  9.000E+00
      21    -1     0     0   512   502  0.000000000E+00  0.000000000E+00 -6.816866031E+01  6.816866031E+01  0.000000000E+00  0.00000E+00  9.000E+00
      25     1     1     2     0     0 -4.938850219E+01  2.548189956E+00  2.964223409E+01  1.376567451E+02  1.250000000E+02  0.00000E+00  9.000E+00
      25     1     1     2     0     0  1.677378148E+01  2.347193926E+01  1.826603636E+03  1.831102983E+03  1.250000000E+02  0.00000E+00  9.000E+00
      21     1     1     2   512   501  3.261472072E+01 -2.602012922E+01  2.462299010E+01  4.844645264E+01  9.536743164E-07  0.00000E+00  9.000E+00
#rwgt            1           1   3.0002328729266586E-002           6      102087           0
</event>
<event>
      5   9999  3.19816E-02  1.04662E+02 -1.00000E+00  1.22944E-01
      21    -1     0     0   502   501  0.000000000E+00  0.000000000E+00  3.581192248E+02  3.581192248E+02  0.000000000E+00  0.00000E+00  9.000E+00
      21    -1     0     0   511   502  0.000000000E+00  0.000000000E+00 -1.931976767E+02  1.931976767E+02  0.000000000E+00  0.00000E+00  9.000E+00
      25     1     1     2     0     0 -2.790792678E+01  8.059559198E+01 -8.594183636E+01  1.740272998E+02  1.250000000E+02  0.00000E+00  9.000E+00
      25     1     1     2     0     0  6.423192484E+01  1.756052650E+01  2.306964572E+02  2.707027292E+02  1.250000000E+02  0.00000E+00  9.000E+00
      21     1     1     2   511   501 -3.632399806E+01 -9.815611848E+01  2.016692728E+01  1.065868725E+02  1.283923342E-06  0.00000E+00  9.000E+00
#rwgt            1           1   2.4501019093750152E-002           6      102210           0
</event>
<event>
      5   9999  3.19816E-02  3.48437E+01 -1.00000E+00  1.48658E-01
      21    -1     0     0   502   501  0.000000000E+00  0.000000000E+00  3.396057138E+01  3.396057138E+01  0.000000000E+00  0.00000E+00  9.000E+00
      21    -1     0     0   501   512  0.000000000E+00  0.000000000E+00 -1.897372430E+03  1.897372430E+03  0.000000000E+00  0.00000E+00  9.000E+00
      25     1     1     2     0     0 -1.519415859E+02 -1.139064322E+02 -5.498004466E+02  5.949507978E+02  1.250000000E+02  0.00000E+00  9.000E+00
      25     1     1     2     0     0  1.173399701E+02  1.180062416E+02 -1.045456384E+03  1.065972886E+03  1.250000000E+02  0.00000E+00  9.000E+00
      21     1     1     2   502   512  3.460161579E+01 -4.099809369E+00 -2.681550278E+02  2.704093178E+02  3.814697266E-06  0.00000E+00  9.000E+00
#rwgt            1           1   2.8247649163668856E-002           6      102312           0
</event>
<event>
      5   9999  3.19816E-02  1.75637E+02 -1.00000E+00  1.13741E-01
      21    -1     0     0   502   501  0.000000000E+00  0.000000000E+00  1.760384809E+03  1.760384809E+03  0.000000000E+00  0.00000E+00  9.000E+00
      21    -1     0     0   511   502  0.000000000E+00  0.000000000E+00 -5.194557508E+02  5.194557508E+02  0.000000000E+00  0.00000E+00  9.000E+00
      25     1     1     2     0     0  1.211746478E+02 -6.396392770E+01  1.703463591E+03  1.713530824E+03  1.250000000E+02  0.00000E+00  9.000E+00
      25     1     1     2     0     0  5.446093966E+01  6.453041558E+01 -2.252098120E+02  2.710620370E+02  1.250000000E+02  0.00000E+00  9.000E+00
      21     1     1     2   511   501 -1.756355875E+02 -5.664878789E-01 -2.373247208E+02  2.952476987E+02  6.031565972E-06  0.00000E+00  9.000E+00
#rwgt            2          11   5.2177449279542602E-003           6      102820           0
</event>
<event>
      5   9999  3.19816E-02  2.67743E+02 -1.00000E+00  1.07222E-01
      21    -1     0     0   502   501  0.000000000E+00  0.000000000E+00  1.831149366E+03  1.831149366E+03  0.000000000E+00  0.00000E+00  9.000E+00
      -1    -1     0     0     0   502  0.000000000E+00  0.000000000E+00 -4.645375101E+02  4.645375101E+02  0.000000000E+00  0.00000E+00  9.000E+00
      25     1     1     2     0     0  9.523759628E+01 -8.994407307E+01  1.593693882E+03  1.603946796E+03  1.250000000E+02  0.00000E+00  9.000E+00
      25     1     1     2     0     0  1.252645791E+02 -6.192838587E+01  1.424092571E+02  2.354394535E+02  1.250000000E+02  0.00000E+00  9.000E+00
      -1     1     1     2     0   501 -2.205021754E+02  1.518724589E+02 -3.694912832E+02  4.563006262E+02  9.344061824E-06  0.00000E+00  9.000E+00
#rwgt            1           1   4.3298307074543359E-002           6      102855           0
</event>
<event>
      5   9999  3.19816E-02  6.73575E+02 -1.00000E+00  9.53094E-02
      21    -1     0     0   502   501  0.000000000E+00  0.000000000E+00  7.096825693E+02  7.096825693E+02  0.000000000E+00  0.00000E+00  9.000E+00
       2    -1     0     0   501     0  0.000000000E+00  0.000000000E+00 -2.290633758E+03  2.290633758E+03  0.000000000E+00  0.00000E+00  9.000E+00
      25     1     1     2     0     0 -4.164208318E+02 -3.037557996E+02  2.767476493E+02  5.982375417E+02  1.250000000E+02  0.00000E+00  9.000E+00
      25     1     1     2     0     0  2.759574507E+02 -3.550111439E+02 -4.569819368E+01  4.689336326E+02  1.250000000E+02  0.00000E+00  9.000E+00
       2     1     1     2   502     0  1.404633811E+02  6.587669435E+02 -1.812000644E+03  1.933145153E+03  0.000000000E+00  0.00000E+00  9.000E+00
#rwgt            2          13   2.5374037489445766E-003           6      102919           0
</event>
<event>
      5   9999  3.19816E-02  1.61699E+01 -1.00000E+00  1.74365E-01
      21    -1     0     0   502   501  0.000000000E+00  0.000000000E+00  8.627131176E+01  8.627131176E+01  0.000000000E+00  0.00000E+00  9.000E+00
      21    -1     0     0   501   511  0.000000000E+00  0.000000000E+00 -9.683443623E+02  9.683443623E+02  0.000000000E+00  0.00000E+00  9.000E+00
      25     1     1     2     0     0  4.320340708E+01  1.839166417E+02 -5.246569975E+02  5.714733857E+02  1.250000000E+02  0.00000E+00  9.000E+00
      25     1     1     2     0     0 -5.619977142E+01 -1.742958776E+02 -1.338552621E+02  2.589974873E+02  1.250000000E+02  0.00000E+00  9.000E+00
      21     1     1     2   502   511  1.299636434E+01 -9.620764064E+00 -2.235607910E+02  2.241448011E+02  0.000000000E+00  0.00000E+00  9.000E+00
#rwgt            1           1   3.1191953388219014E-002           6      102968           0
</event>
<event>
      5   9999  3.19816E-02  2.39133E+02 -1.00000E+00  1.08894E-01
      21    -1     0     0   502   512  0.000000000E+00  0.000000000E+00  2.566242304E+02  2.566242304E+02  0.000000000E+00  0.00000E+00  9.000E+00
      21    -1     0     0   501   502  0.000000000E+00  0.000000000E+00 -2.565095837E+03  2.565095837E+03  0.000000000E+00  0.00000E+00  9.000E+00
      25     1     1     2     0     0 -4.213642935E+02  1.958735530E+02 -4.889869775E+02  6.860375943E+02  1.250000000E+02  0.00000E+00  9.000E+00
      25     1     1     2     0     0  1.865285965E+02 -1.507423110E+02 -1.871514839E+03  1.890954509E+03  1.250000000E+02  0.00000E+00  9.000E+00
      21     1     1     2   501   512  2.348356970E+02 -4.513124198E+01  5.203021018E+01  2.447279640E+02  8.148196931E-06  0.00000E+00  9.000E+00
#rwgt            1           1   2.4531344974427282E-002           6      103129           0
</event>
<event>
      5   9999  3.19816E-02  9.16069E+01 -1.00000E+00  1.25565E-01
      21    -1     0     0   502   501  0.000000000E+00  0.000000000E+00  2.549482662E+03  2.549482662E+03  0.000000000E+00  0.00000E+00  9.000E+00
      21    -1     0     0   501   511  0.000000000E+00  0.000000000E+00 -3.999711114E+02  3.999711114E+02  0.000000000E+00  0.00000E+00  9.000E+00
      25     1     1     2     0     0  8.420104477E+02 -4.633335543E+02  1.477400653E+03  1.766917448E+03  1.250000000E+02  0.00000E+00  9.000E+00
      25     1     1     2     0     0 -7.735356712E+02  4.024810268E+02  6.192122786E+02  1.076753109E+03  1.250000000E+02  0.00000E+00  9.000E+00
      21     1     1     2   502   511 -6.847477658E+01  6.085252754E+01  5.289861903E+01  1.057832171E+02  2.236564522E-06  0.00000E+00  9.000E+00
#rwgt            1           1   2.3473550236424830E-002           6      103281           0
</event>
<event>
      5   9999  3.19816E-02  2.00004E+02 -1.00000E+00  1.11648E-01
       2    -1     0     0   502     0  0.000000000E+00  0.000000000E+00  7.940007025E+02  7.940007025E+02  0.000000000E+00  0.00000E+00  9.000E+00
      21    -1     0     0   501   502  0.000000000E+00  0.000000000E+00 -9.683785180E+01  9.683785180E+01  0.000000000E+00  0.00000E+00  9.000E+00
      25     1     1     2     0     0  4.625418682E+01  5.502881200E+01  7.649183202E+01  1.632287362E+02  1.250000000E+02  0.00000E+00  9.000E+00
      25     1     1     2     0     0  1.017052501E+02  7.954280008E+01  2.932469783E+02  3.439328499E+02  1.250000000E+02  0.00000E+00  9.000E+00
       2     1     1     2   501     0 -1.479594369E+02 -1.345716121E+02  3.274240403E+02  3.836769682E+02  5.394796609E-06  0.00000E+00  9.000E+00
#rwgt            1           1   2.5971051534690998E-002           6      103409           0
</event>
<event>
      5   9999  3.19816E-02  5.60705E+01 -1.00000E+00  1.36294E-01
       2    -1     0     0   502     0  0.000000000E+00  0.000000000E+00  3.880554863E+02  3.880554863E+02  0.000000000E+00  0.00000E+00  9.000E+00
      21    -1     0     0   501   502  0.000000000E+00  0.000000000E+00 -1.008107321E+02  1.008107321E+02  0.000000000E+00  0.00000E+00  9.000E+00
      25     1     1     2     0     0  1.096379888E+01 -1.666075920E+00  2.170271633E+02  2.506965702E+02  1.250000000E+02  0.00000E+00  9.000E+00
      25     1     1     2     0     0 -6.627467902E+01 -7.532134279E+00 -8.025619341E+00  1.419101007E+02  1.250000000E+02  0.00000E+00  9.000E+00
       2     1     1     2   501     0  5.531088014E+01  9.198210200E+00  7.824321025E+01  9.625954749E+01  1.651812370E-06  0.00000E+00  9.000E+00
#rwgt            1           1   2.4309766853529091E-002           6      103450           0
</event>
<event>
      5   9999  3.19816E-02  5.09088E+01 -1.00000E+00  1.38631E-01
      21    -1     0     0   511   501  0.000000000E+00  0.000000000E+00  3.731977426E+02  3.731977426E+02  0.000000000E+00  0.00000E+00  9.000E+00
      21    -1     0     0   501   502  0.000000000E+00  0.000000000E+00 -3.306005457E+02  3.306005457E+02  0.000000000E+00  0.00000E+00  9.000E+00
      25     1     1     2     0     0 -5.241731279E+01 -2.019747324E+02 -1.741469405E+02  2.991546825E+02  1.250000000E+02  0.00000E+00  9.000E+00
      25     1     1     2     0     0  7.121289680E+01  1.546626713E+02  3.276765502E+01  2.137534509E+02  1.250000000E+02  0.00000E+00  9.000E+00
      21     1     1     2   511   502 -1.879558401E+01  4.731206104E+01  1.839764824E+02  1.908901548E+02  2.697398305E-06  0.00000E+00  9.000E+00
#rwgt            1           1   2.3380809721855533E-002           6      103533           0
</event>
<event>
      5   9999  3.19816E-02  4.39061E+01 -1.00000E+00  1.42374E-01
      21    -1     0     0   512   501  0.000000000E+00  0.000000000E+00  1.596388239E+02  1.596388239E+02  0.000000000E+00  0.00000E+00  9.000E+00
      21    -1     0     0   501   502  0.000000000E+00  0.000000000E+00 -7.094806933E+02  7.094806933E+02  0.000000000E+00  0.00000E+00  9.000E+00
      25     1     1     2     0     0  3.889556480E+01  1.461997026E+02 -5.618948127E+00  1.963257257E+02  1.250000000E+02  0.00000E+00  9.000E+00
      25     1     1     2     0     0 -3.862589807E+01 -1.901049845E+02 -5.747287157E+02  6.193302526E+02  1.250000000E+02  0.00000E+00  9.000E+00
      21     1     1     2   512   502 -2.696667369E-01  4.390528191E+01  3.050579433E+01  5.346353886E+01  9.536743164E-07  0.00000E+00  9.000E+00
#rwgt            1           1   2.8144167727060229E-002           6      103621           0
</event>
<event>
      5   9999  3.19816E-02  2.59638E+01 -1.00000E+00  1.57530E-01
      21    -1     0     0   502   501  0.000000000E+00  0.000000000E+00  7.917988777E+02  7.917988777E+02  0.000000000E+00  0.00000E+00  9.000E+00
      21    -1     0     0   501   511  0.000000000E+00  0.000000000E+00 -4.331945699E+02  4.331945699E+02  0.000000000E+00  0.00000E+00  9.000E+00
      25     1     1     2     0     0 -1.149548430E+02 -2.879578042E+02 -2.403437377E+02  4.117334394E+02  1.250000000E+02  0.00000E+00  9.000E+00
      25     1     1     2     0     0  9.570059006E+01  3.053760160E+02  6.615740567E+02  7.454651880E+02  1.250000000E+02  0.00000E+00  9.000E+00
      21     1     1     2   502   511  1.925425294E+01 -1.741821185E+01 -6.262601114E+01  6.779482009E+01  9.536743164E-07  0.00000E+00  9.000E+00
#rwgt            1           1   2.3970458632246165E-002           6      103696           0
</event>
<event>
      5   9999  3.19816E-02  5.87851E+01 -1.00000E+00  1.35180E-01
      21    -1     0     0   502   501  0.000000000E+00  0.000000000E+00  4.878457160E+02  4.878457160E+02  0.000000000E+00  0.00000E+00  9.000E+00
      21    -1     0     0   501   512  0.000000000E+00  0.000000000E+00 -5.445016167E+02  5.445016167E+02  0.000000000E+00  0.00000E+00  9.000E+00
      25     1     1     2     0     0  2.071696971E+02  3.926261684E+02  1.843561625E+02  4.966757355E+02  1.250000000E+02  0.00000E+00  9.000E+00
      25     1     1     2     0     0 -2.187491352E+02 -3.349928193E+02 -2.036158389E+02  4.659997671E+02  1.250000000E+02  0.00000E+00  9.000E+00
      21     1     1     2   502   512  1.157943808E+01 -5.763334912E+01 -3.739622431E+01  6.967183010E+01  1.066240300E-06  0.00000E+00  9.000E+00
#rwgt            1           1   2.4409549230098262E-002           6      103850           0
</event>
<event>
      5   9999  3.19816E-02  1.11815E+02 -1.00000E+00  1.21685E-01
       2    -1     0     0   502     0  0.000000000E+00  0.000000000E+00  2.244806234E+03  2.244806234E+03  0.000000000E+00  0.00000E+00  9.000E+00
      21    -1     0     0   501   502  0.000000000E+00  0.000000000E+00 -2.859373689E+02  2.859373689E+02  0.000000000E+00  0.00000E+00  9.000E+00
      25     1     1     2     0     0 -3.746362291E+02  1.321461342E+02  1.849678062E+03  1.895982288E+03  1.250000000E+02  0.00000E+00  9.000E+00
      25     1     1     2     0     0  3.278752281E+02 -2.337135838E+02 -6.619132371E+01  4.267674962E+02  1.250000000E+02  0.00000E+00  9.000E+00
       2     1     1     2   501     0  4.676100105E+01  1.015674496E+02  1.753821268E+02  2.079938183E+02  3.814697266E-06  0.00000E+00  9.000E+00
#rwgt            1           1   2.2950001712737013E-002           6      103989           0
</event>
<event>
      5   9999  3.19816E-02  5.98595E+01 -1.00000E+00  1.34758E-01
      21    -1     0     0   502   511  0.000000000E+00  0.000000000E+00  1.733463314E+03  1.733463314E+03  0.000000000E+00  0.00000E+00  9.000E+00
      21    -1     0     0   501   502  0.000000000E+00  0.000000000E+00 -9.734401000E+01  9.734401000E+01  0.000000000E+00  0.00000E+00  9.000E+00
      25     1     1     2     0     0 -1.976100139E+01  1.295656446E+02  1.380653716E+03  1.392482473E+03  1.250000000E+02  0.00000E+00  9.000E+00
      25     1     1     2     0     0  2.434684635E+01 -1.892492623E+02  6.282876741E+01  2.366019997E+02  1.250000000E+02  0.00000E+00  9.000E+00
      21     1     1     2   501   511 -4.585844966E+00  5.968361774E+01  1.926368202E+02  2.017228512E+02  2.697398305E-06  0.00000E+00  9.000E+00
#rwgt            1           1   3.2383683383652821E-002           6      104072           0
</event>
<event>
      5   9999  3.19816E-02  1.22854E+01 -1.00000E+00  1.85961E-01
      21    -1     0     0   502   501  0.000000000E+00  0.000000000E+00  5.372529682E+02  5.372529682E+02  0.000000000E+00  0.00000E+00  9.000E+00
      21    -1     0     0   512   502  0.000000000E+00  0.000000000E+00 -1.217954901E+02  1.217954901E+02  0.000000000E+00  0.00000E+00  9.000E+00
      25     1     1     2     0     0  1.559264213E+02 -1.168482864E+02  3.126506409E+02  3.890269838E+02  1.250000000E+02  0.00000E+00  9.000E+00
      25     1     1     2     0     0 -1.481266491E+02  1.073564549E+02  1.175597368E+02  2.508230538E+02  1.250000000E+02  0.00000E+00  9.000E+00
      21     1     1     2   512   501 -7.799772172E+00  9.491831490E+00 -1.475289960E+01  1.919842070E+01  4.768371582E-07  0.00000E+00  9.000E+00
#rwgt            1           1   2.3404600233242184E-002           6      104199           0
</event>
<event>
      5   9999  3.19816E-02  1.28952E+02 -1.00000E+00  1.19057E-01
      21    -1     0     0   502   501  0.000000000E+00  0.000000000E+00  2.045449733E+03  2.045449733E+03  0.000000000E+00  0.00000E+00  9.000E+00
      21    -1     0     0   511   502  0.000000000E+00  0.000000000E+00 -6.587640452E+02  6.587640452E+02  0.000000000E+00  0.00000E+00  9.000E+00
      25     1     1     2     0     0 -9.941471913E+02  2.519853996E+02  6.021016826E+02  1.195816339E+03  1.250000000E+02  0.00000E+00  9.000E+00
      25     1     1     2     0     0  1.104970581E+03 -3.179164630E+02  7.343304196E+02  1.369998915E+03  1.250000000E+02  0.00000E+00  9.000E+00
      21     1     1     2   511   501 -1.108233893E+02  6.593106340E+01  5.025358547E+01  1.383985245E+02  2.611744678E-06  0.00000E+00  9.000E+00
#rwgt            1           1   2.3621154885531848E-002           6      104378           0
</event>
<event>
      5   9999  3.19816E-02  3.83627E+01 -1.00000E+00  1.45975E-01
      21    -1     0     0   502   501  0.000000000E+00  0.000000000E+00  6.224702507E+02  6.224702507E+02  0.000000000E+00  0.00000E+00  9.000E+00
      21    -1     0     0   512   502  0.000000000E+00  0.000000000E+00 -1.226525150E+03  1.226525150E+03  0.000000000E+00  0.00000E+00  9.000E+00
      25     1     1     2     0     0  2.257660803E+02  3.442848299E+02  1.353398166E+02  4.510479277E+02  1.250000000E+02  0.00000E+00  9.000E+00
      25     1     1     2     0     0 -2.171182383E+02 -3.069095723E+02  2.095788983E+02  4.481987612E+02  1.250000000E+02  0.00000E+00  9.000E+00
      21     1     1     2   512   501 -8.647841957E+00 -3.737525763E+01 -9.489736140E+02  9.497487116E+02  0.000000000E+00  0.00000E+00  9.000E+00
#rwgt            1           1   3.0612956221752887E-002           6      104464           0
</event>
<event>
      5   9999  3.19816E-02  8.32389E+02 -1.00000E+00  9.29455E-02
      21    -1     0     0   502   501  0.000000000E+00  0.000000000E+00  1.441267998E+03  1.441267998E+03  0.000000000E+00  0.00000E+00  9.000E+00
      -2    -1     0     0     0   502  0.000000000E+00  0.000000000E+00 -1.211629391E+03  1.211629391E+03  0.000000000E+00  0.00000E+00  9.000E+00
      25     1     1     2     0     0  7.321452023E+02  8.837321200E+01 -1.548023340E+01  7.481383959E+02  1.250000000E+02  0.00000E+00  9.000E+00
      25     1     1     2     0     0  8.079855063E+00 -4.690813439E+02 -5.638127806E+02  7.440513711E+02  1.250000000E+02  0.00000E+00  9.000E+00
      -2     1     1     2     0   501 -7.402250574E+02  3.807081319E+02  8.089316209E+02  1.160707622E+03  1.078959322E-05  0.00000E+00  9.000E+00
#rwgt            2           9   8.0344554489221047E-006           6      104710           0
</event>
<event>
      5   9999  3.19816E-02  3.44991E+01 -1.00000E+00  1.48941E-01
      21    -1     0     0   502   501  0.000000000E+00  0.000000000E+00  2.941088726E+02  2.941088726E+02  0.000000000E+00  0.00000E+00  9.000E+00
      21    -1     0     0   511   502  0.000000000E+00  0.000000000E+00 -5.313262491E+02  5.313262491E+02  0.000000000E+00  0.00000E+00  9.000E+00
      25     1     1     2     0     0 -2.699364165E+02  3.881342834E+01 -3.291044308E+02  4.453166037E+02  1.250000000E+02  0.00000E+00  9.000E+00
      25     1     1     2     0     0  2.787359920E+02 -7.217143271E+01  1.195621280E+02  3.358907135E+02  1.250000000E+02  0.00000E+00  9.000E+00
      21     1     1     2   511   501 -8.799575517E+00  3.335800437E+01 -2.767507366E+01  4.422780446E+01  6.743495762E-07  0.00000E+00  9.000E+00
#rwgt            1           1   2.7826781382785118E-002           6      104729           0
</event>
<event>
      5   9999  3.19816E-02  4.10319E+01 -1.00000E+00  1.44157E-01
      21    -1     0     0   502   501  0.000000000E+00  0.000000000E+00  1.896374376E+02  1.896374376E+02  0.000000000E+00  0.00000E+00  9.000E+00
      21    -1     0     0   512   502  0.000000000E+00  0.000000000E+00 -1.272443264E+03  1.272443264E+03  0.000000000E+00  0.00000E+00  9.000E+00
      25     1     1     2     0     0  6.270887426E+01  4.352054709E+02 -5.065432684E+02  6.823102576E+02  1.250000000E+02  0.00000E+00  9.000E+00
      25     1     1     2     0     0 -4.823611354E+01 -3.968107612E+02 -3.385460389E+02  5.385386925E+02  1.250000000E+02  0.00000E+00  9.000E+00
      21     1     1     2   512   501 -1.447276072E+01 -3.839470970E+01 -2.377165195E+02  2.412317520E+02  0.000000000E+00  0.00000E+00  9.000E+00
#rwgt            1           1   2.8823054158165041E-002           6      104907           0
</event>
<event>
      5   9999  3.19816E-02  5.72842E+01 -1.00000E+00  1.35787E-01
      21    -1     0     0   511   501  0.000000000E+00  0.000000000E+00  8.933604926E+02  8.933604926E+02  0.000000000E+00  0.00000E+00  9.000E+00
      21    -1     0     0   501   502  0.000000000E+00  0.000000000E+00 -1.087891566E+02  1.087891566E+02  0.000000000E+00  0.00000E+00  9.000E+00
      25     1     1     2     0     0 -2.975002013E+01  5.108561829E+01  2.588758633E+02  2.934902327E+02  1.250000000E+02  0.00000E+00  9.000E+00
      25     1     1     2     0     0  8.701864681E+01 -5.242212751E+01 -1.788814142E+01  1.620657581E+02  1.250000000E+02  0.00000E+00  9.000E+00
      21     1     1     2   511   502 -5.726862668E+01  1.336509223E+00  5.435836141E+02  5.465936584E+02  7.629394531E-06  0.00000E+00  9.000E+00
#rwgt            1           1   3.3999490115297112E-002           6      105063           0
</event>
<event>
      5   9999  3.19816E-02  3.34130E+02 -1.00000E+00  1.04094E-01
      -2    -1     0     0     0   501  0.000000000E+00  0.000000000E+00  3.721905586E+02  3.721905586E+02  0.000000000E+00  0.00000E+00  9.000E+00
      21    -1     0     0   501   502  0.000000000E+00  0.000000000E+00 -8.678434121E+02  8.678434121E+02  0.000000000E+00  0.00000E+00  9.000E+00
      25     1     1     2     0     0  1.435554724E+02  1.883712542E+02  1.336036422E+02  2.992771897E+02  1.250000000E+02  0.00000E+00  9.000E+00
      25     1     1     2     0     0  1.870224043E+02 -1.397790293E+02 -5.295222148E+02  5.920593997E+02  1.250000000E+02  0.00000E+00  9.000E+00
      -2     1     1     2     0   502 -3.305778768E+02 -4.859222494E+01 -9.973428097E+01  3.486973813E+02  6.468133910E-06  0.00000E+00  9.000E+00
#rwgt            2           4   5.3266919312652284E-005           6      105258           0
</event>
<event>
      5   9999  3.19816E-02  4.51506E+01 -1.00000E+00  1.41652E-01
      21    -1     0     0   502   501  0.000000000E+00  0.000000000E+00  6.232592119E+02  6.232592119E+02  0.000000000E+00  0.00000E+00  9.000E+00
      21    -1     0     0   511   502  0.000000000E+00  0.000000000E+00 -3.645271292E+02  3.645271292E+02  0.000000000E+00  0.00000E+00  9.000E+00
      25     1     1     2     0     0 -3.973485874E+02  5.356357074E+00  1.785504758E+02  4.532326808E+02  1.250000000E+02  0.00000E+00  9.000E+00
      25     1     1     2     0     0  4.416658257E+02 -1.399118129E+01  1.196784909E+02  4.745654812E+02  1.250000000E+02  0.00000E+00  9.000E+00
      21     1     1     2   511   501 -4.431723823E+01  8.634824216E+00 -3.949688395E+01  5.998817913E+01  1.168007728E-06  0.00000E+00  9.000E+00
#rwgt            1           1   3.0634968035595563E-002           6      105277           0
</event>
<event>
      5   9999  3.19816E-02  1.15175E+02 -1.00000E+00  1.21130E-01
       1    -1     0     0   502     0  0.000000000E+00  0.000000000E+00  1.839981601E+03  1.839981601E+03  0.000000000E+00  0.00000E+00  9.000E+00
      21    -1     0     0   501   502  0.000000000E+00  0.000000000E+00 -4.748112331E+01  4.748112331E+01  0.000000000E+00  0.00000E+00  9.000E+00
      25     1     1     2     0     0 -1.887428540E+02 -3.468578162E+01  1.113599584E+03  1.136906330E+03  1.250000000E+02  0.00000E+00  9.000E+00
      25     1     1     2     0     0  7.704932473E+01  6.278951270E+01  1.896613557E+02  2.479426369E+02  1.250000000E+02  0.00000E+00  9.000E+00
       1     1     1     2   501     0  1.116935292E+02 -2.810373108E+01  4.892395373E+02  5.026137573E+02  5.394796609E-06  0.00000E+00  9.000E+00
#rwgt            1           1   3.3900774353312360E-002           6      105469           0
</event>
<event>
      5   9999  3.19816E-02  1.68370E+01 -1.00000E+00  1.72784E-01
      21    -1     0     0   502   501  0.000000000E+00  0.000000000E+00  1.168025810E+02  1.168025810E+02  0.000000000E+00  0.00000E+00  9.000E+00
      21    -1     0     0   501   511  0.000000000E+00  0.000000000E+00 -9.377627955E+02  9.377627955E+02  0.000000000E+00  0.00000E+00  9.000E+00
      25     1     1     2     0     0 -1.206481210E+02  5.353388578E+01  2.416261450E+01  1.833866897E+02  1.250000000E+02  0.00000E+00  9.000E+00
      25     1     1     2     0     0  1.209888566E+02 -7.036739547E+01 -6.872171031E+02  7.123778636E+02  1.250000000E+02  0.00000E+00  9.000E+00
      21     1     1     2   502   511 -3.407355779E-01  1.683350969E+01 -1.579057259E+02  1.588008231E+02  2.697398305E-06  0.00000E+00  9.000E+00
#rwgt            1           1   2.6650746224311270E-002           6      105518           0
</event>
<event>
      5   9999  3.19816E-02  1.06383E+02 -1.00000E+00  1.22631E-01
      21    -1     0     0   502   512  0.000000000E+00  0.000000000E+00  7.454777424E+02  7.454777424E+02  0.000000000E+00  0.00000E+00  9.000E+00
      21    -1     0     0   501   502  0.000000000E+00  0.000000000E+00 -2.317477743E+02  2.317477743E+02  0.000000000E+00  0.00000E+00  9.000E+00
      25     1     1     2     0     0 -2.993906900E+02  1.038017990E+02  1.158272206E+02  3.597923620E+02  1.250000000E+02  0.00000E+00  9.000E+00
      25     1     1     2     0     0  1.930638239E+02 -1.003463534E+02  5.296502256E+01  2.564631052E+02  1.250000000E+02  0.00000E+00  9.000E+00
      21     1     1     2   501   512  1.063268661E+02 -3.455445606E+00  3.449377249E+02  3.609700495E+02  3.814697266E-06  0.00000E+00  9.000E+00
#rwgt            1           1   2.9016583846824061E-002           6      105662           0
</event>
<event>
      5   9999  3.19816E-02  2.89533E+01 -1.00000E+00  1.54119E-01
      21    -1     0     0   502   501  0.000000000E+00  0.000000000E+00  1.535231908E+02  1.535231908E+02  0.000000000E+00  0.00000E+00  9.000E+00
      21    -1     0     0   501   511  0.000000000E+00  0.000000000E+00 -1.520490194E+03  1.520490194E+03  0.000000000E+00  0.00000E+00  9.000E+00
      25     1     1     2     0     0  2.196239313E+02 -1.549439405E+02 -1.303592489E+03  1.336869729E+03  1.250000000E+02  0.00000E+00  9.000E+00
      25     1     1     2     0     0 -2.203815145E+02  1.260005658E+02 -1.828048563E+01  2.835548107E+02  1.250000000E+02  0.00000E+00  9.000E+00
      21     1     1     2   502   511  7.575831730E-01  2.894337476E+01 -4.509402913E+01  5.358884528E+01  4.768371582E-07  0.00000E+00  9.000E+00
#rwgt            1           1   2.8061758127215335E-002           6      105712           0
</event>
<event>
      5   9999  3.19816E-02  3.62431E+01 -1.00000E+00  1.47548E-01
       2    -1     0     0   502     0  0.000000000E+00  0.000000000E+00  1.932874456E+02  1.932874456E+02  0.000000000E+00  0.00000E+00  9.000E+00
      21    -1     0     0   501   502  0.000000000E+00  0.000000000E+00 -7.142620189E+02  7.142620189E+02  0.000000000E+00  0.00000E+00  9.000E+00
      25     1     1     2     0     0  1.093080290E+02  1.803495403E+01 -4.578240175E+02  4.873410877E+02  1.250000000E+02  0.00000E+00  9.000E+00
      25     1     1     2     0     0 -1.455138461E+02 -1.639212904E+01 -2.006101324E+02  2.780510862E+02  1.250000000E+02  0.00000E+00  9.000E+00
       2     1     1     2   501     0  3.620581718E+01 -1.642824989E+00  1.374595766E+02  1.421572906E+02  3.303624740E-06  0.00000E+00  9.000E+00
#rwgt            1           1   2.8981052452151886E-002           6      105859           0
</event>
<event>
      5   9999  3.19816E-02  3.40801E+01 -1.00000E+00  1.49290E-01
       2    -1     0     0   502     0  0.000000000E+00  0.000000000E+00  1.688211845E+03  1.688211845E+03  0.000000000E+00  0.00000E+00  9.000E+00
      21    -1     0     0   501   502  0.000000000E+00  0.000000000E+00 -1.548871850E+02  1.548871850E+02  0.000000000E+00  0.00000E+00  9.000E+00
      25     1     1     2     0     0  5.064879977E+01  1.992679951E+01 -1.161620668E+02  1.791117082E+02  1.250000000E+02  0.00000E+00  9.000E+00
      25     1     1     2     0     0 -5.114524736E+01  1.414965630E+01  6.556039473E+02  6.695204141E+02  1.250000000E+02  0.00000E+00  9.000E+00
       2     1     1     2   501     0  4.964475905E-01 -3.407645582E+01  9.938827796E+02  9.944669079E+02  1.078959322E-05  0.00000E+00  9.000E+00
#rwgt            2          18   9.3299313441703134E-004           6      106043           0
</event>
<event>
      5   9999  3.19816E-02  6.96988E+02 -1.00000E+00  9.49196E-02
      21    -1     0     0   502   501  0.000000000E+00  0.000000000E+00  5.802140584E+02  5.802140584E+02  0.000000000E+00  0.00000E+00  9.000E+00
       2    -1     0     0   501     0  0.000000000E+00  0.000000000E+00 -2.607796708E+03  2.607796708E+03  0.000000000E+00  0.00000E+00  9.000E+00
      25     1     1     2     0     0  7.909027955E+02  8.665910864E+02 -1.262885203E+03  1.728297248E+03  1.250000000E+02  0.00000E+00  9.000E+00
      25     1     1     2     0     0 -3.863016622E+02 -2.990617642E+02 -5.111816955E+02  7.180519750E+02  1.250000000E+02  0.00000E+00  9.000E+00
       2     1     1     2   502     0 -4.046011333E+02 -5.675293222E+02 -2.535157517E+02  7.416615434E+02  1.401609274E-05  0.00000E+00  9.000E+00
#rwgt            1           1   3.0331537755557976E-002           6      106062           0
</event>
<event>
      5   9999  3.19816E-02  8.78902E+01 -1.00000E+00  1.26403E-01
      21    -1     0     0   502   501  0.000000000E+00  0.000000000E+00  4.827554520E+01  4.827554520E+01  0.000000000E+00  0.00000E+00  9.000E+00
       2    -1     0     0   501     0  0.000000000E+00  0.000000000E+00 -1.472691467E+03  1.472691467E+03  0.000000000E+00  0.00000E+00  9.000E+00
      25     1     1     2     0     0  1.412105096E+02 -2.641758142E+01 -5.110813833E+02  5.454057911E+02  1.250000000E+02  0.00000E+00  9.000E+00
      25     1     1     2     0     0 -1.000920704E+02  1.040961859E+02 -2.978140289E+02  3.537974481E+02  1.250000000E+02  0.00000E+00  9.000E+00
       2     1     1     2   502     0 -4.111843921E+01 -7.767860451E+01 -6.155205101E+02  6.217637734E+02  0.000000000E+00  0.00000E+00  9.000E+00
#rwgt            1           1   2.9161414761726429E-002           6      106089           0
</event>
<event>
      5   9999  3.19816E-02  1.36940E+02 -1.00000E+00  1.17983E-01
      21    -1     0     0   502   501  0.000000000E+00  0.000000000E+00  2.911454330E+02  2.911454330E+02  0.000000000E+00  0.00000E+00  9.000E+00
       3    -1     0     0   501     0  0.000000000E+00  0.000000000E+00 -2.160702480E+03  2.160702480E+03  0.000000000E+00  0.00000E+00  9.000E+00
      25     1     1     2     0     0 -4.746005513E+01 -5.387860975E+00 -6.336567307E+01  1.480597663E+02  1.250000000E+02  0.00000E+00  9.000E+00
      25     1     1     2     0     0  8.708422441E+01 -1.256941771E+02  2.069062496E+02  2.860382569E+02  1.250000000E+02  0.00000E+00  9.000E+00
       3     1     1     2   502     0 -3.962416928E+01  1.310820380E+02 -2.013097624E+03  2.017749890E+03  2.157918644E-05  0.00000E+00  9.000E+00
#rwgt            1           1   2.6260424059814474E-002           6      106164           0
</event>
<event>
      5   9999  3.19816E-02  8.05097E+01 -1.00000E+00  1.28216E-01
      21    -1     0     0   511   501  0.000000000E+00  0.000000000E+00  1.155839169E+03  1.155839169E+03  0.000000000E+00  0.00000E+00  9.000E+00
      21    -1     0     0   501   502  0.000000000E+00  0.000000000E+00 -2.584224123E+02  2.584224123E+02  0.000000000E+00  0.00000E+00  9.000E+00
      25     1     1     2     0     0  2.727410472E+02  7.203639133E+01  4.523548081E+01  3.118463872E+02  1.250000000E+02  0.00000E+00  9.000E+00
      25     1     1     2     0     0 -3.454016037E+02 -3.736272892E+01  1.547269117E+02  4.003294376E+02  1.250000000E+02  0.00000E+00  9.000E+00
      21     1     1     2   511   502  7.266055651E+01 -3.467366241E+01  6.974543639E+02  7.020857562E+02  1.078959322E-05  0.00000E+00  9.000E+00
#rwgt            1           1   2.8889006693022561E-002           6      106309           0
</event>
<event>
      5   9999  3.19816E-02  2.35272E+02 -1.00000E+00  1.09139E-01
       2    -1     0     0   502     0  0.000000000E+00  0.000000000E+00  1.663141409E+03  1.663141409E+03  0.000000000E+00  0.00000E+00  9.000E+00
      21    -1     0     0   501   502  0.000000000E+00  0.000000000E+00 -4.628324551E+02  4.628324551E+02  0.000000000E+00  0.00000E+00  9.000E+00
      25     1     1     2     0     0 -5.548339869E+02 -3.547649580E+02  2.551013412E+00  6.703211440E+02  1.250000000E+02  0.00000E+00  9.000E+00
      25     1     1     2     0     0  3.461577952E+02  4.634265626E+02  8.699774045E+02  1.052176355E+03  1.250000000E+02  0.00000E+00  9.000E+00
       2     1     1     2   501     0  2.086761917E+02 -1.086616047E+02  3.277805362E+02  4.034763652E+02  0.000000000E+00  0.00000E+00  9.000E+00
#rwgt            1           1   3.5655362783566395E-002           6      106419           0
</event>
<event>
      5   9999  3.19816E-02  1.71203E+02 -1.00000E+00  1.14162E-01
      21    -1     0     0   502   511  0.000000000E+00  0.000000000E+00  3.856632066E+02  3.856632066E+02  0.000000000E+00  0.00000E+00  9.000E+00
      21    -1     0     0   501   502  0.000000000E+00  0.000000000E+00 -2.851747388E+02  2.851747388E+02  0.000000000E+00  0.00000E+00  9.000E+00
      25     1     1     2     0     0  4.855047428E+01  9.995497082E+01 -6.257535758E+01  1.785744106E+02  1.250000000E+02  0.00000E+00  9.000E+00
      25     1     1     2     0     0 -2.141090357E+02 -1.435529084E+02  6.088050650E+01  2.928848797E+02  1.250000000E+02  0.00000E+00  9.000E+00
      21     1     1     2   501   511  1.655585614E+02  4.359793755E+01  1.021833189E+02  1.993786550E+02  1.907348633E-06  0.00000E+00  9.000E+00
#rwgt            1           1   2.6264569436444347E-002           6      106490           0
</event>
<event>
      5   9999  3.19816E-02  9.53574E+01 -1.00000E+00  1.24764E-01
       1    -1     0     0   502     0  0.000000000E+00  0.000000000E+00  1.425983328E+02  1.425983328E+02  0.000000000E+00  0.00000E+00  9.000E+00
      21    -1     0     0   501   502  0.000000000E+00  0.000000000E+00 -2.289750570E+03  2.289750570E+03  0.000000000E+00  0.00000E+00  9.000E+00
      25     1     1     2     0     0  1.287444301E+02  8.059454745E+01 -2.096275746E+03  2.105485125E+03  1.250000000E+02  0.00000E+00  9.000E+00
      25     1     1     2     0     0 -8.881303438E+01 -1.671884876E+02 -4.534671704E+01  2.313462129E+02  1.250000000E+02  0.00000E+00  9.000E+00
       1     1     1     2   501     0 -3.993139568E+01  8.659394013E+01 -5.529774424E+00  9.551756505E+01  2.423352164E-06  0.00000E+00  9.000E+00
#rwgt            1           1   2.7982006738259586E-002           6      106553           0
</event>
<event>
      5   9999  3.19816E-02  4.50189E+01 -1.00000E+00  1.41727E-01
      21    -1     0     0   502   511  0.000000000E+00  0.000000000E+00  1.395272412E+02  1.395272412E+02  0.000000000E+00  0.00000E+00  9.000E+00
      21    -1     0     0   501   502  0.000000000E+00  0.000000000E+00 -3.885603341E+02  3.885603341E+02  0.000000000E+00  0.00000E+00  9.000E+00
      25     1     1     2     0     0 -7.580503144E+01  3.370153012E+01  1.707061292E+01  1.509920586E+02  1.250000000E+02  0.00000E+00  9.000E+00
      25     1     1     2     0     0  3.961504644E+01 -6.047808352E+01 -2.915727633E+02  3.253715211E+02  1.250000000E+02  0.00000E+00  9.000E+00
      21     1     1     2   501   511  3.618998500E+01  2.677655341E+01  2.546905744E+01  5.172399553E+01  6.743495762E-07  0.00000E+00  9.000E+00
#rwgt            1           1   2.8226071108661533E-002           6      106641           0
</event>
<event>
      5   9999  3.19816E-02  1.52195E+01 -1.00000E+00  1.76791E-01
      21    -1     0     0   502   512  0.000000000E+00  0.000000000E+00  1.629627155E+02  1.629627155E+02  0.000000000E+00  0.00000E+00  9.000E+00
      21    -1     0     0   501   502  0.000000000E+00  0.000000000E+00 -4.249826923E+02  4.249826923E+02  0.000000000E+00  0.00000E+00  9.000E+00
      25     1     1     2     0     0 -1.668039663E+02 -1.390064021E+01 -2.875879747E+02  3.554555305E+02  1.250000000E+02  0.00000E+00  9.000E+00
      25     1     1     2     0     0  1.588008317E+02  2.684597007E+01  1.336736930E+00  2.038754451E+02  1.250000000E+02  0.00000E+00  9.000E+00
      21     1     1     2   501   512  8.003134571E+00 -1.294532986E+01  2.423126092E+01  2.861443227E+01  5.840038640E-07  0.00000E+00  9.000E+00
#rwgt            1           1   2.8992564173839063E-002           6      106737           0
</event>
<event>
      5   9999  3.19816E-02  3.04304E+02 -1.00000E+00  1.05391E-01
       3    -1     0     0   502     0  0.000000000E+00  0.000000000E+00  1.700008060E+03  1.700008060E+03  0.000000000E+00  0.00000E+00  9.000E+00
      21    -1     0     0   501   502  0.000000000E+00  0.000000000E+00 -3.653639348E+02  3.653639348E+02  0.000000000E+00  0.00000E+00  9.000E+00
      25     1     1     2     0     0 -3.678592074E+02  1.521172042E+02 -6.774567987E+00  4.172899892E+02  1.250000000E+02  0.00000E+00  9.000E+00
      25     1     1     2     0     0  1.456557906E+02  5.579326810E+01 -6.416886772E+01  2.099312785E+02  1.250000000E+02  0.00000E+00  9.000E+00
       3     1     1     2   501     0  2.222034168E+02 -2.079104723E+02  1.405587561E+03  1.438150728E+03  2.642899792E-05  0.00000E+00  9.000E+00
#rwgt            1           1   2.7219658370613336E-002           6      106869           0
</event>
<event>
      5   9999  3.19816E-02  5.38777E+01 -1.00000E+00  1.37250E-01
      21    -1     0     0   502   501  0.000000000E+00  0.000000000E+00  1.040676316E+03  1.040676316E+03  0.000000000E+00  0.00000E+00  9.000E+00
      21    -1     0     0   511   502  0.000000000E+00  0.000000000E+00 -8.907754886E+01  8.907754886E+01  0.000000000E+00  0.00000E+00  9.000E+00
      25     1     1     2     0     0  1.773826315E+02  1.712977062E+01  1.098246515E+02  2.438123891E+02  1.250000000E+02  0.00000E+00  9.000E+00
      25     1     1     2     0     0 -1.316500487E+02 -4.561369829E+01  7.875979195E+02  8.095355629E+02  1.250000000E+02  0.00000E+00  9.000E+00
      21     1     1     2   511   501 -4.573258284E+01  2.848392767E+01  5.417619564E+01  7.640591236E+01  1.907348633E-06  0.00000E+00  9.000E+00
#rwgt            1           1   2.8137853808001642E-002           6      106896           0
</event>
<event>
      5   9999  3.19816E-02  1.60507E+02 -1.00000E+00  1.15240E-01
       2    -1     0     0   502     0  0.000000000E+00  0.000000000E+00  1.619774954E+02  1.619774954E+02  0.000000000E+00  0.00000E+00  9.000E+00
      21    -1     0     0   501   502  0.000000000E+00  0.000000000E+00 -1.354853527E+03  1.354853527E+03  0.000000000E+00  0.00000E+00  9.000E+00
      25     1     1     2     0     0 -2.821868600E+01 -5.042512633E+01 -7.297919655E+02  7.426710581E+02  1.250000000E+02  0.00000E+00  9.000E+00
      25     1     1     2     0     0  9.798124396E+01 -9.412791876E+01 -5.579585429E+02  5.877100687E+02  1.250000000E+02  0.00000E+00  9.000E+00
       2     1     1     2   501     0 -6.976255795E+01  1.445530451E+02  9.487447662E+01  1.864498958E+02  6.031565972E-06  0.00000E+00  9.000E+00
#rwgt            1           1   4.6902974272858507E-002           6      106974           0
</event>
<event>
      5   9999  3.19816E-02  1.75354E+01 -1.00000E+00  1.71224E-01
      21    -1     0     0   511   501  0.000000000E+00  0.000000000E+00  2.639359218E+02  2.639359218E+02  0.000000000E+00  0.00000E+00  9.000E+00
      21    -1     0     0   501   502  0.000000000E+00  0.000000000E+00 -6.832791979E+02  6.832791979E+02  0.000000000E+00  0.00000E+00  9.000E+00
      25     1     1     2     0     0 -1.001508795E+02 -2.826015720E+02 -4.663636285E+02  5.683431016E+02  1.250000000E+02  0.00000E+00  9.000E+00
      25     1     1     2     0     0  8.968694288E+01  2.966726341E+02  5.981910354E+00  3.342441963E+02  1.250000000E+02  0.00000E+00  9.000E+00
      21     1     1     2   511   502  1.046393663E+01 -1.407106203E+01  4.103844202E+01  4.462782181E+01  8.259061849E-07  0.00000E+00  9.000E+00
#rwgt            1           1   2.7613372577547552E-002           6      107008           0
</event>
<event>
      5   9999  3.19816E-02  1.01426E+02 -1.00000E+00  1.23552E-01
      21    -1     0     0   502   512  0.000000000E+00  0.000000000E+00  1.194324274E+03  1.194324274E+03  0.000000000E+00  0.00000E+00  9.000E+00
      21    -1     0     0   501   502  0.000000000E+00  0.000000000E+00 -2.551103976E+02  2.551103976E+02  0.000000000E+00  0.00000E+00  9.000E+00
      25     1     1     2     0     0  1.889759899E+02 -3.031051314E+02 -3.000868791E+01  3.796184490E+02  1.250000000E+02  0.00000E+00  9.000E+00
      25     1     1     2     0     0 -8.758472454E+01  3.004329359E+02  6.139644225E+02  7.003630095E+02  1.250000000E+02  0.00000E+00  9.000E+00
      21     1     1     2   501   512 -1.013912654E+02  2.672195491E+00  3.552581415E+02  3.694532128E+02  3.814697266E-06  0.00000E+00  9.000E+00
#rwgt            1           1   2.3620202937606714E-002           6      107241           0
</event>
<event>
      5   9999  3.19816E-02  1.47049E+03  7.55638E-03  8.71439E-02
       1    -1     0     0   501     0  0.000000000E+00  0.000000000E+00  2.062906871E+03  2.062906871E+03  0.000000000E+00  0.00000E+00  9.000E+00
      -1    -1     0     0     0   502  0.000000000E+00  0.000000000E+00 -1.146524096E+03  1.146524096E+03  0.000000000E+00  0.00000E+00  9.000E+00
      25     1     1     2     0     0 -6.305636011E+02 -2.377587075E+02  3.940577616E+02  7.905986197E+02  1.250000000E+02  0.00000E+00  9.000E+00
      25     1     1     2     0     0 -6.049435718E+02 -5.596488695E+02 -6.348073607E+01  8.359535789E+02  1.250000000E+02  0.00000E+00  9.000E+00
      21     1     1     2   501   502  1.235507173E+03  7.974075769E+02  5.858057503E+02  1.582878768E+03  2.954851796E-05  0.00000E+00  9.000E+00
#rwgt            3           6   7.7793202734126204E-005           6      107299           0
</event>
<event>
      5   9999  3.19816E-02  2.03422E+02 -1.00000E+00  1.11380E-01
      21    -1     0     0   511   501  0.000000000E+00  0.000000000E+00  4.958150539E+02  4.958150539E+02  0.000000000E+00  0.00000E+00  9.000E+00
      21    -1     0     0   501   502  0.000000000E+00  0.000000000E+00 -1.859922998E+02  1.859922998E+02  0.000000000E+00  0.00000E+00  9.000E+00
      25     1     1     2     0     0  1.933485394E+02 -1.648623019E+01  1.173699276E+02  2.589520291E+02  1.250000000E+02  0.00000E+00  9.000E+00
      25     1     1     2     0     0  9.672999522E+00  3.728799748E+00 -2.191801231E+01  1.273297692E+02  1.250000000E+02  0.00000E+00  9.000E+00
      21     1     1     2   511   502 -2.030215389E+02  1.275743044E+01  2.143708389E+02  2.955255553E+02  3.814697266E-06  0.00000E+00  9.000E+00
#rwgt            1           1   7.0233668966353732E-002           6      107318           0
</event>
<event>
      5   9999  3.19816E-02  3.75930E+01 -1.00000E+00  1.46532E-01
      21    -1     0     0   502   501  0.000000000E+00  0.000000000E+00  1.954088154E+02  1.954088154E+02  0.000000000E+00  0.00000E+00  9.000E+00
      21    -1     0     0   501   512  0.000000000E+00  0.000000000E+00 -1.247152761E+03  1.247152761E+03  0.000000000E+00  0.00000E+00  9.000E+00
      25     1     1     2     0     0 -4.174919728E+01 -2.357277720E+02 -1.035493522E+03  1.070131960E+03  1.250000000E+02  0.00000E+00  9.000E+00
      25     1     1     2     0     0  4.574005248E+01  1.983472297E+02  9.342538035E+01  2.564899172E+02  1.250000000E+02  0.00000E+00  9.000E+00
      21     1     1     2   502   512 -3.990855194E+00  3.738054233E+01 -1.096758039E+02  1.159396991E+02  1.348699152E-06  0.00000E+00  9.000E+00
#rwgt            1           1   2.9275383021531272E-002           6      107367           0
</event>
<event>
      5   9999  3.19816E-02  7.40719E+01 -1.00000E+00  1.29989E-01
      21    -1     0     0   511   501  0.000000000E+00  0.000000000E+00  6.051064360E+02  6.051064360E+02  0.000000000E+00  0.00000E+00  9.000E+00
      21    -1     0     0   501   502  0.000000000E+00  0.000000000E+00 -2.966270352E+02  2.966270352E+02  0.000000000E+00  0.00000E+00  9.000E+00
      25     1     1     2     0     0  6.993688111E+01 -1.704901368E+02  2.950339835E+02  3.696323924E+02  1.250000000E+02  0.00000E+00  9.000E+00
      25     1     1     2     0     0 -5.413373760E+01  2.428566466E+02 -1.755083995E+02  3.291473995E+02  1.250000000E+02  0.00000E+00  9.000E+00
      21     1     1     2   511   502 -1.580314350E+01 -7.236650975E+01  1.889538167E+02  2.029536793E+02  0.000000000E+00  0.00000E+00  9.000E+00
#rwgt            1           1   2.8348789710061103E-002           6      107468           0
</event>
<event>
      5   9999  3.19816E-02  1.91465E+02 -1.00000E+00  1.12342E-01
       2    -1     0     0   502     0  0.000000000E+00  0.000000000E+00  3.702227917E+03  3.702227917E+03  0.000000000E+00  0.00000E+00  9.000E+00
      21    -1     0     0   501   502  0.000000000E+00  0.000000000E+00 -1.981680686E+02  1.981680686E+02  0.000000000E+00  0.00000E+00  9.000E+00
      25     1     1     2     0     0 -2.869568644E+02  3.715282407E+02  3.801466400E+02  6.168581227E+02  1.250000000E+02  0.00000E+00  9.000E+00
      25     1     1     2     0     0  1.808178790E+02 -2.121747228E+02  2.277734529E+02  3.810760610E+02  1.250000000E+02  0.00000E+00  9.000E+00
       2     1     1     2   501     0  1.061389853E+02 -1.593535179E+02  2.896139756E+03  2.902461802E+03  0.000000000E+00  0.00000E+00  9.000E+00
#rwgt            1           1   2.4843523906207473E-002           6      107570           0
</event>
<event>
      5   9999  3.25550E-02  3.35794E+01 -1.00000E+00  1.49716E-01
      21    -1     0     0   511   501  0.000000000E+00  0.000000000E+00  6.328178753E+02  6.328178753E+02  0.000000000E+00  0.00000E+00  9.000E+00
      21    -1     0     0   501   502  0.000000000E+00  0.000000000E+00 -5.435648964E+02  5.435648964E+02  0.000000000E+00  0.00000E+00  9.000E+00
      25     1     1     2     0     0 -4.731072092E+02 -3.834737785E+01 -2.611901828E+02  5.560092305E+02  1.250000000E+02  0.00000E+00  9.000E+00
      25     1     1     2     0     0  4.395632884E+02  3.680513119E+01  2.672921472E+02  5.306982138E+02  1.250000000E+02  0.00000E+00  9.000E+00
      21     1     1     2   511   502  3.354392085E+01  1.542246661E+00  8.315101443E+01  8.967532744E+01  0.000000000E+00  0.00000E+00  9.000E+00
#rwgt            1           1   3.2884171330112177E-002           6      107601           0
</event>
<event>
      5   9999  3.19816E-02  3.60173E+02 -1.00000E+00  1.03075E-01
      21    -1     0     0   502   512  0.000000000E+00  0.000000000E+00  7.726480592E+02  7.726480592E+02  0.000000000E+00  0.00000E+00  9.000E+00
      21    -1     0     0   501   502  0.000000000E+00  0.000000000E+00 -7.902203591E+02  7.902203591E+02  0.000000000E+00  0.00000E+00  9.000E+00
      25     1     1     2     0     0 -2.900841153E+02 -4.843148300E+02 -3.199897452E+01  5.791015307E+02  1.250000000E+02  0.00000E+00  9.000E+00
      25     1     1     2     0     0 -6.302720191E+01  5.552862318E+02 -1.436942682E+02  5.904136433E+02  1.250000000E+02  0.00000E+00  9.000E+00
      21     1     1     2   501   512  3.531113172E+02 -7.097140189E+01  1.581209428E+02  3.933532443E+02  4.264961200E-06  0.00000E+00  9.000E+00
#rwgt            1           1   2.7637176999648402E-002           6      107818           0
</event>
<event>
      5   9999  3.19816E-02  2.94101E+00 -1.00000E+00  2.99510E-01
      21    -1     0     0   502   501  0.000000000E+00  0.000000000E+00  1.022778815E+02  1.022778815E+02  0.000000000E+00  0.00000E+00  9.000E+00
      21    -1     0     0   511   502  0.000000000E+00  0.000000000E+00 -4.105987668E+03  4.105987668E+03  0.000000000E+00  0.00000E+00  9.000E+00
      25     1     1     2     0     0  3.378203991E+02  1.268290703E+02 -3.602726894E+03  3.622909647E+03  1.250000000E+02  0.00000E+00  9.000E+00
      25     1     1     2     0     0 -3.351630949E+02 -1.280893380E+02 -2.994309429E+02  4.837613753E+02  1.250000000E+02  0.00000E+00  9.000E+00
      21     1     1     2   511   501 -2.657304131E+00  1.260267708E+00 -1.015519499E+02  1.015945277E+02  1.348699152E-06  0.00000E+00  9.000E+00
#rwgt            1           1   1.4116555342189497E-002           6      107862           0
</event>
<event>
      5   9999  3.19816E-02  5.64895E+00 -1.00000E+00  2.29617E-01
      21    -1     0     0   502   501  0.000000000E+00  0.000000000E+00  2.889592220E+02  2.889592220E+02  0.000000000E+00  0.00000E+00  9.000E+00
      21    -1     0     0   501   512  0.000000000E+00  0.000000000E+00 -1.415341488E+03  1.415341488E+03  0.000000000E+00  0.00000E+00  9.000E+00
      25     1     1     2     0     0  4.657014409E+01 -5.895339253E+02 -3.904360409E+02  7.195723240E+02  1.250000000E+02  0.00000E+00  9.000E+00
      25     1     1     2     0     0 -4.994951595E+01  5.940605633E+02 -6.217859819E+02  8.704284660E+02  1.250000000E+02  0.00000E+00  9.000E+00
      21     1     1     2   502   512  3.379371862E+00 -4.526638010E+00 -1.141602434E+02  1.142999203E+02  1.348699152E-06  0.00000E+00  9.000E+00
#rwgt            2          11   1.4339882801887335E-003           6      108599           0
</event>
<event>
      5   9999  3.19816E-02  7.90494E+01 -1.00000E+00  1.28601E-01
       2    -1     0     0   502     0  0.000000000E+00  0.000000000E+00  5.312396011E+02  5.312396011E+02  0.000000000E+00  0.00000E+00  9.000E+00
      21    -1     0     0   501   502  0.000000000E+00  0.000000000E+00 -7.369912914E+02  7.369912914E+02  0.000000000E+00  0.00000E+00  9.000E+00
      25     1     1     2     0     0 -5.031979840E+02 -1.201416836E+02 -1.342590291E+02  5.489013774E+02  1.250000000E+02  0.00000E+00  9.000E+00
      25     1     1     2     0     0  5.599175550E+02  1.752025956E+02 -1.385719874E+02  6.156547845E+02  1.250000000E+02  0.00000E+00  9.000E+00
       2     1     1     2   501     0 -5.671957100E+01 -5.506091203E+01  6.707932615E+01  1.036747306E+02  1.907348633E-06  0.00000E+00  9.000E+00
#rwgt            1           1   2.6945552156300470E-002           6      108649           0
</event>
<event>
      5   9999  3.19816E-02  3.57257E+02 -1.00000E+00  1.03184E-01
      21    -1     0     0   502   501  0.000000000E+00  0.000000000E+00  4.036127292E+02  4.036127292E+02  0.000000000E+00  0.00000E+00  9.000E+00
       1    -1     0     0   501     0  0.000000000E+00  0.000000000E+00 -2.425867308E+03  2.425867308E+03  0.000000000E+00  0.00000E+00  9.000E+00
      25     1     1     2     0     0  1.351343482E+02 -3.803954201E+02 -3.780451229E+02  5.670141821E+02  1.250000000E+02  0.00000E+00  9.000E+00
      25     1     1     2     0     0 -3.169098215E+02  6.879503299E+02 -2.264432214E+02  8.003805494E+02  1.250000000E+02  0.00000E+00  9.000E+00
       1     1     1     2   502     0  1.817754732E+02 -3.075549098E+02 -1.417766234E+03  1.462085306E+03  0.000000000E+00  0.00000E+00  9.000E+00
#rwgt            1           1   2.9696768492790376E-002           6      108769           0
</event>
<event>
      5   9999  3.19816E-02  1.23948E+02 -1.00000E+00  1.19775E-01
       2    -1     0     0   502     0  0.000000000E+00  0.000000000E+00  2.276930625E+03  2.276930625E+03  0.000000000E+00  0.00000E+00  9.000E+00
      21    -1     0     0   501   502  0.000000000E+00  0.000000000E+00 -5.329896375E+02  5.329896375E+02  0.000000000E+00  0.00000E+00  9.000E+00
      25     1     1     2     0     0  5.480192523E+01 -3.513580154E+02  7.791540565E+02  8.655413045E+02  1.250000000E+02  0.00000E+00  9.000E+00
      25     1     1     2     0     0  6.888957330E+01  3.433925892E+02 -4.160326441E+02  5.580075310E+02  1.250000000E+02  0.00000E+00  9.000E+00
       2     1     1     2   501     0 -1.236914985E+02  7.965426179E+00  1.380819575E+03  1.386371427E+03  1.525878906E-05  0.00000E+00  9.000E+00
#rwgt            1           1   3.4946890967051836E-002           6      108828           0
</event>
<event>
      5   9999  3.19816E-02  1.33756E+02 -1.00000E+00  1.18401E-01
      21    -1     0     0   511   501  0.000000000E+00  0.000000000E+00  2.898928668E+02  2.898928668E+02  0.000000000E+00  0.00000E+00  9.000E+00
      21    -1     0     0   501   502  0.000000000E+00  0.000000000E+00 -7.869656776E+02  7.869656776E+02  0.000000000E+00  0.00000E+00  9.000E+00
      25     1     1     2     0     0 -4.564862594E+01  1.517674309E+02 -3.286695779E+01  2.045052250E+02  1.250000000E+02  0.00000E+00  9.000E+00
      25     1     1     2     0     0  4.441661282E+01 -2.855173539E+02 -6.026003740E+02  6.798861711E+02  1.250000000E+02  0.00000E+00  9.000E+00
      21     1     1     2   511   502  1.232013118E+00  1.337499230E+02  1.383945210E+02  1.924671484E+02  3.814697266E-06  0.00000E+00  9.000E+00
#rwgt            2          11   3.5694298819051312E-003           6      108955           0
</event>
<event>
      5   9999  3.19816E-02  4.64175E+01 -1.00000E+00  1.40943E-01
      21    -1     0     0   502   501  0.000000000E+00  0.000000000E+00  1.104485291E+03  1.104485291E+03  0.000000000E+00  0.00000E+00  9.000E+00
      21    -1     0     0   501   512  0.000000000E+00  0.000000000E+00 -4.632863509E+02  4.632863509E+02  0.000000000E+00  0.00000E+00  9.000E+00
      25     1     1     2     0     0 -2.796311536E+02 -5.236683451E+02  5.664616207E+02  8.300155934E+02  1.250000000E+02  0.00000E+00  9.000E+00
      25     1     1     2     0     0  3.211882935E+02  5.443464575E+02  1.383885292E+02  6.589775191E+02  1.250000000E+02  0.00000E+00  9.000E+00
      21     1     1     2   502   512 -4.155713995E+01 -2.067811245E+01 -6.365120966E+01  7.877852948E+01  1.168007728E-06  0.00000E+00  9.000E+00
#rwgt            1           1   2.7185600339388074E-002           6      108975           0
</event>
<event>
      5   9999  3.19816E-02  1.46684E+02 -1.00000E+00  1.16780E-01
      21    -1     0     0   502   501  0.000000000E+00  0.000000000E+00  2.565842349E+02  2.565842349E+02  0.000000000E+00  0.00000E+00  9.000E+00
       2    -1     0     0   501     0  0.000000000E+00  0.000000000E+00 -1.033213201E+03  1.033213201E+03  0.000000000E+00  0.00000E+00  9.000E+00
      25     1     1     2     0     0  1.700167250E+02  1.246758180E+02  1.420233859E+02  2.832761700E+02  1.250000000E+02  0.00000E+00  9.000E+00
      25     1     1     2     0     0 -2.506131611E+01 -1.022252587E+02 -1.430747397E+02  2.171945078E+02  1.250000000E+02  0.00000E+00  9.000E+00
       2     1     1     2   502     0 -1.449554089E+02 -2.245055923E+01 -7.755776127E+02  7.893267583E+02  0.000000000E+00  0.00000E+00  9.000E+00
#rwgt            2          13   1.2397423193255474E-003           6      109073           0
</event>
<event>
      5   9999  3.19816E-02  4.09142E+01 -1.00000E+00  1.44234E-01
      21    -1     0     0   511   501  0.000000000E+00  0.000000000E+00  6.703972498E+02  6.703972498E+02  0.000000000E+00  0.00000E+00  9.000E+00
      21    -1     0     0   501   502  0.000000000E+00  0.000000000E+00 -8.674096862E+01  8.674096862E+01  0.000000000E+00  0.00000E+00  9.000E+00
      25     1     1     2     0     0  5.872715772E+01  8.920262041E+01  2.014468803E+02  2.600227531E+02  1.250000000E+02  0.00000E+00  9.000E+00
      25     1     1     2     0     0 -8.861675777E+01 -6.126362411E+01  6.512880169E+01  1.774060941E+02  1.250000000E+02  0.00000E+00  9.000E+00
      21     1     1     2   511   502  2.988960005E+01 -2.793899630E+01  3.170805992E+02  3.197093713E+02  3.814697266E-06  0.00000E+00  9.000E+00
#rwgt            1           1   2.4556193834814694E-002           6      109092           0
</event>
<event>
      5   9999 -3.19816E-02  3.55913E+00 -1.00000E+00  2.76023E-01
      21    -1     0     0   512   501  0.000000000E+00  0.000000000E+00  1.212873626E+01  1.212873626E+01  0.000000000E+00  0.00000E+00  9.000E+00
      21    -1     0     0   501   502  0.000000000E+00  0.000000000E+00 -3.780594438E+03  3.780594438E+03  0.000000000E+00  0.00000E+00  9.000E+00
      25     1     1     2     0     0  1.078235424E+00 -7.444035535E+00 -4.208984183E+02  4.391321610E+02  1.250000000E+02  0.00000E+00  9.000E+00
      25     1     1     2     0     0  1.327316023E+00  1.006715518E+01 -3.347681758E+03  3.350030039E+03  1.250000000E+02  0.00000E+00  9.000E+00
      21     1     1     2   512   502 -2.405551447E+00 -2.623119640E+00  1.144744438E-01  3.560974419E+00  3.419082923E-07  0.00000E+00  9.000E+00
#rwgt            1           1  -5.8453365212736532E-003           6      109173           0
</event>
<event>
      5   9999  3.33927E-02  1.10240E+02 -1.00000E+00  1.21953E-01
      21    -1     0     0   502   501  0.000000000E+00  0.000000000E+00  3.600334884E+02  3.600334884E+02  0.000000000E+00  0.00000E+00  9.000E+00
       1    -1     0     0   501     0  0.000000000E+00  0.000000000E+00 -2.078781761E+03  2.078781761E+03  0.000000000E+00  0.00000E+00  9.000E+00
      25     1     1     2     0     0 -2.810685142E+02  1.355472490E+02  2.613329790E+02  4.257845609E+02  1.250000000E+02  0.00000E+00  9.000E+00
      25     1     1     2     0     0  1.732315415E+02 -1.126533130E+02 -1.566599634E+03  1.585105470E+03  1.250000000E+02  0.00000E+00  9.000E+00
       1     1     1     2   502     0  1.078369727E+02 -2.289393607E+01 -4.134816170E+02  4.279252184E+02  9.344061824E-06  0.00000E+00  9.000E+00
#rwgt            1           1   3.3462975940509961E-002           6      109735           0
</event>
<event>
      5   9999  3.19816E-02  4.80108E+01 -1.00000E+00  1.40089E-01
       2    -1     0     0   502     0  0.000000000E+00  0.000000000E+00  1.063264736E+03  1.063264736E+03  0.000000000E+00  0.00000E+00  9.000E+00
      21    -1     0     0   501   502  0.000000000E+00  0.000000000E+00 -7.940747628E+01  7.940747628E+01  0.000000000E+00  0.00000E+00  9.000E+00
      25     1     1     2     0     0 -4.236699608E+01  1.040168411E+02  2.476249590E+02  2.992617348E+02  1.250000000E+02  0.00000E+00  9.000E+00
      25     1     1     2     0     0 -3.311080946E+00 -8.923346569E+01  5.912561699E+01  1.646038069E+02  1.250000000E+02  0.00000E+00  9.000E+00
       2     1     1     2   501     0  4.567807702E+01 -1.478337540E+01  6.771066838E+02  6.788066707E+02  7.629394531E-06  0.00000E+00  9.000E+00
#rwgt            1           1   2.9734297127985823E-002           6      109833           0
</event>
<event>
      5   9999  3.19816E-02  5.01161E+01 -1.00000E+00  1.39018E-01
      21    -1     0     0   511   501  0.000000000E+00  0.000000000E+00  5.570742471E+02  5.570742471E+02  0.000000000E+00  0.00000E+00  9.000E+00
      21    -1     0     0   501   502  0.000000000E+00  0.000000000E+00 -1.071611551E+03  1.071611551E+03  0.000000000E+00  0.00000E+00  9.000E+00
      25     1     1     2     0     0  5.923999761E+02  1.050906202E+02 -1.516003483E+02  6.329213504E+02  1.250000000E+02  0.00000E+00  9.000E+00
      25     1     1     2     0     0 -5.944112308E+02 -1.551663156E+02 -5.302595321E+02  8.210977215E+02  1.250000000E+02  0.00000E+00  9.000E+00
      21     1     1     2   511   502  2.011254665E+00  5.007569544E+01  1.673225768E+02  1.746667259E+02  1.907348633E-06  0.00000E+00  9.000E+00
#rwgt            1           1   3.3904398840222873E-002           6      109897           0
</event>
<event>
      5   9999  3.19816E-02  2.73858E+02 -1.00000E+00  1.06895E-01
       1    -1     0     0   502     0  0.000000000E+00  0.000000000E+00  5.275252263E+02  5.275252263E+02  0.000000000E+00  0.00000E+00  9.000E+00
      21    -1     0     0   501   502  0.000000000E+00  0.000000000E+00 -5.576508764E+02  5.576508764E+02  0.000000000E+00  0.00000E+00  9.000E+00
      25     1     1     2     0     0  2.297077212E+02  6.220635236E+01 -1.275846116E+02  2.975535255E+02  1.250000000E+02  0.00000E+00  9.000E+00
      25     1     1     2     0     0 -2.329776808E+02  2.116323450E+02 -1.918710083E+02  3.892381444E+02  1.250000000E+02  0.00000E+00  9.000E+00
       1     1     1     2   501     0  3.269959615E+00 -2.738386974E+02  2.893299698E+02  3.983844327E+02  6.607249480E-06  0.00000E+00  9.000E+00
#rwgt            2          17   4.5021656366829225E-004           6      110251           0
</event>
<event>
      5   9999  3.19816E-02  2.16643E+02 -1.00000E+00  1.10399E-01
       2    -1     0     0   502     0  0.000000000E+00  0.000000000E+00  3.494321793E+03  3.494321793E+03  0.000000000E+00  0.00000E+00  9.000E+00
      21    -1     0     0   501   502  0.000000000E+00  0.000000000E+00 -1.218403810E+02  1.218403810E+02  0.000000000E+00  0.00000E+00  9.000E+00
      25     1     1     2     0     0 -2.326844100E+02 -2.612355720E+02  3.455755902E+02  5.073790962E+02  1.250000000E+02  0.00000E+00  9.000E+00
      25     1     1     2     0     0  3.160924066E+02  6.129253131E+01  8.001544371E+02  8.715178180E+02  1.250000000E+02  0.00000E+00  9.000E+00
       2     1     1     2   501     0 -8.340799661E+01  1.999430406E+02  2.226751384E+03  2.237265259E+03  4.315837288E-05  0.00000E+00  9.000E+00
#rwgt            1           1   2.8477418803863553E-002           6      110300           0
</event>
<event>
      5   9999  3.19816E-02  4.41046E+02 -1.00000E+00  1.00425E-01
      -4    -1     0     0     0   501  0.000000000E+00  0.000000000E+00  2.457277112E+02  2.457277112E+02  0.000000000E+00  0.00000E+00  9.000E+00
      21    -1     0     0   501   502  0.000000000E+00  0.000000000E+00 -1.505157102E+03  1.505157102E+03  0.000000000E+00  0.00000E+00  9.000E+00
      25     1     1     2     0     0  4.323949613E+01 -1.425972587E+02 -1.511196561E+01  1.950820436E+02  1.250000000E+02  0.00000E+00  9.000E+00
      25     1     1     2     0     0  3.914138194E+02  2.174202077E+02 -4.485559279E+02  6.459905148E+02  1.250000000E+02  0.00000E+00  9.000E+00
      -4     1     1     2     0   502 -4.346533156E+02 -7.482294901E+01 -7.957614976E+02  9.098122551E+02  0.000000000E+00  0.00000E+00  9.000E+00
#rwgt            2           2   9.5602089145012075E-006           6      110454           0
</event>
<event>
      5   9999  3.19816E-02  1.99042E+01 -1.00000E+00  1.66541E-01
      21    -1     0     0   511   501  0.000000000E+00  0.000000000E+00  5.568762228E+02  5.568762228E+02  0.000000000E+00  0.00000E+00  9.000E+00
      21    -1     0     0   501   502  0.000000000E+00  0.000000000E+00 -6.170334415E+02  6.170334415E+02  0.000000000E+00  0.00000E+00  9.000E+00
      25     1     1     2     0     0 -1.371757999E+02  5.042713677E+02 -2.244672067E+02  5.823378222E+02  1.250000000E+02  0.00000E+00  9.000E+00
      25     1     1     2     0     0  1.214988614E+02 -5.165356119E+02  1.456256011E+02  5.642719446E+02  1.250000000E+02  0.00000E+00  9.000E+00
      21     1     1     2   511   502  1.567693844E+01  1.226424425E+01  1.868438691E+01  2.729989744E+01  7.152557373E-07  0.00000E+00  9.000E+00
#rwgt            1           1   2.9956957407410299E-002           6      110503           0
</event>
<event>
      5   9999  3.19816E-02  1.06367E+02 -1.00000E+00  1.22634E-01
      21    -1     0     0   502   501  0.000000000E+00  0.000000000E+00  2.848149331E+02  2.848149331E+02  0.000000000E+00  0.00000E+00  9.000E+00
      21    -1     0     0   512   502  0.000000000E+00  0.000000000E+00 -1.516194695E+03  1.516194695E+03  0.000000000E+00  0.00000E+00  9.000E+00
      25     1     1     2     0     0 -5.358924083E+01 -5.526712412E+02 -3.771339807E+02  6.827681502E+02  1.250000000E+02  0.00000E+00  9.000E+00
      25     1     1     2     0     0  1.327265643E+02  4.815985659E+02 -4.009700099E+02  6.526526399E+02  1.250000000E+02  0.00000E+00  9.000E+00
      21     1     1     2   512   501 -7.913732351E+01  7.107267535E+01 -4.532757718E+02  4.655888384E+02  5.394796609E-06  0.00000E+00  9.000E+00
#rwgt            1           1   3.4675599730222571E-002           6      110652           0
</event>
<event>
      5   9999  3.19816E-02  1.18377E+02 -1.00000E+00  1.20620E-01
      21    -1     0     0   502   511  0.000000000E+00  0.000000000E+00  1.432526932E+02  1.432526932E+02  0.000000000E+00  0.00000E+00  9.000E+00
      21    -1     0     0   501   502  0.000000000E+00  0.000000000E+00 -5.849258771E+02  5.849258771E+02  0.000000000E+00  0.00000E+00  9.000E+00
      25     1     1     2     0     0  1.353997562E+02 -2.949474070E+01 -5.678698519E+01  1.950712572E+02  1.250000000E+02  0.00000E+00  9.000E+00
      25     1     1     2     0     0 -1.052506062E+02  1.439681057E+02 -3.453843151E+02  4.083133976E+02  1.250000000E+02  0.00000E+00  9.000E+00
      21     1     1     2   501   511 -3.014915002E+01 -1.144733650E+02 -3.950188348E+01  1.247939154E+02  2.939421655E-06  0.00000E+00  9.000E+00
#rwgt            1           1   2.7759478663612919E-002           6      110749           0
</event>
<event>
      5   9999  3.19816E-02  1.83631E+01 -1.00000E+00  1.69488E-01
      21    -1     0     0   502   512  0.000000000E+00  0.000000000E+00  7.361805715E+02  7.361805715E+02  0.000000000E+00  0.00000E+00  9.000E+00
      21    -1     0     0   501   502  0.000000000E+00  0.000000000E+00 -1.390733504E+02  1.390733504E+02  0.000000000E+00  0.00000E+00  9.000E+00
      25     1     1     2     0     0 -2.900098379E+01  2.252426772E+01 -9.399882508E+01  1.606523539E+02  1.250000000E+02  0.00000E+00  9.000E+00
      25     1     1     2     0     0  4.279443149E+01 -3.464632999E+01  3.954300606E+02  4.183559063E+02  1.250000000E+02  0.00000E+00  9.000E+00
      21     1     1     2   501   512 -1.379344770E+01  1.212206228E+01  2.956759856E+02  2.962456616E+02  0.000000000E+00  0.00000E+00  9.000E+00
#rwgt            1           1   2.7014964781132550E-002           6      110796           0
</event>
<event>
      5   9999  3.19816E-02  6.28521E+01 -1.00000E+00  1.33634E-01
      21    -1     0     0   511   501  0.000000000E+00  0.000000000E+00  7.904190763E+02  7.904190763E+02  0.000000000E+00  0.00000E+00  9.000E+00
      21    -1     0     0   501   502  0.000000000E+00  0.000000000E+00 -1.954294406E+02  1.954294406E+02  0.000000000E+00  0.00000E+00  9.000E+00
      25     1     1     2     0     0 -2.775327080E+02 -1.683538259E+02  3.751425821E+02  5.115900425E+02  1.250000000E+02  0.00000E+00  9.000E+00
      25     1     1     2     0     0  2.296095364E+02  1.276874324E+02  5.269409277E+01  2.956793652E+02  1.250000000E+02  0.00000E+00  9.000E+00
      21     1     1     2   511   502  4.792317165E+01  4.066639352E+01  1.671529608E+02  1.785791092E+02  1.907348633E-06  0.00000E+00  9.000E+00
#rwgt            1           1   3.0047185053249166E-002           6      111022           0
</event>
<event>
      5   9999  3.19816E-02  3.96089E+01 -1.00000E+00  1.45105E-01
      21    -1     0     0   502   512  0.000000000E+00  0.000000000E+00  1.959666369E+02  1.959666369E+02  0.000000000E+00  0.00000E+00  9.000E+00
      21    -1     0     0   501   502  0.000000000E+00  0.000000000E+00 -9.055239600E+02  9.055239600E+02  0.000000000E+00  0.00000E+00  9.000E+00
      25     1     1     2     0     0  2.373137364E+02  2.391916891E+02 -4.512115821E+02  5.768425829E+02  1.250000000E+02  0.00000E+00  9.000E+00
      25     1     1     2     0     0 -2.731304514E+02 -2.222792920E+02 -2.907564389E+02  4.734687254E+02  1.250000000E+02  0.00000E+00  9.000E+00
      21     1     1     2   501   512  3.581671498E+01 -1.691239708E+01  3.241069789E+01  5.117928863E+01  1.168007728E-06  0.00000E+00  9.000E+00
#rwgt            1           1   2.7371810234338712E-002           6      111087           0
</event>
<event>
      5   9999  3.19816E-02  1.40775E+02 -1.00000E+00  1.17497E-01
      21    -1     0     0   502   501  0.000000000E+00  0.000000000E+00  1.843662373E+02  1.843662373E+02  0.000000000E+00  0.00000E+00  9.000E+00
      21    -1     0     0   501   511  0.000000000E+00  0.000000000E+00 -7.826885736E+02  7.826885736E+02  0.000000000E+00  0.00000E+00  9.000E+00
      25     1     1     2     0     0  9.265488843E+01 -1.813149437E+02 -2.033143163E+01  2.397882488E+02  1.250000000E+02  0.00000E+00  9.000E+00
      25     1     1     2     0     0  1.456397812E+01  2.725388697E+02 -4.084709181E+02  5.069152157E+02  1.250000000E+02  0.00000E+00  9.000E+00
      21     1     1     2   502   511 -1.072188665E+02 -9.122392598E+01 -1.695199866E+02  2.203513464E+02  1.907348633E-06  0.00000E+00  9.000E+00
#rwgt            1           1   2.8073016890451802E-002           6      111204           0
</event>
<event>
      5   9999  3.26586E-02  8.27774E+01 -1.00000E+00  1.27636E-01
      21    -1     0     0   512   501  0.000000000E+00  0.000000000E+00  2.887175510E+02  2.887175510E+02  0.000000000E+00  0.00000E+00  9.000E+00
      21    -1     0     0   501   502  0.000000000E+00  0.000000000E+00 -1.153923268E+03  1.153923268E+03  0.000000000E+00  0.00000E+00  9.000E+00
      25     1     1     2     0     0 -3.244394114E+01  6.387025287E+01  2.318928664E+02  2.730042491E+02  1.250000000E+02  0.00000E+00  9.000E+00
      25     1     1     2     0     0  1.089617555E+01  1.605335963E+01 -1.077067181E+03  1.084469985E+03  1.250000000E+02  0.00000E+00  9.000E+00
      21     1     1     2   512   502  2.154776559E+01 -7.992361250E+01 -2.003140247E+01  8.516658454E+01  2.037049233E-06  0.00000E+00  9.000E+00
#rwgt            1           1   3.2696081896045420E-002           6      111237           0
</event>
<event>
      5   9999  3.19816E-02  2.11887E+02 -1.00000E+00  1.10743E-01
       3    -1     0     0   502     0  0.000000000E+00  0.000000000E+00  3.185898635E+02  3.185898635E+02  0.000000000E+00  0.00000E+00  9.000E+00
      21    -1     0     0   501   502  0.000000000E+00  0.000000000E+00 -1.614458341E+03  1.614458341E+03  0.000000000E+00  0.00000E+00  9.000E+00
      25     1     1     2     0     0 -3.289693004E+02  1.682327251E+02 -1.139286474E+03  1.204209998E+03  1.250000000E+02  0.00000E+00  9.000E+00
      25     1     1     2     0     0  1.214206133E+02 -1.255769721E+02 -3.701724533E+02  4.279780210E+02  1.250000000E+02  0.00000E+00  9.000E+00
       3     1     1     2   501     0  2.075486871E+02 -4.265575306E+01  2.135904498E+02  3.008601852E+02  8.092194914E-06  0.00000E+00  9.000E+00
#rwgt            1           1   2.7933800941075133E-002           6      111377           0
</event>
<event>
      5   9999  3.19816E-02  2.13308E+01 -1.00000E+00  1.64093E-01
      21    -1     0     0   502   501  0.000000000E+00  0.000000000E+00  1.985920226E+03  1.985920226E+03  0.000000000E+00  0.00000E+00  9.000E+00
      21    -1     0     0   501   511  0.000000000E+00  0.000000000E+00 -1.429535254E+02  1.429535254E+02  0.000000000E+00  0.00000E+00  9.000E+00
      25     1     1     2     0     0  1.885458973E+02  3.561527460E+02  1.518812432E+03  1.576328182E+03  1.250000000E+02  0.00000E+00  9.000E+00
      25     1     1     2     0     0 -1.697765734E+02 -3.662876381E+02  3.215708677E+02  5.310588872E+02  1.250000000E+02  0.00000E+00  9.000E+00
      21     1     1     2   502   511 -1.876932389E+01  1.013489212E+01  2.583401109E+00  2.148668236E+01  2.615143176E-07  0.00000E+00  9.000E+00
#rwgt            1           1   2.4854089595141928E-002           6      111419           0
</event>
<event>
      5   9999  3.19816E-02  7.05366E+01 -1.00000E+00  1.31053E-01
      21    -1     0     0   512   501  0.000000000E+00  0.000000000E+00  1.625385362E+03  1.625385362E+03  0.000000000E+00  0.00000E+00  9.000E+00
      21    -1     0     0   501   502  0.000000000E+00  0.000000000E+00 -1.567179781E+03  1.567179781E+03  0.000000000E+00  0.00000E+00  9.000E+00
      25     1     1     2     0     0 -4.818880580E+02  4.009659976E+01  1.325252946E+03  1.416242991E+03  1.250000000E+02  0.00000E+00  9.000E+00
      25     1     1     2     0     0  4.958121714E+02 -1.092452104E+02 -1.470657369E+03  1.560840262E+03  1.250000000E+02  0.00000E+00  9.000E+00
      21     1     1     2   512   502 -1.392411336E+01  6.914861068E+01  2.036100043E+02  2.154818905E+02  2.697398305E-06  0.00000E+00  9.000E+00
#rwgt            1           1   4.1584158714168498E-002           6      111559           0
</event>
<event>
      5   9999  3.19816E-02  5.58676E+01 -1.00000E+00  1.36381E-01
      21    -1     0     0   511   501  0.000000000E+00  0.000000000E+00  1.616420097E+03  1.616420097E+03  0.000000000E+00  0.00000E+00  9.000E+00
      21    -1     0     0   501   502  0.000000000E+00  0.000000000E+00 -8.896143753E+01  8.896143753E+01  0.000000000E+00  0.00000E+00  9.000E+00
      25     1     1     2     0     0  4.441699551E+01  8.895530819E+01 -1.569712312E+00  1.597290842E+02  1.250000000E+02  0.00000E+00  9.000E+00
      25     1     1     2     0     0 -9.216645006E+01 -5.995220473E+01  1.254456722E+03  1.265454697E+03  1.250000000E+02  0.00000E+00  9.000E+00
      21     1     1     2   511   502  4.774945455E+01 -2.900310346E+01  2.745716496E+02  2.801977538E+02  3.814697266E-06  0.00000E+00  9.000E+00
#rwgt            1           1   3.0882895114397953E-002           6      111719           0
</event>
<event>
      5   9999  3.19816E-02  2.07280E+01 -1.00000E+00  1.65098E-01
      21    -1     0     0   502   501  0.000000000E+00  0.000000000E+00  2.990734198E+02  2.990734198E+02  0.000000000E+00  0.00000E+00  9.000E+00
      21    -1     0     0   512   502  0.000000000E+00  0.000000000E+00 -2.314804439E+02  2.314804439E+02  0.000000000E+00  0.00000E+00  9.000E+00
      25     1     1     2     0     0 -9.039900925E+01  1.119994926E+02 -1.261890378E+02  2.286143925E+02  1.250000000E+02  0.00000E+00  9.000E+00
      25     1     1     2     0     0  1.089294383E+02 -1.212877214E+02  1.919150892E+02  2.811276139E+02  1.250000000E+02  0.00000E+00  9.000E+00
      21     1     1     2   512   501 -1.853042902E+01  9.288228755E+00  1.866924551E+00  2.081185721E+01  2.511188320E-07  0.00000E+00  9.000E+00
#rwgt            1           1   2.7189221525006128E-002           6      111798           0
</event>
<event>
      5   9999  3.19816E-02  1.75426E+02 -1.00000E+00  1.13761E-01
      21    -1     0     0   502   501  0.000000000E+00  0.000000000E+00  9.658445537E+01  9.658445537E+01  0.000000000E+00  0.00000E+00  9.000E+00
       2    -1     0     0   501     0  0.000000000E+00  0.000000000E+00 -8.780194829E+02  8.780194829E+02  0.000000000E+00  0.00000E+00  9.000E+00
      25     1     1     2     0     0 -2.290388193E+01  6.429731497E+01 -4.150724145E+01  1.483461614E+02  1.250000000E+02  0.00000E+00  9.000E+00
      25     1     1     2     0     0  1.136316830E+02  8.584534961E+01 -4.347738695E+02  4.742730238E+02  1.250000000E+02  0.00000E+00  9.000E+00
       2     1     1     2   502     0 -9.072780105E+01 -1.501426646E+02 -3.051539165E+02  3.519847531E+02  0.000000000E+00  0.00000E+00  9.000E+00
#rwgt            1           1   2.4729844457902737E-002           6      111966           0
</event>
<event>
      5   9999  3.19816E-02  2.04312E+02 -1.00000E+00  1.11312E-01
      21    -1     0     0   502   501  0.000000000E+00  0.000000000E+00  1.495720289E+02  1.495720289E+02  0.000000000E+00  0.00000E+00  9.000E+00
       1    -1     0     0   501     0  0.000000000E+00  0.000000000E+00 -2.610173081E+03  2.610173081E+03  0.000000000E+00  0.00000E+00  9.000E+00
      25     1     1     2     0     0 -2.555961852E+02  8.799269168E+01 -1.417541460E+02  3.298353553E+02  1.250000000E+02  0.00000E+00  9.000E+00
      25     1     1     2     0     0  4.393491208E+02  1.328459142E+00 -1.997867849E+03  2.049421956E+03  1.250000000E+02  0.00000E+00  9.000E+00
       1     1     1     2   502     0 -1.837529356E+02 -8.932115082E+01 -3.209790577E+02  3.804877985E+02  3.814697266E-06  0.00000E+00  9.000E+00
#rwgt            1           1   2.6850128333896047E-002           6      112009           0
</event>
<event>
      5   9999  3.19816E-02  1.11986E+02 -1.00000E+00  1.21656E-01
      21    -1     0     0   502   501  0.000000000E+00  0.000000000E+00  1.621340726E+02  1.621340726E+02  0.000000000E+00  0.00000E+00  9.000E+00
      21    -1     0     0   501   511  0.000000000E+00  0.000000000E+00 -8.686468344E+02  8.686468344E+02  0.000000000E+00  0.00000E+00  9.000E+00
      25     1     1     2     0     0  1.295985942E+02  1.943444194E+02  1.060129427E-01  2.649350113E+02  1.250000000E+02  0.00000E+00  9.000E+00
      25     1     1     2     0     0 -7.368623692E+01 -9.731563579E+01 -3.364543438E+02  3.791128063E+02  1.250000000E+02  0.00000E+00  9.000E+00
      21     1     1     2   502   511 -5.591235725E+01 -9.702878362E+01 -3.701644309E+02  3.867330895E+02  5.394796609E-06  0.00000E+00  9.000E+00
#rwgt            1           1   3.0038817325088816E-002           6      112081           0
</event>
<event>
      5   9999  3.19816E-02  6.81729E+01 -1.00000E+00  1.31805E-01
      21    -1     0     0   502   501  0.000000000E+00  0.000000000E+00  1.003419331E+02  1.003419331E+02  0.000000000E+00  0.00000E+00  9.000E+00
       2    -1     0     0   501     0  0.000000000E+00  0.000000000E+00 -4.467162589E+03  4.467162589E+03  0.000000000E+00  0.00000E+00  9.000E+00
      25     1     1     2     0     0 -5.870901126E+02  9.272365844E+01 -1.461700545E+03  1.582866375E+03  1.250000000E+02  0.00000E+00  9.000E+00
      25     1     1     2     0     0  5.215328000E+02 -1.114261151E+02 -1.904699458E+03  1.981897390E+03  1.250000000E+02  0.00000E+00  9.000E+00
       2     1     1     2   502     0  6.555731269E+01  1.870245662E+01 -1.000420653E+03  1.002740757E+03  2.157918644E-05  0.00000E+00  9.000E+00
#rwgt            1           1   3.0630388921116407E-002           6      112161           0
</event>
<event>
      5   9999  3.19816E-02  5.28082E+02 -1.00000E+00  9.81825E-02
      21    -1     0     0   511   501  0.000000000E+00  0.000000000E+00  1.132183161E+03  1.132183161E+03  0.000000000E+00  0.00000E+00  9.000E+00
      21    -1     0     0   501   502  0.000000000E+00  0.000000000E+00 -6.276756750E+02  6.276756750E+02  0.000000000E+00  0.00000E+00  9.000E+00
      25     1     1     2     0     0 -2.391714893E+02 -4.860164284E+02 -3.359132849E+02  6.495211351E+02  1.250000000E+02  0.00000E+00  9.000E+00
      25     1     1     2     0     0 -4.864277615E+01  4.326003044E+01  3.953395351E+02  4.197093017E+02  1.250000000E+02  0.00000E+00  9.000E+00
      21     1     1     2   511   502  2.878142655E+02  4.427563980E+02  4.450812358E+02  6.906283993E+02  1.321449896E-05  0.00000E+00  9.000E+00
#rwgt            2          11   1.9755857838765294E-003           6      112438           0
</event>
<event>
      5   9999  3.19816E-02  1.04594E+02 -1.00000E+00  1.22957E-01
      21    -1     0     0   512   501  0.000000000E+00  0.000000000E+00  1.127894459E+03  1.127894459E+03  0.000000000E+00  0.00000E+00  9.000E+00
      21    -1     0     0   501   502  0.000000000E+00  0.000000000E+00 -6.414787304E+01  6.414787304E+01  0.000000000E+00  0.00000E+00  9.000E+00
      25     1     1     2     0     0  5.224313582E+01 -3.105642659E+01  3.169156561E+02  3.460554579E+02  1.250000000E+02  0.00000E+00  9.000E+00
      25     1     1     2     0     0  4.901652715E+01  5.725607230E+01  7.137658042E+01  1.624822882E+02  1.250000000E+02  0.00000E+00  9.000E+00
      21     1     1     2   512   502 -1.012596630E+02 -2.619964571E+01  6.754543496E+02  6.835045861E+02  1.078959322E-05  0.00000E+00  9.000E+00
#rwgt            1           1   6.2223045567058204E-002           6      112458           0
</event>
<event>
      5   9999  3.19816E-02  1.40434E+02 -1.00000E+00  1.17539E-01
      21    -1     0     0   502   501  0.000000000E+00  0.000000000E+00  8.268752928E+02  8.268752928E+02  0.000000000E+00  0.00000E+00  9.000E+00
      21    -1     0     0   501   511  0.000000000E+00  0.000000000E+00 -2.133724740E+03  2.133724740E+03  0.000000000E+00  0.00000E+00  9.000E+00
      25     1     1     2     0     0  4.067533128E+02 -9.759249103E+02 -5.351440504E+02  1.191587950E+03  1.250000000E+02  0.00000E+00  9.000E+00
      25     1     1     2     0     0 -4.432591971E+02  1.111530751E+03 -2.501665481E+02  1.228896915E+03  1.250000000E+02  0.00000E+00  9.000E+00
      21     1     1     2   502   511  3.650588423E+01 -1.356058408E+02 -5.215388481E+02  5.401151671E+02  7.629394531E-06  0.00000E+00  9.000E+00
#rwgt            1           1   7.9594563445798294E-002           6      112519           0
</event>
<event>
      5   9999  3.19816E-02  5.81370E+01 -1.00000E+00  1.35440E-01
      21    -1     0     0   502   501  0.000000000E+00  0.000000000E+00  9.250878584E+02  9.250878584E+02  0.000000000E+00  0.00000E+00  9.000E+00
       1    -1     0     0   501     0  0.000000000E+00  0.000000000E+00 -2.632545745E+02  2.632545745E+02  0.000000000E+00  0.00000E+00  9.000E+00
      25     1     1     2     0     0 -2.319929586E+02  2.231709658E+02  7.714830882E+01  3.538401820E+02  1.250000000E+02  0.00000E+00  9.000E+00
      25     1     1     2     0     0  2.131181343E+02 -2.781587416E+02  6.488318712E+02  7.479300916E+02  1.250000000E+02  0.00000E+00  9.000E+00
       1     1     1     2   502     0  1.887482431E+01  5.498777579E+01 -6.414689619E+01  8.657215933E+01  2.132480600E-06  0.00000E+00  9.000E+00
#rwgt            1           1   2.8759438616681784E-002           6      112587           0
</event>
<event>
      5   9999  3.19816E-02  1.41669E+01 -1.00000E+00  1.79754E-01
      21    -1     0     0   502   501  0.000000000E+00  0.000000000E+00  1.099328619E+02  1.099328619E+02  0.000000000E+00  0.00000E+00  9.000E+00
      21    -1     0     0   501   511  0.000000000E+00  0.000000000E+00 -4.739785625E+02  4.739785625E+02  0.000000000E+00  0.00000E+00  9.000E+00
      25     1     1     2     0     0  1.599101388E+02  3.218939130E+01 -9.841732714E+01  2.278560504E+02  1.250000000E+02  0.00000E+00  9.000E+00
      25     1     1     2     0     0 -1.458331269E+02 -3.059603560E+01 -1.668208996E+02  2.562374501E+02  1.250000000E+02  0.00000E+00  9.000E+00
      21     1     1     2   502   511 -1.407701185E+01 -1.593355707E+00 -9.880747383E+01  9.981792389E+01  0.000000000E+00  0.00000E+00  9.000E+00
#rwgt            1           1   2.9568452375658423E-002           6      112670           0
</event>
<event>
      5   9999  3.19816E-02  3.21038E+01  7.55638E-03  1.51023E-01
      -2    -1     0     0     0   501  0.000000000E+00  0.000000000E+00  1.338835651E+03  1.338835651E+03  0.000000000E+00  0.00000E+00  9.000E+00
       2    -1     0     0   502     0  0.000000000E+00  0.000000000E+00 -6.095889859E+01  6.095889859E+01  0.000000000E+00  0.00000E+00  9.000E+00
      25     1     1     2     0     0  1.681145929E+02 -1.402980142E+02  7.652569733E+02  8.057228334E+02  1.250000000E+02  0.00000E+00  9.000E+00
      25     1     1     2     0     0 -1.911051679E+02  1.178906842E+02  3.880551572E+02  4.654365732E+02  1.250000000E+02  0.00000E+00  9.000E+00
      21     1     1     2   502   501  2.299057496E+01  2.240733003E+01  1.245646223E+02  1.286351434E+02  2.336015456E-06  0.00000E+00  9.000E+00
#rwgt            3           4   3.0776418054338485E-008           6      112822           0
</event>
<event>
      5   9999  3.19816E-02  9.09619E+01 -1.00000E+00  1.25707E-01
      21    -1     0     0   511   501  0.000000000E+00  0.000000000E+00  6.057668949E+02  6.057668949E+02  0.000000000E+00  0.00000E+00  9.000E+00
      21    -1     0     0   501   502  0.000000000E+00  0.000000000E+00 -3.597650679E+02  3.597650679E+02  0.000000000E+00  0.00000E+00  9.000E+00
      25     1     1     2     0     0  2.150893615E+02 -2.382237187E+02 -5.922985528E+01  3.494955641E+02  1.250000000E+02  0.00000E+00  9.000E+00
      25     1     1     2     0     0 -2.337515412E+02  3.272505850E+02  1.724339293E+02  4.550727287E+02  1.250000000E+02  0.00000E+00  9.000E+00
      21     1     1     2   511   502  1.866217967E+01 -8.902686630E+01  1.327977529E+02  1.609636700E+02  0.000000000E+00  0.00000E+00  9.000E+00
#rwgt            1           1   3.0020360715198917E-002           6      112841           0
</event>
<event>
      5   9999  3.19816E-02  5.79079E+02 -1.00000E+00  9.70736E-02
      21    -1     0     0   502   501  0.000000000E+00  0.000000000E+00  2.632067751E+03  2.632067751E+03  0.000000000E+00  0.00000E+00  9.000E+00
      21    -1     0     0   512   502  0.000000000E+00  0.000000000E+00 -7.109340015E+02  7.109340015E+02  0.000000000E+00  0.00000E+00  9.000E+00
      25     1     1     2     0     0  5.924573489E+02  1.565534001E+02  1.776447346E+03  1.883322822E+03  1.250000000E+02  0.00000E+00  9.000E+00
      25     1     1     2     0     0 -4.399724877E+02 -7.151957884E+02 -4.551485193E+01  8.501631652E+02  1.250000000E+02  0.00000E+00  9.000E+00
      21     1     1     2   512   501 -1.524848612E+02  5.586423883E+02  1.902012551E+02  6.095157655E+02  1.078959322E-05  0.00000E+00  9.000E+00
#rwgt            2          11   2.6235722596165884E-003           6      112947           0
</event>
<event>
      5   9999  3.19816E-02  2.08759E+01 -1.00000E+00  1.64848E-01
      21    -1     0     0   502   501  0.000000000E+00  0.000000000E+00  6.961023406E+02  6.961023406E+02  0.000000000E+00  0.00000E+00  9.000E+00
      21    -1     0     0   511   502  0.000000000E+00  0.000000000E+00 -2.406084059E+02  2.406084059E+02  0.000000000E+00  0.00000E+00  9.000E+00
      25     1     1     2     0     0  1.628625143E+02  1.795349903E+02 -8.334876102E+01  2.851824456E+02  1.250000000E+02  0.00000E+00  9.000E+00
      25     1     1     2     0     0 -1.486555764E+02 -1.948309034E+02  5.586735263E+02  6.227348314E+02  1.250000000E+02  0.00000E+00  9.000E+00
      21     1     1     2   511   501 -1.420693797E+01  1.529591319E+01 -1.983083053E+01  2.879346950E+01  5.331201500E-07  0.00000E+00  9.000E+00
#rwgt            1           1   3.0485655197946816E-002           6      112997           0
</event>
<event>
      5   9999  3.19816E-02  2.24974E+01 -1.00000E+00  1.62260E-01
       2    -1     0     0   502     0  0.000000000E+00  0.000000000E+00  6.827801834E+01  6.827801834E+01  0.000000000E+00  0.00000E+00  9.000E+00
      21    -1     0     0   501   502  0.000000000E+00  0.000000000E+00 -4.931804065E+02  4.931804065E+02  0.000000000E+00  0.00000E+00  9.000E+00
      25     1     1     2     0     0  1.067331878E+01 -4.821146471E+01 -3.530470798E+02  3.777638225E+02  1.250000000E+02  0.00000E+00  9.000E+00
      25     1     1     2     0     0  8.997404391E+00  5.912908759E+01 -7.971407399E+01  1.598641169E+02  1.250000000E+02  0.00000E+00  9.000E+00
       2     1     1     2   501     0 -1.967072317E+01 -1.091762288E+01  7.858765585E+00  2.383048543E+01  5.127385418E-07  0.00000E+00  9.000E+00
#rwgt            1           1   8.2603101646361074E-002           6      113202           0
</event>
<event>
      5   9999  3.19816E-02  2.27934E+02 -1.00000E+00  1.09619E-01
      21    -1     0     0   502   501  0.000000000E+00  0.000000000E+00  8.933849041E+01  8.933849041E+01  0.000000000E+00  0.00000E+00  9.000E+00
       1    -1     0     0   501     0  0.000000000E+00  0.000000000E+00 -2.146250982E+03  2.146250982E+03  0.000000000E+00  0.00000E+00  9.000E+00
      25     1     1     2     0     0  7.111558027E+01 -3.766005320E+02 -1.211021242E+03  1.276355294E+03  1.250000000E+02  0.00000E+00  9.000E+00
      25     1     1     2     0     0 -1.063034885E+02  1.513989900E+02 -3.847611343E+02  4.448462839E+02  1.250000000E+02  0.00000E+00  9.000E+00
       1     1     1     2   502     0  3.518790823E+01  2.252015420E+02 -4.611301153E+02  5.143878951E+02  5.394796609E-06  0.00000E+00  9.000E+00
#rwgt            1           1   2.3873485329246651E-002           6      113303           0
</event>
<event>
      5   9999  3.19816E-02  4.09243E+01 -1.00000E+00  1.44228E-01
      21    -1     0     0   502   511  0.000000000E+00  0.000000000E+00  1.195854905E+03  1.195854905E+03  0.000000000E+00  0.00000E+00  9.000E+00
      21    -1     0     0   501   502  0.000000000E+00  0.000000000E+00 -9.303848387E+01  9.303848387E+01  0.000000000E+00  0.00000E+00  9.000E+00
      25     1     1     2     0     0 -1.256283587E+01 -2.254500052E+02  1.765994280E+02  3.127265381E+02  1.250000000E+02  0.00000E+00  9.000E+00
      25     1     1     2     0     0  5.338276238E+01  2.283710070E+02  8.328769778E+02  8.742494474E+02  1.250000000E+02  0.00000E+00  9.000E+00
      21     1     1     2   501   511 -4.081992651E+01 -2.921001872E+00  9.334001569E+01  1.019174037E+02  0.000000000E+00  0.00000E+00  9.000E+00
#rwgt            1           1   3.1640476549328035E-002           6      113334           0
</event>
<event>
      5   9999  3.19816E-02  1.76011E+01 -1.00000E+00  1.71082E-01
      21    -1     0     0   502   512  0.000000000E+00  0.000000000E+00  9.135026684E+01  9.135026684E+01  0.000000000E+00  0.00000E+00  9.000E+00
      21    -1     0     0   501   502  0.000000000E+00  0.000000000E+00 -7.731952787E+02  7.731952787E+02  0.000000000E+00  0.00000E+00  9.000E+00
      25     1     1     2     0     0  1.510020401E+02 -1.375553080E+02 -4.371766583E+02  4.984691660E+02  1.250000000E+02  0.00000E+00  9.000E+00
      25     1     1     2     0     0 -1.624998180E+02  1.508819337E+02 -2.317296902E+02  3.442313148E+02  1.250000000E+02  0.00000E+00  9.000E+00
      21     1     1     2   501   512  1.149777782E+01 -1.332662564E+01 -1.293866338E+01  2.184506479E+01  3.769728732E-07  0.00000E+00  9.000E+00
#rwgt            1           1   1.9670879569513144E-002           6      113388           0
</event>
<event>
      5   9999  3.19816E-02  8.19748E+01 -1.00000E+00  1.27839E-01
      21    -1     0     0   502   501  0.000000000E+00  0.000000000E+00  9.787154522E+02  9.787154522E+02  0.000000000E+00  0.00000E+00  9.000E+00
      21    -1     0     0   501   511  0.000000000E+00  0.000000000E+00 -2.037333869E+03  2.037333869E+03  0.000000000E+00  0.00000E+00  9.000E+00
      25     1     1     2     0     0  1.024697075E+03  6.426648630E+02  2.251772319E+02  1.236669724E+03  1.250000000E+02  0.00000E+00  9.000E+00
      25     1     1     2     0     0 -9.427240547E+02 -6.421251797E+02 -1.225115513E+03  1.678566773E+03  1.250000000E+02  0.00000E+00  9.000E+00
      21     1     1     2   502   511 -8.197301999E+01 -5.396832604E-01 -5.868013580E+01  1.008128246E+02  1.507891493E-06  0.00000E+00  9.000E+00
#rwgt            1           1   5.6243819758843655E-002           6      113550           0
</event>
<event>
      5   9999  3.19816E-02  2.98282E+01 -1.00000E+00  1.53213E-01
      21    -1     0     0   502   512  0.000000000E+00  0.000000000E+00  6.795182462E+02  6.795182462E+02  0.000000000E+00  0.00000E+00  9.000E+00
      21    -1     0     0   501   502  0.000000000E+00  0.000000000E+00 -2.342338236E+02  2.342338236E+02  0.000000000E+00  0.00000E+00  9.000E+00
      25     1     1     2     0     0  8.114504051E+01  1.137605523E+02  1.649792731E+02  2.497381457E+02  1.250000000E+02  0.00000E+00  9.000E+00
      25     1     1     2     0     0 -1.013687729E+02 -1.356859097E+02 -1.334146099E+02  2.492202888E+02  1.250000000E+02  0.00000E+00  9.000E+00
      21     1     1     2   501   512  2.022373238E+01  2.192535740E+01  4.137197594E+02  4.147936354E+02  7.629394531E-06  0.00000E+00  9.000E+00
#rwgt            1           1   2.9174985080642288E-002           6      113662           0
</event>
<event>
      5   9999  3.19816E-02  2.48301E+01 -1.00000E+00  1.58973E-01
      21    -1     0     0   502   511  0.000000000E+00  0.000000000E+00  4.929793734E+02  4.929793734E+02  0.000000000E+00  0.00000E+00  9.000E+00
      21    -1     0     0   501   502  0.000000000E+00  0.000000000E+00 -8.571096466E+02  8.571096466E+02  0.000000000E+00  0.00000E+00  9.000E+00
      25     1     1     2     0     0  1.514886093E+02  5.505943805E+02 -4.874477284E+01  5.866038045E+02  1.250000000E+02  0.00000E+00  9.000E+00
      25     1     1     2     0     0 -1.491219135E+02 -5.258773028E+02 -3.912048843E+02  6.837035499E+02  1.250000000E+02  0.00000E+00  9.000E+00
      21     1     1     2   501   511 -2.366695756E+00 -2.471707772E+01  7.581938395E+01  7.978166558E+01  9.536743164E-07  0.00000E+00  9.000E+00
#rwgt            1           1   2.8895307610817950E-002           6      113783           0
</event>
<event>
      5   9999  3.19816E-02  4.68640E+01 -1.00000E+00  1.40700E-01
      21    -1     0     0   502   501  0.000000000E+00  0.000000000E+00  7.731333247E+02  7.731333247E+02  0.000000000E+00  0.00000E+00  9.000E+00
      21    -1     0     0   512   502  0.000000000E+00  0.000000000E+00 -4.148922035E+02  4.148922035E+02  0.000000000E+00  0.00000E+00  9.000E+00
      25     1     1     2     0     0 -2.947921583E+02  2.551179326E+02 -1.866256517E+02  4.499352287E+02  1.250000000E+02  0.00000E+00  9.000E+00
      25     1     1     2     0     0  3.280106726E+02 -2.220609001E+02  5.518601241E+02  6.907073485E+02  1.250000000E+02  0.00000E+00  9.000E+00
      21     1     1     2   512   501 -3.321851428E+01 -3.305703252E+01 -6.993351190E+00  4.738295106E+01  8.429369702E-08  0.00000E+00  9.000E+00
#rwgt            1           1   2.5127082077435605E-002           6      114033           0
</event>
<event>
      5   9999  3.19816E-02  7.75539E+01 -1.00000E+00  1.29006E-01
      21    -1     0     0   502   501  0.000000000E+00  0.000000000E+00  1.852949773E+03  1.852949773E+03  0.000000000E+00  0.00000E+00  9.000E+00
      21    -1     0     0   501   511  0.000000000E+00  0.000000000E+00 -6.505461050E+01  6.505461050E+01  0.000000000E+00  0.00000E+00  9.000E+00
      25     1     1     2     0     0  2.171318168E+02 -1.448044746E+02  1.174631248E+03  1.209751268E+03  1.250000000E+02  0.00000E+00  9.000E+00
      25     1     1     2     0     0 -2.173129068E+02  6.725082261E+01  5.499890845E+02  6.081616279E+02  1.250000000E+02  0.00000E+00  9.000E+00
      21     1     1     2   502   511  1.810899467E-01  7.755365197E+01  6.327482944E+01  1.000914870E+02  6.743495762E-07  0.00000E+00  9.000E+00
#rwgt            2          11   1.3780458167602736E-002           6      114268           0
</event>
<event>
      5   9999  3.19816E-02  3.35602E+01 -1.00000E+00  1.49732E-01
      21    -1     0     0   502   512  0.000000000E+00  0.000000000E+00  7.305701780E+02  7.305701780E+02  0.000000000E+00  0.00000E+00  9.000E+00
      21    -1     0     0   501   502  0.000000000E+00  0.000000000E+00 -1.176732448E+03  1.176732448E+03  0.000000000E+00  0.00000E+00  9.000E+00
      25     1     1     2     0     0 -1.034208276E+02 -1.422486622E+02  3.690574303E+02  4.275031419E+02  1.250000000E+02  0.00000E+00  9.000E+00
      25     1     1     2     0     0  7.034113783E+01  1.365897543E+02 -1.138086662E+03  1.155193009E+03  1.250000000E+02  0.00000E+00  9.000E+00
      21     1     1     2   501   512  3.307968977E+01  5.658907878E+00  3.228669617E+02  3.246064757E+02  3.814697266E-06  0.00000E+00  9.000E+00
#rwgt            1           1   3.0061080192016438E-002           6      114333           0
</event>
<event>
      5   9999  3.19816E-02  1.20541E+02 -1.00000E+00  1.20285E-01
      21    -1     0     0   502   501  0.000000000E+00  0.000000000E+00  1.096535195E+03  1.096535195E+03  0.000000000E+00  0.00000E+00  9.000E+00
      21    -1     0     0   501   511  0.000000000E+00  0.000000000E+00 -2.398153690E+02  2.398153690E+02  0.000000000E+00  0.00000E+00  9.000E+00
      25     1     1     2     0     0 -4.340655356E+02 -1.627135165E+02  4.392565875E+02  6.507379867E+02  1.250000000E+02  0.00000E+00  9.000E+00
      25     1     1     2     0     0  3.541661763E+02  7.245694556E+01  4.159156904E+02  5.650615462E+02  1.250000000E+02  0.00000E+00  9.000E+00
      21     1     1     2   502   511  7.989935927E+01  9.025657093E+01  1.547548080E+00  1.205510312E+02  3.164102898E-06  0.00000E+00  9.000E+00
#rwgt            2          11   4.2608088139643105E-003           6      114542           0
</event>
<event>
      5   9999  3.19816E-02  6.30739E+01 -1.00000E+00  1.33554E-01
      21    -1     0     0   512   501  0.000000000E+00  0.000000000E+00  9.188992177E+02  9.188992177E+02  0.000000000E+00  0.00000E+00  9.000E+00
      21    -1     0     0   501   502  0.000000000E+00  0.000000000E+00 -1.012853437E+03  1.012853437E+03  0.000000000E+00  0.00000E+00  9.000E+00
      25     1     1     2     0     0  3.515715021E-01  7.884103552E+02  2.365350464E+02  8.325652166E+02  1.250000000E+02  0.00000E+00  9.000E+00
      25     1     1     2     0     0 -8.011002795E+00 -8.510174550E+02 -4.449844589E+02  9.684684061E+02  1.250000000E+02  0.00000E+00  9.000E+00
      21     1     1     2   512   502  7.659431293E+00  6.260709985E+01  1.144951936E+02  1.307190315E+02  2.336015456E-06  0.00000E+00  9.000E+00
#rwgt            1           1   3.3594253435410303E-002           6      114562           0
</event>
<event>
      5   9999  3.19816E-02  5.88289E+01 -1.00000E+00  1.35162E-01
      21    -1     0     0   502   501  0.000000000E+00  0.000000000E+00  2.720502415E+02  2.720502415E+02  0.000000000E+00  0.00000E+00  9.000E+00
      21    -1     0     0   501   511  0.000000000E+00  0.000000000E+00 -2.146356034E+03  2.146356034E+03  0.000000000E+00  0.00000E+00  9.000E+00
      25     1     1     2     0     0  5.919034768E+02  2.213045603E+02 -5.589896942E+02  8.528891560E+02  1.250000000E+02  0.00000E+00  9.000E+00
      25     1     1     2     0     0 -6.075079794E+02 -1.645829451E+02 -7.086851675E+02  9.560403534E+02  1.250000000E+02  0.00000E+00  9.000E+00
      21     1     1     2   502   511  1.560450255E+01 -5.672161527E+01 -6.066309304E+02  6.094767656E+02  7.629394531E-06  0.00000E+00  9.000E+00
#rwgt            1           1   2.8156784494412126E-002           6      114688           0
</event>
<event>
      5   9999  3.19816E-02  4.11093E+01 -1.00000E+00  1.44107E-01
      21    -1     0     0   512   501  0.000000000E+00  0.000000000E+00  2.987090450E+02  2.987090450E+02  0.000000000E+00  0.00000E+00  9.000E+00
      21    -1     0     0   501   502  0.000000000E+00  0.000000000E+00 -6.054317207E+02  6.054317207E+02  0.000000000E+00  0.00000E+00  9.000E+00
      25     1     1     2     0     0 -1.543012716E+02  1.463916522E+01 -5.289627806E+02  5.651989126E+02  1.250000000E+02  0.00000E+00  9.000E+00
      25     1     1     2     0     0  1.732491092E+02  2.184306742E+01  1.890364895E+02  2.860981786E+02  1.250000000E+02  0.00000E+00  9.000E+00
      21     1     1     2   512   502 -1.894783761E+01 -3.648223264E+01  3.320361535E+01  5.284367437E+01  4.768371582E-07  0.00000E+00  9.000E+00
#rwgt            1           1   2.6055823892778121E-002           6      114824           0
</event>
<event>
      5   9999  3.19816E-02  1.84677E+02 -1.00000E+00  1.12923E-01
       1    -1     0     0   502     0  0.000000000E+00  0.000000000E+00  1.521854444E+03  1.521854444E+03  0.000000000E+00  0.00000E+00  9.000E+00
      21    -1     0     0   501   502  0.000000000E+00  0.000000000E+00 -2.363353141E+02  2.363353141E+02  0.000000000E+00  0.00000E+00  9.000E+00
      25     1     1     2     0     0 -1.173332460E+02 -3.650653253E+02  8.849815247E+01  4.129124670E+02  1.250000000E+02  0.00000E+00  9.000E+00
      25     1     1     2     0     0  2.826292874E+02  2.827077639E+02  9.369571079E+02  1.026312144E+03  1.250000000E+02  0.00000E+00  9.000E+00
       1     1     1     2   501     0 -1.652960413E+02  8.235756143E+01  2.600638696E+02  3.189651477E+02  6.607249480E-06  0.00000E+00  9.000E+00
#rwgt            1           1   2.9155784302975787E-002           6      114976           0
</event>
<event>
      5   9999  3.19816E-02  1.20630E+01 -1.00000E+00  1.86789E-01
      21    -1     0     0   502   511  0.000000000E+00  0.000000000E+00  9.868334601E+01  9.868334601E+01  0.000000000E+00  0.00000E+00  9.000E+00
      21    -1     0     0   501   502  0.000000000E+00  0.000000000E+00 -3.665929666E+02  3.665929666E+02  0.000000000E+00  0.00000E+00  9.000E+00
      25     1     1     2     0     0  4.513165076E+01 -1.128025373E+02 -8.242602310E+01  1.928220102E+02  1.250000000E+02  0.00000E+00  9.000E+00
      25     1     1     2     0     0 -4.812578393E+01  1.244880273E+02 -1.853781002E+02  2.603908602E+02  1.250000000E+02  0.00000E+00  9.000E+00
      21     1     1     2   501   511  2.994133175E+00 -1.168548998E+01 -1.054972433E-01  1.206344226E+01  2.456997700E-07  0.00000E+00  9.000E+00
#rwgt            1           1   3.4801267185392309E-002           6      115011           0
</event>
<event>
      5   9999  3.19816E-02  3.19037E+01 -1.00000E+00  1.51207E-01
      21    -1     0     0   502   501  0.000000000E+00  0.000000000E+00  4.078010336E+02  4.078010336E+02  0.000000000E+00  0.00000E+00  9.000E+00
      21    -1     0     0   512   502  0.000000000E+00  0.000000000E+00 -4.126184831E+02  4.126184831E+02  0.000000000E+00  0.00000E+00  9.000E+00
      25     1     1     2     0     0 -2.777637258E+02 -1.757411081E+02  1.373802945E+02  3.775393619E+02  1.250000000E+02  0.00000E+00  9.000E+00
      25     1     1     2     0     0  3.090321619E+02  1.820761296E+02 -1.054276385E+02  3.941986568E+02  1.250000000E+02  0.00000E+00  9.000E+00
      21     1     1     2   512   501 -3.126843605E+01 -6.335021480E+00 -3.677010557E+01  4.868149807E+01  6.743495762E-07  0.00000E+00  9.000E+00
#rwgt            1           1   2.8706131595672722E-002           6      115194           0
</event>
<event>
      5   9999  3.19816E-02  1.24301E+01 -1.00000E+00  1.85434E-01
      21    -1     0     0   502   501  0.000000000E+00  0.000000000E+00  4.983414941E+01  4.983414941E+01  0.000000000E+00  0.00000E+00  9.000E+00
       2    -1     0     0   501     0  0.000000000E+00  0.000000000E+00 -1.101551599E+03  1.101551599E+03  0.000000000E+00  0.00000E+00  9.000E+00
      25     1     1     2     0     0 -5.825705957E+00 -8.174151681E+01 -1.659701899E+02  2.233533486E+02  1.250000000E+02  0.00000E+00  9.000E+00
      25     1     1     2     0     0  3.909071837E+00  9.402291918E+01 -2.692507409E+02  3.114105837E+02  1.250000000E+02  0.00000E+00  9.000E+00
       2     1     1     2   502     0  1.916634120E+00 -1.228140237E+01 -6.164965190E+02  6.166218162E+02  7.629394531E-06  0.00000E+00  9.000E+00
#rwgt            1           1   6.2525196176367037E-002           6      115298           0
</event>
<event>
      5   9999  3.19816E-02  1.05845E+02 -1.00000E+00  1.22728E-01
      21    -1     0     0   502   501  0.000000000E+00  0.000000000E+00  8.877870396E+02  8.877870396E+02  0.000000000E+00  0.00000E+00  9.000E+00
      21    -1     0     0   501   511  0.000000000E+00  0.000000000E+00 -2.336675836E+02  2.336675836E+02  0.000000000E+00  0.00000E+00  9.000E+00
      25     1     1     2     0     0  4.146211407E+00  5.050071321E+01  7.338974935E+02  7.461890137E+02  1.250000000E+02  0.00000E+00  9.000E+00
      25     1     1     2     0     0 -5.381068053E+01 -1.439699806E+02  5.336929322E+01  2.051736487E+02  1.250000000E+02  0.00000E+00  9.000E+00
      21     1     1     2   502   511  4.966446913E+01  9.346926738E+01 -1.331473308E+02  1.700919608E+02  3.303624740E-06  0.00000E+00  9.000E+00
#rwgt            1           1   2.8463144288930275E-002           6      115456           0
</event>
<event>
      5   9999  3.19816E-02  5.03725E+01 -1.00000E+00  1.38892E-01
      21    -1     0     0   502   501  0.000000000E+00  0.000000000E+00  8.844891851E+01  8.844891851E+01  0.000000000E+00  0.00000E+00  9.000E+00
      21    -1     0     0   512   502  0.000000000E+00  0.000000000E+00 -1.217133240E+03  1.217133240E+03  0.000000000E+00  0.00000E+00  9.000E+00
      25     1     1     2     0     0 -1.761999968E+02  1.123660728E+02 -1.827313245E+02  3.044475491E+02  1.250000000E+02  0.00000E+00  9.000E+00
      25     1     1     2     0     0  2.232818522E+02 -9.445819376E+01 -7.276412384E+02  7.770868084E+02  1.250000000E+02  0.00000E+00  9.000E+00
      21     1     1     2   512   501 -4.708185546E+01 -1.790787902E+01 -2.183117589E+02  2.240478014E+02  0.000000000E+00  0.00000E+00  9.000E+00
#rwgt            1           1   2.6494559573000131E-002           6      115534           0
</event>
<event>
      5   9999  3.19816E-02  1.72325E+01 -1.00000E+00  1.71889E-01
      21    -1     0     0   511   501  0.000000000E+00  0.000000000E+00  9.822047632E+02  9.822047632E+02  0.000000000E+00  0.00000E+00  9.000E+00
      21    -1     0     0   501   502  0.000000000E+00  0.000000000E+00 -1.931645045E+02  1.931645045E+02  0.000000000E+00  0.00000E+00  9.000E+00
      25     1     1     2     0     0  1.334458426E+02 -1.802231760E+02  1.131521886E+02  2.805647944E+02  1.250000000E+02  0.00000E+00  9.000E+00
      25     1     1     2     0     0 -1.506775475E+02  1.803876485E+02  5.269907237E+01  2.713772638E+02  1.250000000E+02  0.00000E+00  9.000E+00
      21     1     1     2   511   502  1.723170489E+01 -1.644724877E-01  6.231889977E+02  6.234272095E+02  0.000000000E+00  0.00000E+00  9.000E+00
#rwgt            1           1   2.2829551026596177E-002           6      115637           0
</event>
<event>
      5   9999  3.19816E-02  4.83704E+01 -1.00000E+00  1.39902E-01
      21    -1     0     0   502   501  0.000000000E+00  0.000000000E+00  3.551347180E+03  3.551347180E+03  0.000000000E+00  0.00000E+00  9.000E+00
       5    -1     0     0   501     0  0.000000000E+00  0.000000000E+00 -2.532641025E+01  2.532641025E+01  0.000000000E+00  0.00000E+00  9.000E+00
      25     1     1     2     0     0  2.804327889E+01  4.094809734E+01  8.471934193E+02  8.578023443E+02  1.250000000E+02  0.00000E+00  9.000E+00
      25     1     1     2     0     0  1.422628662E+01 -6.446360700E+01  2.664746015E+03  2.668492884E+03  1.250000000E+02  0.00000E+00  9.000E+00
       5     1     1     2   502     0 -4.226956551E+01  2.351550966E+01  1.408133474E+01  5.037836193E+01  3.282046294E-06  0.00000E+00  9.000E+00
#rwgt            1           1   2.2911253643275387E-002           6      115767           0
</event>
<event>
      5   9999  3.19816E-02  5.72924E+01 -1.00000E+00  1.35784E-01
      21    -1     0     0   502   501  0.000000000E+00  0.000000000E+00  1.400219394E+02  1.400219394E+02  0.000000000E+00  0.00000E+00  9.000E+00
       2    -1     0     0   501     0  0.000000000E+00  0.000000000E+00 -1.848934008E+03  1.848934008E+03  0.000000000E+00  0.00000E+00  9.000E+00
      25     1     1     2     0     0 -2.057324532E+02  2.706066654E+02 -6.718597836E+02  7.632656015E+02  1.250000000E+02  0.00000E+00  9.000E+00
      25     1     1     2     0     0  2.622262533E+02 -2.801391499E+02 -3.440298991E+02  5.303038023E+02  1.250000000E+02  0.00000E+00  9.000E+00
       2     1     1     2   502     0 -5.649380008E+01  9.532484546E+00 -6.930223855E+02  6.953865433E+02  7.629394531E-06  0.00000E+00  9.000E+00
#rwgt            2          13   5.5607832234401845E-004           6      115901           0
</event>
<event>
      5   9999  3.19816E-02  1.06478E+02 -1.00000E+00  1.22614E-01
      21    -1     0     0   502   501  0.000000000E+00  0.000000000E+00  3.583691879E+02  3.583691879E+02  0.000000000E+00  0.00000E+00  9.000E+00
      21    -1     0     0   501   511  0.000000000E+00  0.000000000E+00 -7.439631983E+02  7.439631983E+02  0.000000000E+00  0.00000E+00  9.000E+00
      25     1     1     2     0     0  2.698627399E+02 -8.383339886E+01  1.360683745E+02  3.376292933E+02  1.250000000E+02  0.00000E+00  9.000E+00
      25     1     1     2     0     0 -3.762336174E+02  7.904741008E+01 -2.560059994E+02  4.785021418E+02  1.250000000E+02  0.00000E+00  9.000E+00
      21     1     1     2   502   511  1.063708775E+02  4.785988779E+00 -2.656563855E+02  2.862009512E+02  3.814697266E-06  0.00000E+00  9.000E+00
#rwgt            1           1   2.5342632433234893E-002           6      115920           0
</event>
<event>
      5   9999  3.19816E-02  2.12903E+01 -1.00000E+00  1.64159E-01
      21    -1     0     0   502   501  0.000000000E+00  0.000000000E+00  1.264457338E+03  1.264457338E+03  0.000000000E+00  0.00000E+00  9.000E+00
      21    -1     0     0   501   512  0.000000000E+00  0.000000000E+00 -5.036191683E+02  5.036191683E+02  0.000000000E+00  0.00000E+00  9.000E+00
      25     1     1     2     0     0 -9.749979563E-01 -6.923012196E+02  7.799436203E+02  1.050342316E+03  1.250000000E+02  0.00000E+00  9.000E+00
      25     1     1     2     0     0  2.080123132E+01  6.845424141E+02 -1.769654047E+01  6.963972827E+02  1.250000000E+02  0.00000E+00  9.000E+00
      21     1     1     2   502   512 -1.982623336E+01  7.758805584E+00 -1.408910413E+00  2.133690751E+01  3.132789737E-07  0.00000E+00  9.000E+00
#rwgt            1           1   3.2211295453663552E-002           6      116030           0
</event>
<event>
      5   9999  3.19816E-02  3.18161E+01 -1.00000E+00  1.51288E-01
      21    -1     0     0   502   501  0.000000000E+00  0.000000000E+00  1.224254321E+03  1.224254321E+03  0.000000000E+00  0.00000E+00  9.000E+00
      21    -1     0     0   501   511  0.000000000E+00  0.000000000E+00 -1.837705453E+02  1.837705453E+02  0.000000000E+00  0.00000E+00  9.000E+00
      25     1     1     2     0     0 -7.002125556E+00 -1.066462193E+02 -1.249825060E+02  2.065625151E+02  1.250000000E+02  0.00000E+00  9.000E+00
      25     1     1     2     0     0  3.860341968E+01  1.029550565E+02  1.156480662E+03  1.168401682E+03  1.250000000E+02  0.00000E+00  9.000E+00
      21     1     1     2   502   511 -3.160129413E+01  3.691162717E+00  8.985618761E+00  3.306066874E+01  0.000000000E+00  0.00000E+00  9.000E+00
#rwgt            1           1   2.9147127645111293E-002           6      116224           0
</event>
<event>
      5   9999  3.19816E-02  7.31452E+01 -1.00000E+00  1.30261E-01
      21    -1     0     0   502   501  0.000000000E+00  0.000000000E+00  5.937163702E+02  5.937163702E+02  0.000000000E+00  0.00000E+00  9.000E+00
      21    -1     0     0   512   502  0.000000000E+00  0.000000000E+00 -1.884483426E+02  1.884483426E+02  0.000000000E+00  0.00000E+00  9.000E+00
      25     1     1     2     0     0 -2.460535288E+01 -2.307925278E+02  1.969882844E+02  3.290896512E+02  1.250000000E+02  0.00000E+00  9.000E+00
      25     1     1     2     0     0  2.047303833E+01  3.038208858E+02  1.731773350E+02  3.719430942E+02  1.250000000E+02  0.00000E+00  9.000E+00
      21     1     1     2   512   501  4.132314545E+00 -7.302835799E+01  3.510240811E+01  8.113196749E+01  1.066240300E-06  0.00000E+00  9.000E+00
#rwgt            1           1   2.6942794228774325E-002           6      116418           0
</event>
<event>
      5   9999  3.19816E-02  6.88547E+00 -1.00000E+00  2.16571E-01
      21    -1     0     0   502   501  0.000000000E+00  0.000000000E+00  4.861453997E+02  4.861453997E+02  0.000000000E+00  0.00000E+00  9.000E+00
      21    -1     0     0   511   502  0.000000000E+00  0.000000000E+00 -9.716625213E+01  9.716625213E+01  0.000000000E+00  0.00000E+00  9.000E+00
      25     1     1     2     0     0 -2.059390168E+01 -1.333740459E+02  3.361264988E+02  3.831693727E+02  1.250000000E+02  0.00000E+00  9.000E+00
      25     1     1     2     0     0  2.716391975E+01  1.313138041E+02  5.715502983E+01  1.920231526E+02  1.250000000E+02  0.00000E+00  9.000E+00
      21     1     1     2   511   501 -6.570018069E+00  2.060241807E+00 -4.302381097E+00  8.119126606E+00  1.788139343E-07  0.00000E+00  9.000E+00
#rwgt            1           1   2.7755440559650724E-002           6      116462           0
</event>
<event>
      5   9999  3.19816E-02  1.12562E+02 -1.00000E+00  1.21560E-01
      21    -1     0     0   502   501  0.000000000E+00  0.000000000E+00  2.734713128E+02  2.734713128E+02  0.000000000E+00  0.00000E+00  9.000E+00
       2    -1     0     0   501     0  0.000000000E+00  0.000000000E+00 -1.953121456E+03  1.953121456E+03  0.000000000E+00  0.00000E+00  9.000E+00
      25     1     1     2     0     0  1.605133786E+02  8.446667772E+01  1.957436248E+02  2.946858175E+02  1.250000000E+02  0.00000E+00  9.000E+00
      25     1     1     2     0     0 -1.148798835E+02 -1.873632216E+02 -5.939121502E+02  6.454912909E+02  1.250000000E+02  0.00000E+00  9.000E+00
       2     1     1     2   502     0 -4.563349510E+01  1.028965439E+02 -1.281481617E+03  1.286415660E+03  0.000000000E+00  0.00000E+00  9.000E+00
#rwgt            1           1   2.8686309068213917E-002           6      116745           0
</event>
<event>
      5   9999  3.19816E-02  5.59666E+01 -1.00000E+00  1.36339E-01
      21    -1     0     0   502   501  0.000000000E+00  0.000000000E+00  3.370253489E+02  3.370253489E+02  0.000000000E+00  0.00000E+00  9.000E+00
      -2    -1     0     0     0   502  0.000000000E+00  0.000000000E+00 -6.711242219E+02  6.711242219E+02  0.000000000E+00  0.00000E+00  9.000E+00
      25     1     1     2     0     0  7.872367724E+01 -1.734842075E+01  2.841761740E+02  3.207483171E+02  1.250000000E+02  0.00000E+00  9.000E+00
      25     1     1     2     0     0 -2.458567135E+01  3.159039019E+00 -8.962029445E+01  1.557922718E+02  1.250000000E+02  0.00000E+00  9.000E+00
      -2     1     1     2     0   501 -5.413800589E+01  1.418938173E+01 -5.286547525E+02  5.316089819E+02  7.629394531E-06  0.00000E+00  9.000E+00
#rwgt            1           1   3.3284950294950509E-002           6      116841           0
</event>
<event>
      5   9999  3.19816E-02  1.10816E+02 -1.00000E+00  1.21855E-01
       2    -1     0     0   502     0  0.000000000E+00  0.000000000E+00  9.449399091E+02  9.449399091E+02  0.000000000E+00  0.00000E+00  9.000E+00
      21    -1     0     0   501   502  0.000000000E+00  0.000000000E+00 -2.510709073E+02  2.510709073E+02  0.000000000E+00  0.00000E+00  9.000E+00
      25     1     1     2     0     0 -2.266404102E+02  1.047974075E+02  5.302320393E+01  2.842267269E+02  1.250000000E+02  0.00000E+00  9.000E+00
      25     1     1     2     0     0  1.942416879E+02 -2.107712399E+02  5.741722805E+01  3.179246561E+02  1.250000000E+02  0.00000E+00  9.000E+00
       2     1     1     2   501     0  3.239872226E+01  1.059738324E+02  5.834285699E+02  5.938594333E+02  7.629394531E-06  0.00000E+00  9.000E+00
#rwgt            1           1   2.6321031674899915E-002           6      116938           0
</event>
<event>
      5   9999  3.19816E-02  3.83608E+01 -1.00000E+00  1.45976E-01
      21    -1     0     0   511   501  0.000000000E+00  0.000000000E+00  7.283629373E+02  7.283629373E+02  0.000000000E+00  0.00000E+00  9.000E+00
      21    -1     0     0   501   502  0.000000000E+00  0.000000000E+00 -5.059083030E+02  5.059083030E+02  0.000000000E+00  0.00000E+00  9.000E+00
      25     1     1     2     0     0  3.048945069E+02  2.792783676E+02 -3.138368296E+02  5.339247349E+02  1.250000000E+02  0.00000E+00  9.000E+00
      25     1     1     2     0     0 -3.035338167E+02 -2.409416690E+02  5.147981329E+02  6.563747279E+02  1.250000000E+02  0.00000E+00  9.000E+00
      21     1     1     2   511   502 -1.360690171E+00 -3.833669863E+01  2.149333096E+01  4.397177749E+01  8.259061849E-07  0.00000E+00  9.000E+00
#rwgt            1           1   2.9408451018250924E-002           6      117012           0
</event>
<event>
      5   9999  3.19816E-02  1.12445E+02 -1.00000E+00  1.21579E-01
      21    -1     0     0   502   501  0.000000000E+00  0.000000000E+00  7.788904238E+02  7.788904238E+02  0.000000000E+00  0.00000E+00  9.000E+00
      21    -1     0     0   501   512  0.000000000E+00  0.000000000E+00 -5.967366227E+02  5.967366227E+02  0.000000000E+00  0.00000E+00  9.000E+00
      25     1     1     2     0     0 -4.706531688E+02 -1.844541526E+02 -1.029921968E+02  5.308202448E+02  1.250000000E+02  0.00000E+00  9.000E+00
      25     1     1     2     0     0  5.784338530E+02  2.165037056E+02  3.439606852E+02  7.179091375E+02  1.250000000E+02  0.00000E+00  9.000E+00
      21     1     1     2   502   512 -1.077806842E+02 -3.204955300E+01 -5.881468730E+01  1.268976642E+02  1.907348633E-06  0.00000E+00  9.000E+00
#rwgt            1           1   2.8501224561554961E-002           6      117154           0
</event>
<event>
      5   9999  3.19816E-02  5.86402E+01 -1.00000E+00  1.35238E-01
      21    -1     0     0   502   511  0.000000000E+00  0.000000000E+00  2.489624131E+02  2.489624131E+02  0.000000000E+00  0.00000E+00  9.000E+00
      21    -1     0     0   501   502  0.000000000E+00  0.000000000E+00 -6.075792492E+02  6.075792492E+02  0.000000000E+00  0.00000E+00  9.000E+00
      25     1     1     2     0     0  2.116230080E+02 -2.821092896E+02 -1.880998814E+02  4.187797920E+02  1.250000000E+02  0.00000E+00  9.000E+00
      25     1     1     2     0     0 -1.529834880E+02  2.818319887E+02 -1.521916792E+02  3.763250253E+02  1.250000000E+02  0.00000E+00  9.000E+00
      21     1     1     2   501   511 -5.863952006E+01  2.773009074E-01 -1.832527546E+01  6.143684505E+01  3.371747881E-07  0.00000E+00  9.000E+00
#rwgt            1           1   2.7176342816008645E-002           6      117253           0
</event>
<event>
      5   9999  3.19816E-02  8.07325E+01 -1.00000E+00  1.28158E-01
      21    -1     0     0   502   501  0.000000000E+00  0.000000000E+00  1.717131422E+03  1.717131422E+03  0.000000000E+00  0.00000E+00  9.000E+00
      21    -1     0     0   512   502  0.000000000E+00  0.000000000E+00 -1.172691422E+02  1.172691422E+02  0.000000000E+00  0.00000E+00  9.000E+00
      25     1     1     2     0     0  1.104074515E+02  2.546090677E+02  1.049173715E+03  1.092431264E+03  1.250000000E+02  0.00000E+00  9.000E+00
      25     1     1     2     0     0 -1.789806989E+02 -2.972171576E+02  5.488246541E+02  6.612152678E+02  1.250000000E+02  0.00000E+00  9.000E+00
      21     1     1     2   512   501  6.857324736E+01  4.260808997E+01  1.863910793E+00  8.075403239E+01  1.299053116E-07  0.00000E+00  9.000E+00
#rwgt            1           1   2.5518394457734052E-002           6      117353           0
</event>
<event>
      5   9999  3.19816E-02  4.42370E+01 -1.00000E+00  1.42180E-01
      21    -1     0     0   511   501  0.000000000E+00  0.000000000E+00  9.321457306E+02  9.321457306E+02  0.000000000E+00  0.00000E+00  9.000E+00
      21    -1     0     0   501   502  0.000000000E+00  0.000000000E+00 -7.298244357E+02  7.298244357E+02  0.000000000E+00  0.00000E+00  9.000E+00
      25     1     1     2     0     0 -4.808286039E+02  3.771424780E+02  5.432796719E+02  8.271701137E+02  1.250000000E+02  0.00000E+00  9.000E+00
      25     1     1     2     0     0  5.219955580E+02 -3.933348700E+02 -3.879405627E+02  7.702691496E+02  1.250000000E+02  0.00000E+00  9.000E+00
      21     1     1     2   511   502 -4.116695416E+01  1.619239197E+01  4.698218567E+01  6.453090300E+01  1.168007728E-06  0.00000E+00  9.000E+00
#rwgt            1           1   3.4224416234745550E-002           6      117409           0
</event>
<event>
      5   9999  3.19816E-02  1.01563E+02 -1.00000E+00  1.23526E-01
      21    -1     0     0   512   501  0.000000000E+00  0.000000000E+00  1.797695862E+03  1.797695862E+03  0.000000000E+00  0.00000E+00  9.000E+00
      21    -1     0     0   501   502  0.000000000E+00  0.000000000E+00 -7.341212736E+01  7.341212736E+01  0.000000000E+00  0.00000E+00  9.000E+00
      25     1     1     2     0     0 -1.898122062E+02 -1.373495036E+02  5.737231926E+02  6.322000170E+02  1.250000000E+02  0.00000E+00  9.000E+00
      25     1     1     2     0     0  2.794854009E+02  1.850331806E+02  8.822611299E+02  9.520289221E+02  1.250000000E+02  0.00000E+00  9.000E+00
      21     1     1     2   512   502 -8.967319468E+01 -4.768367700E+01  2.682994118E+02  2.868790499E+02  3.814697266E-06  0.00000E+00  9.000E+00
#rwgt            1           1   2.9134680867803638E-002           6      117561           0
</event>
<event>
      5   9999  3.19816E-02  1.61746E+01 -1.00000E+00  1.74354E-01
      21    -1     0     0   502   501  0.000000000E+00  0.000000000E+00  3.825344271E+02  3.825344271E+02  0.000000000E+00  0.00000E+00  9.000E+00
      21    -1     0     0   511   502  0.000000000E+00  0.000000000E+00 -4.408689228E+02  4.408689228E+02  0.000000000E+00  0.00000E+00  9.000E+00
      25     1     1     2     0     0  3.117550998E+02  1.854320782E+02  3.173738639E+01  3.849786482E+02  1.250000000E+02  0.00000E+00  9.000E+00
      25     1     1     2     0     0 -2.968789594E+02 -1.917816217E+02 -2.985867770E+01  3.760769171E+02  1.250000000E+02  0.00000E+00  9.000E+00
      21     1     1     2   511   501 -1.487614046E+01  6.349543568E+00 -6.021320444E+01  6.234778462E+01  1.168007728E-06  0.00000E+00  9.000E+00
#rwgt            1           1   2.9734477425117662E-002           6      117599           0
</event>
<event>
      5   9999  3.19816E-02  6.93835E+01 -1.00000E+00  1.31416E-01
      21    -1     0     0   502   501  0.000000000E+00  0.000000000E+00  2.817312040E+03  2.817312040E+03  0.000000000E+00  0.00000E+00  9.000E+00
      21    -1     0     0   512   502  0.000000000E+00  0.000000000E+00 -1.157225250E+03  1.157225250E+03  0.000000000E+00  0.00000E+00  9.000E+00
      25     1     1     2     0     0  3.790366924E+02 -1.564957212E+03  1.520678741E+03  2.218298610E+03  1.250000000E+02  0.00000E+00  9.000E+00
      25     1     1     2     0     0 -3.682014886E+02  1.633489490E+03  1.164904444E+02  1.683168225E+03  1.250000000E+02  0.00000E+00  9.000E+00
      21     1     1     2   512   501 -1.083520383E+01 -6.853227810E+01  2.291760495E+01  7.307045504E+01  5.840038640E-07  0.00000E+00  9.000E+00
#rwgt            1           1   2.7112665046252885E-002           6      117825           0
</event>
<event>
      5   9999  3.19816E-02  4.68903E+01 -1.00000E+00  1.40686E-01
      21    -1     0     0   502   501  0.000000000E+00  0.000000000E+00  3.011412224E+02  3.011412224E+02  0.000000000E+00  0.00000E+00  9.000E+00
      21    -1     0     0   501   511  0.000000000E+00  0.000000000E+00 -6.867945394E+02  6.867945394E+02  0.000000000E+00  0.00000E+00  9.000E+00
      25     1     1     2     0     0 -1.362233748E+02  3.724174388E+02 -2.370070375E+02  4.785905269E+02  1.250000000E+02  0.00000E+00  9.000E+00
      25     1     1     2     0     0  8.939961920E+01 -3.699197351E+02 -5.462414484E+01  4.042792346E+02  1.250000000E+02  0.00000E+00  9.000E+00
      21     1     1     2   502   511  4.682375562E+01 -2.497703713E+00 -9.402213470E+01  1.050660003E+02  1.907348633E-06  0.00000E+00  9.000E+00
#rwgt            1           1   2.6851130714504470E-002           6      118054           0
</event>
<event>
      5   9999  3.19816E-02  4.21732E+01 -1.00000E+00  1.43429E-01
      21    -1     0     0   512   501  0.000000000E+00  0.000000000E+00  1.614757261E+03  1.614757261E+03  0.000000000E+00  0.00000E+00  9.000E+00
      21    -1     0     0   501   502  0.000000000E+00  0.000000000E+00 -1.365281402E+03  1.365281402E+03  0.000000000E+00  0.00000E+00  9.000E+00
      25     1     1     2     0     0  1.326149761E+03  1.744104481E+01 -2.696827556E+02  1.359165614E+03  1.250000000E+02  0.00000E+00  9.000E+00
      25     1     1     2     0     0 -1.300447917E+03 -5.087752358E+01  2.285959690E+02  1.327265770E+03  1.250000000E+02  0.00000E+00  9.000E+00
      21     1     1     2   512   502 -2.570184408E+01  3.343647877E+01  2.905626461E+02  2.936072789E+02  0.000000000E+00  0.00000E+00  9.000E+00
#rwgt            1           1   5.0483587527832288E-002           6      118208           0
</event>
<event>
      5   9999  3.19816E-02  8.80614E+00 -1.00000E+00  2.02364E-01
      21    -1     0     0   502   501  0.000000000E+00  0.000000000E+00  3.670451181E+02  3.670451181E+02  0.000000000E+00  0.00000E+00  9.000E+00
      21    -1     0     0   501   511  0.000000000E+00  0.000000000E+00 -2.445076614E+03  2.445076614E+03  0.000000000E+00  0.00000E+00  9.000E+00
      25     1     1     2     0     0  1.304675350E+02 -1.608719506E+01  2.699626023E+02  3.252466482E+02  1.250000000E+02  0.00000E+00  9.000E+00
      25     1     1     2     0     0 -1.291584120E+02  2.479548040E+01 -4.910724117E+01  1.879713605E+02  1.250000000E+02  0.00000E+00  9.000E+00
      21     1     1     2   502   511 -1.309122957E+00 -8.708285335E+00 -2.298886857E+03  2.298903723E+03  3.051757812E-05  0.00000E+00  9.000E+00
#rwgt            1           1   2.9754929376998578E-002           6      118433           0
</event>
<event>
      5   9999  3.19816E-02  1.69989E+02 -1.00000E+00  1.14280E-01
      21    -1     0     0   502   512  0.000000000E+00  0.000000000E+00  9.142138358E+02  9.142138358E+02  0.000000000E+00  0.00000E+00  9.000E+00
      21    -1     0     0   501   502  0.000000000E+00  0.000000000E+00 -1.129569127E+02  1.129569127E+02  0.000000000E+00  0.00000E+00  9.000E+00
      25     1     1     2     0     0 -9.156753000E+01  9.188529528E+01  2.093214973E+02  2.761666332E+02  1.250000000E+02  0.00000E+00  9.000E+00
      25     1     1     2     0     0  2.498182219E+02 -2.981326688E+01  2.852762257E+02  4.003816927E+02  1.250000000E+02  0.00000E+00  9.000E+00
      21     1     1     2   501   512 -1.582506919E+02 -6.207202840E+01  3.066592002E+02  3.506224226E+02  0.000000000E+00  0.00000E+00  9.000E+00
#rwgt            1           1   2.8631664445646510E-002           6      118637           0
</event>
<event>
      5   9999  3.19816E-02  1.17309E+02 -1.00000E+00  1.20788E-01
      21    -1     0     0   502   511  0.000000000E+00  0.000000000E+00  1.110848631E+02  1.110848631E+02  0.000000000E+00  0.00000E+00  9.000E+00
      21    -1     0     0   501   502  0.000000000E+00  0.000000000E+00 -1.286750356E+03  1.286750356E+03  0.000000000E+00  0.00000E+00  9.000E+00
      25     1     1     2     0     0 -1.439096759E+02  1.695995909E+02 -2.697697554E+02  3.713148758E+02  1.250000000E+02  0.00000E+00  9.000E+00
      25     1     1     2     0     0  2.495757256E+02 -1.186482654E+02 -8.375015274E+02  8.907296234E+02  1.250000000E+02  0.00000E+00  9.000E+00
      21     1     1     2   501   511 -1.056660496E+02 -5.095132550E+01 -6.839420986E+01  1.357907197E+02  2.336015456E-06  0.00000E+00  9.000E+00
#rwgt            1           1   2.9326923269490560E-002           6      118683           0
</event>
<event>
      5   9999  3.19816E-02  8.68702E+01 -1.00000E+00  1.26641E-01
      21    -1     0     0   512   501  0.000000000E+00  0.000000000E+00  4.742023906E+02  4.742023906E+02  0.000000000E+00  0.00000E+00  9.000E+00
      21    -1     0     0   501   502  0.000000000E+00  0.000000000E+00 -4.125558822E+02  4.125558822E+02  0.000000000E+00  0.00000E+00  9.000E+00
      25     1     1     2     0     0 -1.881782988E+02  1.614414700E+02 -2.464293365E+02  3.712503714E+02  1.250000000E+02  0.00000E+00  9.000E+00
      25     1     1     2     0     0  2.273258318E+02 -8.389210584E+01  1.006706908E+02  2.906449848E+02  1.250000000E+02  0.00000E+00  9.000E+00
      21     1     1     2   512   502 -3.914753304E+01 -7.754936418E+01  2.074051542E+02  2.248629165E+02  0.000000000E+00  0.00000E+00  9.000E+00
#rwgt            1           1   2.7104526008845074E-002           6      118724           0
</event>
<event>
      5   9999  3.19816E-02  6.02014E+01 -1.00000E+00  1.34626E-01
      21    -1     0     0   511   501  0.000000000E+00  0.000000000E+00  1.887320826E+02  1.887320826E+02  0.000000000E+00  0.00000E+00  9.000E+00
      21    -1     0     0   501   502  0.000000000E+00  0.000000000E+00 -5.492451724E+02  5.492451724E+02  0.000000000E+00  0.00000E+00  9.000E+00
      25     1     1     2     0     0  2.049861976E+02 -7.375781416E+01 -2.629953332E+02  3.636634456E+02  1.250000000E+02  0.00000E+00  9.000E+00
      25     1     1     2     0     0 -2.566280015E+02  4.281698426E+01 -1.163835124E+02  3.112255569E+02  1.250000000E+02  0.00000E+00  9.000E+00
      21     1     1     2   511   502  5.164180395E+01  3.094082990E+01  1.886575588E+01  6.308825259E+01  1.238859277E-06  0.00000E+00  9.000E+00
#rwgt            1           1   2.6914002496665305E-002           6      118794           0
</event>
<event>
      5   9999  3.19816E-02  4.82658E+01 -1.00000E+00  1.39956E-01
      21    -1     0     0   502   512  0.000000000E+00  0.000000000E+00  2.185831084E+02  2.185831084E+02  0.000000000E+00  0.00000E+00  9.000E+00
      21    -1     0     0   501   502  0.000000000E+00  0.000000000E+00 -2.965907754E+02  2.965907754E+02  0.000000000E+00  0.00000E+00  9.000E+00
      25     1     1     2     0     0  1.332011212E+02 -1.040071373E+02 -1.031351213E+02  2.341407195E+02  1.250000000E+02  0.00000E+00  9.000E+00
      25     1     1     2     0     0 -1.761373174E+02  8.196006857E+01  2.788034149E+01  2.326888929E+02  1.250000000E+02  0.00000E+00  9.000E+00
      21     1     1     2   501   512  4.293619626E+01  2.204706871E+01 -2.752887087E+00  4.834427138E+01  2.889442359E-07  0.00000E+00  9.000E+00
#rwgt            1           1   2.7738001782995035E-002           6      118854           0
</event>
<event>
      5   9999  3.19816E-02  6.77393E+01 -1.00000E+00  1.31947E-01
      21    -1     0     0   502   511  0.000000000E+00  0.000000000E+00  2.070157001E+02  2.070157001E+02  0.000000000E+00  0.00000E+00  9.000E+00
      21    -1     0     0   501   502  0.000000000E+00  0.000000000E+00 -4.178697644E+02  4.178697644E+02  0.000000000E+00  0.00000E+00  9.000E+00
      25     1     1     2     0     0 -2.384544223E+01 -3.950565096E+01  1.270668080E+02  1.841202739E+02  1.250000000E+02  0.00000E+00  9.000E+00
      25     1     1     2     0     0 -3.235955095E+00 -2.258469001E+01 -3.496459851E+02  3.720186212E+02  1.250000000E+02  0.00000E+00  9.000E+00
      21     1     1     2   501   511  2.708139732E+01  6.209034098E+01  1.172511272E+01  6.874656931E+01  1.907348633E-06  0.00000E+00  9.000E+00
#rwgt            1           1   2.8960083400326742E-002           6      118939           0
</event>
<event>
      5   9999  3.19816E-02  2.16916E+02 -1.00000E+00  1.10379E-01
      21    -1     0     0   512   501  0.000000000E+00  0.000000000E+00  5.752827061E+02  5.752827061E+02  0.000000000E+00  0.00000E+00  9.000E+00
      21    -1     0     0   501   502  0.000000000E+00  0.000000000E+00 -3.080547795E+02  3.080547795E+02  0.000000000E+00  0.00000E+00  9.000E+00
      25     1     1     2     0     0  2.743511986E+02 -6.981264855E+01 -2.286549390E+01  3.103066498E+02  1.250000000E+02  0.00000E+00  9.000E+00
      25     1     1     2     0     0 -1.137207471E+02  2.155878958E+02  1.946707363E+02  3.360539313E+02  1.250000000E+02  0.00000E+00  9.000E+00
      21     1     1     2   512   502 -1.606304515E+02 -1.457752473E+02  9.542268414E+01  2.369769046E+02  4.672030912E-06  0.00000E+00  9.000E+00
#rwgt            1           1   2.7949379790597407E-002           6      119046           0
</event>
<event>
      5   9999  3.19816E-02  9.32141E+01 -1.00000E+00  1.25216E-01
      21    -1     0     0   502   501  0.000000000E+00  0.000000000E+00  5.017612035E+01  5.017612035E+01  0.000000000E+00  0.00000E+00  9.000E+00
       2    -1     0     0   501     0  0.000000000E+00  0.000000000E+00 -1.688777718E+03  1.688777718E+03  0.000000000E+00  0.00000E+00  9.000E+00
      25     1     1     2     0     0 -1.791333326E+02 -5.953329021E+01 -1.078666945E+03  1.102170741E+03  1.250000000E+02  0.00000E+00  9.000E+00
      25     1     1     2     0     0  8.705471729E+01  7.403839549E+01 -4.950214753E+02  5.231935290E+02  1.250000000E+02  0.00000E+00  9.000E+00
       2     1     1     2   502     0  9.207861528E+01 -1.450510528E+01 -6.491317704E+01  1.135895683E+02  1.907348633E-06  0.00000E+00  9.000E+00
#rwgt            1           1   2.3857553837090813E-002           6      119105           0
</event>
<event>
      5   9999  3.19816E-02  3.95669E+01 -1.00000E+00  1.45134E-01
      21    -1     0     0   511   501  0.000000000E+00  0.000000000E+00  6.563347588E+01  6.563347588E+01  0.000000000E+00  0.00000E+00  9.000E+00
      21    -1     0     0   501   502  0.000000000E+00  0.000000000E+00 -1.575946487E+03  1.575946487E+03  0.000000000E+00  0.00000E+00  9.000E+00
      25     1     1     2     0     0 -2.105349754E+01  3.094160295E+01 -1.436322708E+03  1.442237344E+03  1.250000000E+02  0.00000E+00  9.000E+00
      25     1     1     2     0     0  5.791031003E+01 -4.533318919E+01 -6.406525678E+01  1.585498634E+02  1.250000000E+02  0.00000E+00  9.000E+00
      21     1     1     2   511   502 -3.685681250E+01  1.439158624E+01 -9.925045662E+00  4.079275565E+01  5.057621821E-07  0.00000E+00  9.000E+00
#rwgt            1           1   3.6527078035539534E-002           6      119151           0
</event>
<event>
      5   9999  3.19816E-02  7.26871E+01 -1.00000E+00  1.30397E-01
      21    -1     0     0   502   501  0.000000000E+00  0.000000000E+00  3.605253645E+02  3.605253645E+02  0.000000000E+00  0.00000E+00  9.000E+00
      21    -1     0     0   501   512  0.000000000E+00  0.000000000E+00 -6.712899567E+02  6.712899567E+02  0.000000000E+00  0.00000E+00  9.000E+00
      25     1     1     2     0     0 -3.587962668E+01 -2.597296742E+02  9.822592333E+01  3.066271079E+02  1.250000000E+02  0.00000E+00  9.000E+00
      25     1     1     2     0     0  7.625839817E+01  1.992898701E+02  5.681834875E+01  2.537422321E+02  1.250000000E+02  0.00000E+00  9.000E+00
      21     1     1     2   502   512 -4.037877149E+01  6.043980409E+01 -4.658088643E+02  4.714459811E+02  5.394796609E-06  0.00000E+00  9.000E+00
#rwgt            1           1   2.7873510896953498E-002           6      119276           0
</event>
<event>
      5   9999  3.19816E-02  1.98792E+02 -1.00000E+00  1.11744E-01
      21    -1     0     0   502   501  0.000000000E+00  0.000000000E+00  8.394430038E+02  8.394430038E+02  0.000000000E+00  0.00000E+00  9.000E+00
       2    -1     0     0   501     0  0.000000000E+00  0.000000000E+00 -4.514452403E+02  4.514452403E+02  0.000000000E+00  0.00000E+00  9.000E+00
      25     1     1     2     0     0 -3.083694964E+02 -2.714485910E+02 -9.216368605E+01  4.391983935E+02  1.250000000E+02  0.00000E+00  9.000E+00
      25     1     1     2     0     0  4.614606782E+02  1.446366678E+02  2.954460411E+02  5.803267066E+02  1.250000000E+02  0.00000E+00  9.000E+00
       2     1     1     2   502     0 -1.530911818E+02  1.268119232E+02  1.847154083E+02  2.713631439E+02  0.000000000E+00  0.00000E+00  9.000E+00
#rwgt            1           1   2.5351924728829144E-002           6      119372           0
</event>
<event>
      5   9999  3.19816E-02  6.60424E+01 -1.00000E+00  1.32514E-01
      21    -1     0     0   502   501  0.000000000E+00  0.000000000E+00  4.551184425E+02  4.551184425E+02  0.000000000E+00  0.00000E+00  9.000E+00
      21    -1     0     0   501   511  0.000000000E+00  0.000000000E+00 -1.334020977E+02  1.334020977E+02  0.000000000E+00  0.00000E+00  9.000E+00
      25     1     1     2     0     0  3.046680417E+01 -1.017351307E+02  2.997234941E+02  3.416686053E+02  1.250000000E+02  0.00000E+00  9.000E+00
      25     1     1     2     0     0 -4.428429895E+01  3.715437648E+01  7.972693457E+01  1.591318036E+02  1.250000000E+02  0.00000E+00  9.000E+00
      21     1     1     2   502   511  1.381749479E+01  6.458075423E+01 -5.773408384E+01  8.772013119E+01  1.348699152E-06  0.00000E+00  9.000E+00
#rwgt            1           1   2.2932380073874898E-002           6      119449           0
</event>
<event>
      5   9999  3.19816E-02  1.34916E+02 -1.00000E+00  1.18247E-01
      21    -1     0     0   512   501  0.000000000E+00  0.000000000E+00  2.473980555E+02  2.473980555E+02  0.000000000E+00  0.00000E+00  9.000E+00
      21    -1     0     0   501   502  0.000000000E+00  0.000000000E+00 -1.560575343E+03  1.560575343E+03  0.000000000E+00  0.00000E+00  9.000E+00
      25     1     1     2     0     0 -4.241478285E+02 -1.271708030E+02 -2.428415298E+02  5.202603215E+02  1.250000000E+02  0.00000E+00  9.000E+00
      25     1     1     2     0     0  4.795954729E+02  2.501665825E+02 -9.767906940E+02  1.123539139E+03  1.250000000E+02  0.00000E+00  9.000E+00
      21     1     1     2   512   502 -5.544764439E+01 -1.229957795E+02 -9.354506407E+01  1.641739384E+02  1.348699152E-06  0.00000E+00  9.000E+00
#rwgt            1           1   3.1243837376863585E-002           6      119532           0
</event>
<event>
      5   9999  3.19816E-02  1.45035E+01 -1.00000E+00  1.78772E-01
      21    -1     0     0   502   501  0.000000000E+00  0.000000000E+00  1.796343303E+02  1.796343303E+02  0.000000000E+00  0.00000E+00  9.000E+00
      21    -1     0     0   511   502  0.000000000E+00  0.000000000E+00 -4.354321286E+02  4.354321286E+02  0.000000000E+00  0.00000E+00  9.000E+00
      25     1     1     2     0     0 -6.391499137E+01 -1.431677200E+02  1.644583047E+01  2.011904260E+02  1.250000000E+02  0.00000E+00  9.000E+00
      25     1     1     2     0     0  5.066349170E+01  1.372728392E+02 -6.063751061E+01  2.017734608E+02  1.250000000E+02  0.00000E+00  9.000E+00
      21     1     1     2   511   501  1.325149967E+01  5.894880764E+00 -2.116061182E+02  2.121025721E+02  3.814697266E-06  0.00000E+00  9.000E+00
#rwgt            1           1   3.0143957330849215E-002           6      119598           0
</event>
<event>
      5   9999  3.19816E-02  1.32777E+01 -1.00000E+00  1.82524E-01
      21    -1     0     0   502   501  0.000000000E+00  0.000000000E+00  7.281695950E+02  7.281695950E+02  0.000000000E+00  0.00000E+00  9.000E+00
      21    -1     0     0   501   512  0.000000000E+00  0.000000000E+00 -1.848787585E+02  1.848787585E+02  0.000000000E+00  0.00000E+00  9.000E+00
      25     1     1     2     0     0 -2.883606137E+02  1.047679764E+02  4.244695628E+02  5.384492382E+02  1.250000000E+02  0.00000E+00  9.000E+00
      25     1     1     2     0     0  3.012394690E+02 -1.015381513E+02  1.108921772E+02  3.591340819E+02  1.250000000E+02  0.00000E+00  9.000E+00
      21     1     1     2   502   512 -1.287885533E+01 -3.229825096E+00  7.929096436E+00  1.546503330E+01  1.192092896E-07  0.00000E+00  9.000E+00
#rwgt            1           1   2.7197511974578661E-002           6      119773           0
</event>
<event>
      5   9999  3.19816E-02  2.30202E+01 -1.00000E+00  1.61482E-01
      21    -1     0     0   511   501  0.000000000E+00  0.000000000E+00  5.807814119E+02  5.807814119E+02  0.000000000E+00  0.00000E+00  9.000E+00
      21    -1     0     0   501   502  0.000000000E+00  0.000000000E+00 -1.256859268E+02  1.256859268E+02  0.000000000E+00  0.00000E+00  9.000E+00
      25     1     1     2     0     0  1.651311173E+01  3.818664869E+01  3.757573421E+02  3.981827258E+02  1.250000000E+02  0.00000E+00  9.000E+00
      25     1     1     2     0     0 -2.408362111E+01 -5.992636420E+01 -7.002260882E+01  1.571602866E+02  1.250000000E+02  0.00000E+00  9.000E+00
      21     1     1     2   511   502  7.570509378E+00  2.173971551E+01  1.493607518E+02  1.511243264E+02  2.697398305E-06  0.00000E+00  9.000E+00
#rwgt            1           1   2.6723786444117194E-002           6      120021           0
</event>
<event>
      5   9999  3.19816E-02  2.26534E+01 -1.00000E+00  1.62025E-01
      21    -1     0     0   502   512  0.000000000E+00  0.000000000E+00  3.739885201E+02  3.739885201E+02  0.000000000E+00  0.00000E+00  9.000E+00
      21    -1     0     0   501   502  0.000000000E+00  0.000000000E+00 -2.681721695E+02  2.681721695E+02  0.000000000E+00  0.00000E+00  9.000E+00
      25     1     1     2     0     0 -7.652673365E+01 -2.432967384E+02 -3.359306047E+01  2.860124780E+02  1.250000000E+02  0.00000E+00  9.000E+00
      25     1     1     2     0     0  8.678589208E+01  2.634939473E+02  1.231113987E+02  3.282411733E+02  1.250000000E+02  0.00000E+00  9.000E+00
      21     1     1     2   501   512 -1.025915844E+01 -2.019720894E+01  1.629801235E+01  2.790703831E+01  4.129530925E-07  0.00000E+00  9.000E+00
#rwgt            1           1   2.9066071627925280E-002           6      120185           0
</event>
<event>
      5   9999  3.19816E-02  9.09489E+01 -1.00000E+00  1.25710E-01
      21    -1     0     0   511   501  0.000000000E+00  0.000000000E+00  1.400221185E+02  1.400221185E+02  0.000000000E+00  0.00000E+00  9.000E+00
      21    -1     0     0   501   502  0.000000000E+00  0.000000000E+00 -8.800893402E+02  8.800893402E+02  0.000000000E+00  0.00000E+00  9.000E+00
      25     1     1     2     0     0  2.167874441E+02  5.372957917E+01 -9.355955886E+01  2.725106505E+02  1.250000000E+02  0.00000E+00  9.000E+00
      25     1     1     2     0     0 -1.961262665E+02 -1.423005382E+02 -5.561914276E+02  6.194262343E+02  1.250000000E+02  0.00000E+00  9.000E+00
      21     1     1     2   511   502 -2.066117753E+01  8.857095902E+01 -9.031623527E+01  1.281745739E+02  1.651812370E-06  0.00000E+00  9.000E+00
#rwgt            1           1   2.8603630096493294E-002           6      120341           0
</event>
<event>
      5   9999  3.19816E-02  1.03017E+01 -1.00000E+00  1.94277E-01
      21    -1     0     0   512   501  0.000000000E+00  0.000000000E+00  4.138378247E+02  4.138378247E+02  0.000000000E+00  0.00000E+00  9.000E+00
      21    -1     0     0   501   502  0.000000000E+00  0.000000000E+00 -6.190375882E+02  6.190375882E+02  0.000000000E+00  0.00000E+00  9.000E+00
      25     1     1     2     0     0  3.968008799E+02  1.746745388E+02 -3.156996674E+02  5.506844948E+02  1.250000000E+02  0.00000E+00  9.000E+00
      25     1     1     2     0     0 -4.064099274E+02 -1.709608323E+02  1.037609501E+02  4.698808041E+02  1.250000000E+02  0.00000E+00  9.000E+00
      21     1     1     2   512   502  9.609047486E+00 -3.713706486E+00  6.738953738E+00  1.231011401E+01  2.920019320E-07  0.00000E+00  9.000E+00
#rwgt            1           1   3.1199256587422522E-002           6      120489           0
</event>
<event>
      5   9999  3.19816E-02  1.08977E+02 -1.00000E+00  1.22172E-01
      21    -1     0     0   502   501  0.000000000E+00  0.000000000E+00  6.018316243E+02  6.018316243E+02  0.000000000E+00  0.00000E+00  9.000E+00
       2    -1     0     0   501     0  0.000000000E+00  0.000000000E+00 -7.483147774E+02  7.483147774E+02  0.000000000E+00  0.00000E+00  9.000E+00
      25     1     1     2     0     0 -1.824704412E+01  2.847723711E+02  3.749213658E+02  4.874620893E+02  1.250000000E+02  0.00000E+00  9.000E+00
      25     1     1     2     0     0  5.197854297E+01 -3.883973012E+02 -9.441982334E+01  4.220122457E+02  1.250000000E+02  0.00000E+00  9.000E+00
       2     1     1     2   502     0 -3.373149885E+01  1.036249301E+02 -4.269846956E+02  4.406720668E+02  0.000000000E+00  0.00000E+00  9.000E+00
#rwgt            1           1   2.5471965263645063E-002           6      120727           0
</event>
<event>
      5   9999  3.19816E-02  8.16973E+01 -1.00000E+00  1.27910E-01
      21    -1     0     0   502   501  0.000000000E+00  0.000000000E+00  4.860671965E+02  4.860671965E+02  0.000000000E+00  0.00000E+00  9.000E+00
      21    -1     0     0   501   511  0.000000000E+00  0.000000000E+00 -2.672386316E+02  2.672386316E+02  0.000000000E+00  0.00000E+00  9.000E+00
      25     1     1     2     0     0 -1.214719167E+02  2.274850383E+02  1.643506861E+02  3.303649758E+02  1.250000000E+02  0.00000E+00  9.000E+00
      25     1     1     2     0     0  2.024824077E+02 -2.380565401E+02  3.144587423E+01  3.380589960E+02  1.250000000E+02  0.00000E+00  9.000E+00
      21     1     1     2   502   511 -8.101049109E+01  1.057150180E+01  2.303200459E+01  8.488185643E+01  9.536743164E-07  0.00000E+00  9.000E+00
#rwgt            1           1   2.3314574661633027E-002           6      120811           0
</event>
<event>
      5   9999  3.19816E-02  1.14995E+02 -1.00000E+00  1.21159E-01
      21    -1     0     0   512   501  0.000000000E+00  0.000000000E+00  4.727890827E+02  4.727890827E+02  0.000000000E+00  0.00000E+00  9.000E+00
      21    -1     0     0   501   502  0.000000000E+00  0.000000000E+00 -1.597247202E+02  1.597247202E+02  0.000000000E+00  0.00000E+00  9.000E+00
      25     1     1     2     0     0  5.300823355E+01 -1.310526159E+02  1.352553903E+02  2.321716640E+02  1.250000000E+02  0.00000E+00  9.000E+00
      25     1     1     2     0     0 -7.675820954E+01  1.853690652E+01 -4.075976182E+01  1.533681773E+02  1.250000000E+02  0.00000E+00  9.000E+00
      21     1     1     2   512   502  2.374997599E+01  1.125157094E+02  2.185687339E+02  2.469739615E+02  4.672030912E-06  0.00000E+00  9.000E+00
#rwgt            1           1   2.8159751566676348E-002           6      120857           0
</event>
<event>
      5   9999  3.19816E-02  9.12016E+01 -1.00000E+00  1.25654E-01
      21    -1     0     0   502   501  0.000000000E+00  0.000000000E+00  4.553263655E+02  4.553263655E+02  0.000000000E+00  0.00000E+00  9.000E+00
       3    -1     0     0   501     0  0.000000000E+00  0.000000000E+00 -1.442736194E+03  1.442736194E+03  0.000000000E+00  0.00000E+00  9.000E+00
      25     1     1     2     0     0  1.649149160E+02  6.085622255E+02  2.993546511E+01  6.434796376E+02  1.250000000E+02  0.00000E+00  9.000E+00
      25     1     1     2     0     0 -7.530693139E+01 -6.255367150E+02 -9.072676345E+02  1.111632528E+03  1.250000000E+02  0.00000E+00  9.000E+00
       3     1     1     2   502     0 -8.960798466E+01  1.697448947E+01 -1.100776588E+02  1.429503941E+02  1.348699152E-06  0.00000E+00  9.000E+00
#rwgt            1           1   3.0243500256272326E-002           6      120935           0
</event>
<event>
      5   9999  3.19816E-02  1.39614E+01 -1.00000E+00  1.80371E-01
      21    -1     0     0   502   511  0.000000000E+00  0.000000000E+00  8.922495462E+02  8.922495462E+02  0.000000000E+00  0.00000E+00  9.000E+00
      21    -1     0     0   501   502  0.000000000E+00  0.000000000E+00 -1.713986161E+02  1.713986161E+02  0.000000000E+00  0.00000E+00  9.000E+00
      25     1     1     2     0     0  2.657848411E+02  2.637922492E+01  3.219805383E+02  4.366164362E+02  1.250000000E+02  0.00000E+00  9.000E+00
      25     1     1     2     0     0 -2.534569768E+02 -1.982608416E+01  6.216837071E+01  2.900403748E+02  1.250000000E+02  0.00000E+00  9.000E+00
      21     1     1     2   501   511 -1.232786432E+01 -6.553140767E+00  3.367020211E+02  3.369913513E+02  3.814697266E-06  0.00000E+00  9.000E+00
#rwgt            1           1   2.5986564942129947E-002           6      121019           0
</event>
<event>
      5   9999  3.19816E-02  1.06367E+02 -1.00000E+00  1.22634E-01
      21    -1     0     0   502   501  0.000000000E+00  0.000000000E+00  5.330553995E+02  5.330553995E+02  0.000000000E+00  0.00000E+00  9.000E+00
      21    -1     0     0   501   512  0.000000000E+00  0.000000000E+00 -1.308655219E+02  1.308655219E+02  0.000000000E+00  0.00000E+00  9.000E+00
      25     1     1     2     0     0  1.725675615E+02 -3.656357930E+01  2.338840592E+02  3.185015098E+02  1.250000000E+02  0.00000E+00  9.000E+00
      25     1     1     2     0     0 -6.902572400E+01  1.221164706E+01  1.888651208E+02  2.370837589E+02  1.250000000E+02  0.00000E+00  9.000E+00
      21     1     1     2   502   512 -1.035418375E+02  2.435193224E+01 -2.055930230E+01  1.083356526E+02  2.880822652E-06  0.00000E+00  9.000E+00
#rwgt            1           1   2.3618985380987133E-002           6      121210           0
</event>
<event>
      5   9999  3.19816E-02  6.07343E+01 -1.00000E+00  1.34422E-01
      21    -1     0     0   502   511  0.000000000E+00  0.000000000E+00  2.184189287E+03  2.184189287E+03  0.000000000E+00  0.00000E+00  9.000E+00
      21    -1     0     0   501   502  0.000000000E+00  0.000000000E+00 -6.664559790E+02  6.664559790E+02  0.000000000E+00  0.00000E+00  9.000E+00
      25     1     1     2     0     0 -5.404912995E+02 -9.089249977E+01 -1.495939829E+02  5.817178449E+02  1.250000000E+02  0.00000E+00  9.000E+00
      25     1     1     2     0     0  5.625852012E+02  3.431942852E+01 -2.273601649E+01  5.777731893E+02  1.250000000E+02  0.00000E+00  9.000E+00
      21     1     1     2   501   511 -2.209390170E+01  5.657307125E+01  1.690063308E+03  1.691154232E+03  3.051757812E-05  0.00000E+00  9.000E+00
#rwgt            1           1   2.7661355631418562E-002           6      121278           0
</event>
<event>
      5   9999  3.19816E-02  3.38992E+01 -1.00000E+00  1.49443E-01
      21    -1     0     0   502   512  0.000000000E+00  0.000000000E+00  2.529923064E+02  2.529923064E+02  0.000000000E+00  0.00000E+00  9.000E+00
      21    -1     0     0   501   502  0.000000000E+00  0.000000000E+00 -3.984111041E+02  3.984111041E+02  0.000000000E+00  0.00000E+00  9.000E+00
      25     1     1     2     0     0  3.104023402E+01 -1.195102026E+02 -2.996038368E+02  3.473235433E+02  1.250000000E+02  0.00000E+00  9.000E+00
      25     1     1     2     0     0 -5.464213947E+01  1.438434853E+02  6.493746706E+01  2.086110886E+02  1.250000000E+02  0.00000E+00  9.000E+00
      21     1     1     2   501   512  2.360190545E+01 -2.433328263E+01  8.924757200E+01  9.546877862E+01  9.536743164E-07  0.00000E+00  9.000E+00
#rwgt            1           1   2.8905723187475196E-002           6      121366           0
</event>
<event>
      5   9999  3.19816E-02  3.62111E+02 -1.00000E+00  1.03003E-01
      21    -1     0     0   502   501  0.000000000E+00  0.000000000E+00  2.517543906E+02  2.517543906E+02  0.000000000E+00  0.00000E+00  9.000E+00
       2    -1     0     0   501     0  0.000000000E+00  0.000000000E+00 -2.236366557E+03  2.236366557E+03  0.000000000E+00  0.00000E+00  9.000E+00
      25     1     1     2     0     0 -3.719293428E+02 -4.630411730E+02 -1.161111946E+03  1.310169651E+03  1.250000000E+02  0.00000E+00  9.000E+00
      25     1     1     2     0     0  9.818155618E+00  4.632320721E+02 -4.836960974E+02  6.813716045E+02  1.250000000E+02  0.00000E+00  9.000E+00
       2     1     1     2   502     0  3.621111872E+02 -1.908990747E-01 -3.398041234E+02  4.965796921E+02  5.394796609E-06  0.00000E+00  9.000E+00
#rwgt            1           1   2.5409014215627655E-002           6      121488           0
</event>
<event>
      5   9999  3.19816E-02  3.71668E+01 -1.00000E+00  1.46847E-01
      21    -1     0     0   502   501  0.000000000E+00  0.000000000E+00  1.741333076E+03  1.741333076E+03  0.000000000E+00  0.00000E+00  9.000E+00
      21    -1     0     0   511   502  0.000000000E+00  0.000000000E+00 -4.822828646E+01  4.822828646E+01  0.000000000E+00  0.00000E+00  9.000E+00
      25     1     1     2     0     0  1.383034046E+01  2.350334266E+02  9.323344337E+02  9.696929856E+02  1.250000000E+02  0.00000E+00  9.000E+00
      25     1     1     2     0     0 -1.475234915E+01 -1.978780728E+02  7.421028735E+02  7.782769677E+02  1.250000000E+02  0.00000E+00  9.000E+00
      21     1     1     2   511   501  9.220086934E-01 -3.715535382E+01  1.866748209E+01  4.159140903E+01  1.305872339E-06  0.00000E+00  9.000E+00
#rwgt            1           1   2.7123262645280984E-002           6      121538           0
</event>
<event>
      5   9999  3.19816E-02  7.62089E+01 -1.00000E+00  1.29378E-01
      21    -1     0     0   502   501  0.000000000E+00  0.000000000E+00  3.180102026E+02  3.180102026E+02  0.000000000E+00  0.00000E+00  9.000E+00
      21    -1     0     0   501   512  0.000000000E+00  0.000000000E+00 -1.407719622E+03  1.407719622E+03  0.000000000E+00  0.00000E+00  9.000E+00
      25     1     1     2     0     0 -3.133256212E+02 -2.470917313E+02 -1.948008314E+01  4.186069065E+02  1.250000000E+02  0.00000E+00  9.000E+00
      25     1     1     2     0     0  3.096618796E+02  3.232124891E+02 -3.472589911E+02  5.801470501E+02  1.250000000E+02  0.00000E+00  9.000E+00
      21     1     1     2   502   512  3.663741560E+00 -7.612075782E+01 -7.229703453E+02  7.269758682E+02  1.321449896E-05  0.00000E+00  9.000E+00
#rwgt            1           1   3.1107659482579486E-002           6      121597           0
</event>
<event>
      5   9999  3.19816E-02  1.15401E+02 -1.00000E+00  1.21093E-01
      21    -1     0     0   502   501  0.000000000E+00  0.000000000E+00  6.103488071E+02  6.103488071E+02  0.000000000E+00  0.00000E+00  9.000E+00
      21    -1     0     0   511   502  0.000000000E+00  0.000000000E+00 -8.395446570E+02  8.395446570E+02  0.000000000E+00  0.00000E+00  9.000E+00
      25     1     1     2     0     0 -2.265634509E+02 -4.958012776E+02 -3.528710773E+02  6.612812574E+02  1.250000000E+02  0.00000E+00  9.000E+00
      25     1     1     2     0     0  1.767720451E+02  5.999081108E+02  1.764174973E+02  6.617297263E+02  1.250000000E+02  0.00000E+00  9.000E+00
      21     1     1     2   511   501  4.979140584E+01 -1.041068332E+02 -5.274226987E+01  1.268824804E+02  6.743495762E-07  0.00000E+00  9.000E+00
#rwgt            1           1   3.3044897837632599E-002           6      121687           0
</event>
<event>
      5   9999  3.19816E-02  3.42433E+01 -1.00000E+00  1.49154E-01
      21    -1     0     0   502   501  0.000000000E+00  0.000000000E+00  2.005482603E+02  2.005482603E+02  0.000000000E+00  0.00000E+00  9.000E+00
      21    -1     0     0   501   512  0.000000000E+00  0.000000000E+00 -8.322056045E+02  8.322056045E+02  0.000000000E+00  0.00000E+00  9.000E+00
      25     1     1     2     0     0 -3.389070012E+02 -4.616044814E+01 -1.177604170E+02  3.827287006E+02  1.250000000E+02  0.00000E+00  9.000E+00
      25     1     1     2     0     0  3.152518535E+02  7.092009760E+01 -3.908611866E+02  5.223129891E+02  1.250000000E+02  0.00000E+00  9.000E+00
      21     1     1     2   502   512  2.365514766E+01 -2.475964947E+01 -1.230357404E+02  1.277121751E+02  1.348699152E-06  0.00000E+00  9.000E+00
#rwgt            1           1   2.8765612418259680E-002           6      121796           0
</event>
<event>
      5   9999  3.19816E-02  1.44940E+02 -1.00000E+00  1.16987E-01
      21    -1     0     0   502   501  0.000000000E+00  0.000000000E+00  9.716552025E+02  9.716552025E+02  0.000000000E+00  0.00000E+00  9.000E+00
      21    -1     0     0   501   511  0.000000000E+00  0.000000000E+00 -6.598848958E+02  6.598848958E+02  0.000000000E+00  0.00000E+00  9.000E+00
      25     1     1     2     0     0  4.168643356E+02  1.713921333E+02 -3.014244913E+02  5.564466385E+02  1.250000000E+02  0.00000E+00  9.000E+00
      25     1     1     2     0     0 -2.755740810E+02 -2.037151519E+02  7.757914971E+02  8.572738093E+02  1.250000000E+02  0.00000E+00  9.000E+00
      21     1     1     2   502   511 -1.412902546E+02  3.232301865E+01 -1.625966991E+02  2.178196505E+02  1.907348633E-06  0.00000E+00  9.000E+00
#rwgt            1           1   2.7636325179298600E-002           6      121942           0
</event>
<event>
      5   9999  3.19816E-02  9.58364E+01 -1.00000E+00  1.24664E-01
      21    -1     0     0   502   501  0.000000000E+00  0.000000000E+00  1.463840963E+03  1.463840963E+03  0.000000000E+00  0.00000E+00  9.000E+00
       1    -1     0     0   501     0  0.000000000E+00  0.000000000E+00 -3.236821006E+02  3.236821006E+02  0.000000000E+00  0.00000E+00  9.000E+00
      25     1     1     2     0     0 -4.381134117E+02  8.393002413E+01  1.016323316E+03  1.116926896E+03  1.250000000E+02  0.00000E+00  9.000E+00
      25     1     1     2     0     0  4.915771500E+02 -1.634676862E+02  1.763280287E+02  5.613255316E+02  1.250000000E+02  0.00000E+00  9.000E+00
       1     1     1     2   502     0 -5.346373829E+01  7.953766202E+01 -5.249248215E+01  1.092706350E+02  2.431401974E-06  0.00000E+00  9.000E+00
#rwgt            1           1   2.6041062783025318E-002           6      122006           0
</event>
<event>
      5   9999  3.19816E-02  7.42710E+01 -1.00000E+00  1.29931E-01
      21    -1     0     0   502   511  0.000000000E+00  0.000000000E+00  1.876858845E+02  1.876858845E+02  0.000000000E+00  0.00000E+00  9.000E+00
      21    -1     0     0   501   502  0.000000000E+00  0.000000000E+00 -3.379564370E+02  3.379564370E+02  0.000000000E+00  0.00000E+00  9.000E+00
      25     1     1     2     0     0 -7.355476836E+01  8.635923095E+01 -2.221599999E+02  2.790130575E+02  1.250000000E+02  0.00000E+00  9.000E+00
      25     1     1     2     0     0  9.990160385E-01 -1.022288111E+02  4.493367583E+01  1.676179080E+02  1.250000000E+02  0.00000E+00  9.000E+00
      21     1     1     2   501   511  7.255575233E+01  1.586958018E+01  2.695577151E+01  7.901135607E+01  6.743495762E-07  0.00000E+00  9.000E+00
#rwgt            1           1   2.6932687821455512E-002           6      122086           0
</event>
<event>
      5   9999  3.19816E-02  4.23234E+01 -1.00000E+00  1.43336E-01
      21    -1     0     0   502   501  0.000000000E+00  0.000000000E+00  3.109010524E+02  3.109010524E+02  0.000000000E+00  0.00000E+00  9.000E+00
      21    -1     0     0   501   512  0.000000000E+00  0.000000000E+00 -2.742170710E+02  2.742170710E+02  0.000000000E+00  0.00000E+00  9.000E+00
      25     1     1     2     0     0  1.856598897E+02 -1.170215187E+01  1.486093663E+02  2.689168621E+02  1.250000000E+02  0.00000E+00  9.000E+00
      25     1     1     2     0     0 -1.433756407E+02  1.352204372E+01  6.125371710E+00  1.907929249E+02  1.250000000E+02  0.00000E+00  9.000E+00
      21     1     1     2   502   512 -4.228424896E+01 -1.819891849E+00 -1.180507566E+02  1.254083364E+02  1.907348633E-06  0.00000E+00  9.000E+00
#rwgt            1           1   2.9289937588455581E-002           6      122185           0
</event>
<event>
      5   9999  3.19816E-02  2.31043E+02 -1.00000E+00  1.09413E-01
      21    -1     0     0   502   501  0.000000000E+00  0.000000000E+00  9.460872310E+02  9.460872310E+02  0.000000000E+00  0.00000E+00  9.000E+00
       2    -1     0     0   501     0  0.000000000E+00  0.000000000E+00 -8.151532679E+02  8.151532679E+02  0.000000000E+00  0.00000E+00  9.000E+00
      25     1     1     2     0     0 -4.177347064E+02 -4.709044534E+01 -1.188007990E+02  4.543769634E+02  1.250000000E+02  0.00000E+00  9.000E+00
      25     1     1     2     0     0  1.869260856E+02  5.750281044E+01  7.342597747E+02  7.700716535E+02  1.250000000E+02  0.00000E+00  9.000E+00
       2     1     1     2   502     0  2.308086208E+02 -1.041236510E+01 -4.845250126E+02  5.367918820E+02  7.629394531E-06  0.00000E+00  9.000E+00
#rwgt            1           1   2.5626404123868515E-002           6      122315           0
</event>
<event>
      5   9999  3.19816E-02  3.99062E+01 -1.00000E+00  1.44903E-01
      21    -1     0     0   502   511  0.000000000E+00  0.000000000E+00  1.076948267E+03  1.076948267E+03  0.000000000E+00  0.00000E+00  9.000E+00
      21    -1     0     0   501   502  0.000000000E+00  0.000000000E+00 -2.898466867E+02  2.898466867E+02  0.000000000E+00  0.00000E+00  9.000E+00
      25     1     1     2     0     0  3.258148537E+02 -3.937662396E+02  2.304011636E+02  5.743839017E+02  1.250000000E+02  0.00000E+00  9.000E+00
      25     1     1     2     0     0 -3.455659979E+02  3.590906484E+02  4.673431268E+02  6.945477312E+02  1.250000000E+02  0.00000E+00  9.000E+00
      21     1     1     2   501   511  1.975114427E+01  3.467559121E+01  8.935729021E+01  9.786332122E+01  1.348699152E-06  0.00000E+00  9.000E+00
#rwgt            1           1   3.5039338410540410E-002           6      122358           0
</event>
<event>
      5   9999  3.19816E-02  9.10975E+01 -1.00000E+00  1.25677E-01
      21    -1     0     0   502   512  0.000000000E+00  0.000000000E+00  1.874834596E+03  1.874834596E+03  0.000000000E+00  0.00000E+00  9.000E+00
      21    -1     0     0   501   502  0.000000000E+00  0.000000000E+00 -7.850108222E+02  7.850108222E+02  0.000000000E+00  0.00000E+00  9.000E+00
      25     1     1     2     0     0  5.481820928E+01  4.924462367E+00 -7.581642455E+02  7.703682948E+02  1.250000000E+02  0.00000E+00  9.000E+00
      25     1     1     2     0     0  2.290178460E+01  4.259761838E+01  2.110893892E+02  2.500455540E+02  1.250000000E+02  0.00000E+00  9.000E+00
      21     1     1     2   501   512 -7.771999388E+01 -4.752208074E+01  1.636898630E+03  1.639431569E+03  0.000000000E+00  0.00000E+00  9.000E+00
#rwgt            1           1   3.1805567084875780E-002           6      122562           0
</event>
<event>
      5   9999  3.19816E-02  1.10311E+02 -1.00000E+00  1.21941E-01
      21    -1     0     0   502   501  0.000000000E+00  0.000000000E+00  5.553203442E+02  5.553203442E+02  0.000000000E+00  0.00000E+00  9.000E+00
      21    -1     0     0   501   511  0.000000000E+00  0.000000000E+00 -7.566361434E+02  7.566361434E+02  0.000000000E+00  0.00000E+00  9.000E+00
      25     1     1     2     0     0 -3.572657359E+02 -3.661178296E+02  4.702035112E+01  5.286936585E+02  1.250000000E+02  0.00000E+00  9.000E+00
      25     1     1     2     0     0  4.132060662E+02  4.611922075E+02 -2.243892047E+02  6.703827419E+02  1.250000000E+02  0.00000E+00  9.000E+00
      21     1     1     2   502   511 -5.594033034E+01 -9.507437789E+01 -2.394694557E+01  1.128800872E+02  1.066240300E-06  0.00000E+00  9.000E+00
#rwgt            1           1   3.1185032305143499E-002           6      122649           0
</event>
<event>
      5   9999  3.19816E-02  2.52824E+01 -1.00000E+00  1.58386E-01
      21    -1     0     0   502   501  0.000000000E+00  0.000000000E+00  1.425837709E+03  1.425837709E+03  0.000000000E+00  0.00000E+00  9.000E+00
      21    -1     0     0   512   502  0.000000000E+00  0.000000000E+00 -9.203869376E+02  9.203869376E+02  0.000000000E+00  0.00000E+00  9.000E+00
      25     1     1     2     0     0 -8.618401127E+02 -1.763396118E+02 -3.882973786E+02  9.696720542E+02  1.250000000E+02  0.00000E+00  9.000E+00
      25     1     1     2     0     0  8.426373408E+02  1.927851044E+02  9.646376443E+02  1.301289579E+03  1.250000000E+02  0.00000E+00  9.000E+00
      21     1     1     2   512   501  1.920277191E+01 -1.644549268E+01 -7.088949440E+01  7.526301280E+01  9.536743164E-07  0.00000E+00  9.000E+00
#rwgt            1           1   3.4381145501759247E-002           6      122717           0
</event>
<event>
      5   9999  3.19816E-02  4.45388E+01 -1.00000E+00  1.42003E-01
      21    -1     0     0   511   501  0.000000000E+00  0.000000000E+00  4.161774960E+02  4.161774960E+02  0.000000000E+00  0.00000E+00  9.000E+00
      21    -1     0     0   501   502  0.000000000E+00  0.000000000E+00 -2.496066819E+02  2.496066819E+02  0.000000000E+00  0.00000E+00  9.000E+00
      25     1     1     2     0     0  5.597481972E+00  1.033413534E+02  1.991054519E+02  2.568632868E+02  1.250000000E+02  0.00000E+00  9.000E+00
      25     1     1     2     0     0  2.878870673E+01 -1.316485262E+02 -1.785569642E+02  2.562571239E+02  1.250000000E+02  0.00000E+00  9.000E+00
      21     1     1     2   511   502 -3.438618870E+01  2.830717286E+01  1.460223264E+02  1.526637672E+02  1.907348633E-06  0.00000E+00  9.000E+00
#rwgt            1           1   3.0533495638736960E-002           6      122925           0
</event>
<event>
      5   9999  3.19816E-02  1.85735E+02 -1.00000E+00  1.12831E-01
      21    -1     0     0   502   512  0.000000000E+00  0.000000000E+00  7.944452998E+02  7.944452998E+02  0.000000000E+00  0.00000E+00  9.000E+00
      21    -1     0     0   501   502  0.000000000E+00  0.000000000E+00 -9.698697017E+02  9.698697017E+02  0.000000000E+00  0.00000E+00  9.000E+00
      25     1     1     2     0     0 -1.969716855E+02 -8.111075893E+02 -3.191614462E+02  9.023205612E+02  1.250000000E+02  0.00000E+00  9.000E+00
      25     1     1     2     0     0  1.360210615E+02  6.356583687E+02  1.378932143E+02  6.761677524E+02  1.250000000E+02  0.00000E+00  9.000E+00
      21     1     1     2   501   512  6.095062392E+01  1.754492207E+02  5.843830054E+00  1.858266879E+02  3.779141303E-06  0.00000E+00  9.000E+00
#rwgt            1           1   2.8392144949088562E-002           6      123042           0
</event>
<event>
      5   9999  3.19816E-02  8.52422E+01 -1.00000E+00  1.27029E-01
      21    -1     0     0   511   501  0.000000000E+00  0.000000000E+00  4.520321829E+02  4.520321829E+02  0.000000000E+00  0.00000E+00  9.000E+00
      21    -1     0     0   501   502  0.000000000E+00  0.000000000E+00 -1.197505657E+02  1.197505657E+02  0.000000000E+00  0.00000E+00  9.000E+00
      25     1     1     2     0     0 -7.602870655E+01  8.952963492E+01  1.782372395E+02  2.473649800E+02  1.250000000E+02  0.00000E+00  9.000E+00
      25     1     1     2     0     0  1.422816992E+01 -1.482402108E+02  7.571297072E+01  2.086505568E+02  1.250000000E+02  0.00000E+00  9.000E+00
      21     1     1     2   511   502  6.180053664E+01  5.871057585E+01  7.833140689E+01  1.157672119E+02  9.536743164E-07  0.00000E+00  9.000E+00
#rwgt            1           1   2.7159452929332393E-002           6      123111           0
</event>
<event>
      5   9999  3.19816E-02  2.19749E+02 -1.00000E+00  1.10179E-01
      21    -1     0     0   502   501  0.000000000E+00  0.000000000E+00  4.316064249E+02  4.316064249E+02  0.000000000E+00  0.00000E+00  9.000E+00
      21    -1     0     0   512   502  0.000000000E+00  0.000000000E+00 -7.168519289E+02  7.168519289E+02  0.000000000E+00  0.00000E+00  9.000E+00
      25     1     1     2     0     0  2.985415786E+02 -9.899269802E+01 -8.798829925E+01  3.497049746E+02  1.250000000E+02  0.00000E+00  9.000E+00
      25     1     1     2     0     0 -2.414529230E+02 -1.132108794E+02  1.921243418E+02  3.516432566E+02  1.250000000E+02  0.00000E+00  9.000E+00
      21     1     1     2   512   501 -5.708865566E+01  2.122035775E+02 -3.893815466E+02  4.471101226E+02  5.394796609E-06  0.00000E+00  9.000E+00
#rwgt            2          11   3.0203352155153663E-003           6      123172           0
</event>
<event>
      5   9999  3.19816E-02  1.57027E+02 -1.00000E+00  1.15611E-01
      -4    -1     0     0     0   501  0.000000000E+00  0.000000000E+00  2.122990463E+03  2.122990463E+03  0.000000000E+00  0.00000E+00  9.000E+00
      21    -1     0     0   501   502  0.000000000E+00  0.000000000E+00 -1.312985784E+03  1.312985784E+03  0.000000000E+00  0.00000E+00  9.000E+00
      25     1     1     2     0     0  6.412251142E+02 -8.685659623E+01  7.221866442E+02  9.776974299E+02  1.250000000E+02  0.00000E+00  9.000E+00
      25     1     1     2     0     0 -6.309236571E+02  2.435453822E+02 -1.079759537E+03  1.280189311E+03  1.250000000E+02  0.00000E+00  9.000E+00
      -4     1     1     2     0   502 -1.030145710E+01 -1.566887860E+02  1.167577572E+03  1.178089505E+03  0.000000000E+00  0.00000E+00  9.000E+00
#rwgt            1           1   3.4033214286577004E-002           6      123192           0
</event>
<event>
      5   9999  3.19816E-02  1.03866E+02 -1.00000E+00  1.23092E-01
      21    -1     0     0   511   501  0.000000000E+00  0.000000000E+00  4.957913832E+02  4.957913832E+02  0.000000000E+00  0.00000E+00  9.000E+00
      21    -1     0     0   501   502  0.000000000E+00  0.000000000E+00 -6.872019683E+02  6.872019683E+02  0.000000000E+00  0.00000E+00  9.000E+00
      25     1     1     2     0     0 -2.916607716E+02 -3.580755737E+02 -3.348449516E+02  5.839779651E+02  1.250000000E+02  0.00000E+00  9.000E+00
      25     1     1     2     0     0  3.616125362E+02  2.812974447E+02  9.449122215E+01  4.841956937E+02  1.250000000E+02  0.00000E+00  9.000E+00
      21     1     1     2   511   502 -6.995176456E+01  7.677812897E+01  4.894314439E+01  1.148196927E+02  1.507891493E-06  0.00000E+00  9.000E+00
#rwgt            1           1   2.8965958250558498E-002           6      123274           0
</event>
<event>
      5   9999  3.19816E-02  2.00138E+02 -1.00000E+00  1.11637E-01
       1    -1     0     0   502     0  0.000000000E+00  0.000000000E+00  8.321657482E+02  8.321657482E+02  0.000000000E+00  0.00000E+00  9.000E+00
      21    -1     0     0   501   502  0.000000000E+00  0.000000000E+00 -4.543891946E+02  4.543891946E+02  0.000000000E+00  0.00000E+00  9.000E+00
      25     1     1     2     0     0 -1.218263206E+02 -1.962195235E+02 -2.902955459E+02  3.914591394E+02  1.250000000E+02  0.00000E+00  9.000E+00
      25     1     1     2     0     0 -1.642406260E+01  5.150574653E+01 -5.347092822E+01  1.463103958E+02  1.250000000E+02  0.00000E+00  9.000E+00
       1     1     1     2   501     0  1.382503832E+02  1.447137770E+02  7.215430278E+02  7.487854076E+02  1.078959322E-05  0.00000E+00  9.000E+00
#rwgt            1           1   2.7161754469758576E-002           6      123336           0
</event>
<event>
      5   9999  3.19816E-02  1.03351E+01 -1.00000E+00  1.94117E-01
      21    -1     0     0   502   511  0.000000000E+00  0.000000000E+00  5.221958360E+02  5.221958360E+02  0.000000000E+00  0.00000E+00  9.000E+00
      21    -1     0     0   501   502  0.000000000E+00  0.000000000E+00 -2.617607705E+02  2.617607705E+02  0.000000000E+00  0.00000E+00  9.000E+00
      25     1     1     2     0     0  2.324679012E+02  2.376581324E+02  4.313192676E+01  3.577821629E+02  1.250000000E+02  0.00000E+00  9.000E+00
      25     1     1     2     0     0 -2.256232126E+02 -2.454018097E+02  2.083975350E+02  4.125317138E+02  1.250000000E+02  0.00000E+00  9.000E+00
      21     1     1     2   501   511 -6.844688661E+00  7.743677337E+00  8.905603724E+00  1.364272990E+01  2.064765462E-07  0.00000E+00  9.000E+00
#rwgt            1           1   2.8825210912440027E-002           6      123375           0
</event>
<event>
      5   9999  3.19816E-02  5.41548E+01 -1.00000E+00  1.37126E-01
      21    -1     0     0   502   501  0.000000000E+00  0.000000000E+00  5.046544304E+02  5.046544304E+02  0.000000000E+00  0.00000E+00  9.000E+00
      -2    -1     0     0     0   502  0.000000000E+00  0.000000000E+00 -5.196218207E+02  5.196218207E+02  0.000000000E+00  0.00000E+00  9.000E+00
      25     1     1     2     0     0 -1.694582756E+02 -2.258273187E+02  2.354882649E+02  3.883217840E+02  1.250000000E+02  0.00000E+00  9.000E+00
      25     1     1     2     0     0  2.001247510E+02  1.811920057E+02  7.436344055E+01  3.066518876E+02  1.250000000E+02  0.00000E+00  9.000E+00
      -2     1     1     2     0   501 -3.066647546E+01  4.463531301E+01 -3.248190957E+02  3.293025795E+02  0.000000000E+00  0.00000E+00  9.000E+00
#rwgt            1           1   2.8393289291873108E-002           6      123611           0
</event>
<event>
      5   9999  3.19816E-02  2.03758E+02 -1.00000E+00  1.11355E-01
      21    -1     0     0   502   511  0.000000000E+00  0.000000000E+00  2.841870713E+02  2.841870713E+02  0.000000000E+00  0.00000E+00  9.000E+00
      21    -1     0     0   501   502  0.000000000E+00  0.000000000E+00 -1.199934020E+03  1.199934020E+03  0.000000000E+00  0.00000E+00  9.000E+00
      25     1     1     2     0     0  4.913150809E+01  9.825649452E+01  1.233626813E+02  2.071511403E+02  1.250000000E+02  0.00000E+00  9.000E+00
      25     1     1     2     0     0  8.322320645E+00 -2.937463845E+02 -1.024014083E+03  1.072653738E+03  1.250000000E+02  0.00000E+00  9.000E+00
      21     1     1     2   501   511 -5.745382873E+01  1.954898899E+02 -1.509554738E+01  2.043162134E+02  1.379947293E-06  0.00000E+00  9.000E+00
#rwgt            1           1   2.7941083117846207E-002           6      123722           0
</event>
<event>
      5   9999  3.19816E-02  2.06356E+01 -1.00000E+00  1.65256E-01
      21    -1     0     0   502   501  0.000000000E+00  0.000000000E+00  6.689122415E+02  6.689122415E+02  0.000000000E+00  0.00000E+00  9.000E+00
      21    -1     0     0   501   512  0.000000000E+00  0.000000000E+00 -5.354477337E+02  5.354477337E+02  0.000000000E+00  0.00000E+00  9.000E+00
      25     1     1     2     0     0 -2.390453229E+02  4.963282400E+02 -8.450657319E+01  5.711836387E+02  1.250000000E+02  0.00000E+00  9.000E+00
      25     1     1     2     0     0  2.551373632E+02 -4.834102096E+02  2.334555524E+02  6.073771479E+02  1.250000000E+02  0.00000E+00  9.000E+00
      21     1     1     2   502   512 -1.609204038E+01 -1.291803038E+01 -1.548447148E+01  2.579918854E+01  5.057621821E-07  0.00000E+00  9.000E+00
#rwgt            1           1   3.0465353697828490E-002           6      123764           0
</event>
<event>
      5   9999  3.19816E-02  1.47286E+02 -1.00000E+00  1.16709E-01
      21    -1     0     0   502   501  0.000000000E+00  0.000000000E+00  1.507309383E+03  1.507309383E+03  0.000000000E+00  0.00000E+00  9.000E+00
      21    -1     0     0   501   511  0.000000000E+00  0.000000000E+00 -1.487702015E+02  1.487702015E+02  0.000000000E+00  0.00000E+00  9.000E+00
      25     1     1     2     0     0 -3.422109872E+02  6.156163811E+01  3.435218738E+02  5.045101316E+02  1.250000000E+02  0.00000E+00  9.000E+00
      25     1     1     2     0     0  2.441172507E+02  4.830527274E+01  9.510666604E+02  9.909992049E+02  1.250000000E+02  0.00000E+00  9.000E+00
      21     1     1     2   502   511  9.809373656E+01 -1.098669108E+02  6.395064703E+01  1.605702479E+02  6.743495762E-07  0.00000E+00  9.000E+00
#rwgt            1           1   2.8663451953112536E-002           6      123965           0
</event>
<event>
      5   9999  3.60898E-02  4.17391E+02 -1.00000E+00  1.01132E-01
      21    -1     0     0   502   501  0.000000000E+00  0.000000000E+00  1.128612109E+03  1.128612109E+03  0.000000000E+00  0.00000E+00  9.000E+00
       2    -1     0     0   501     0  0.000000000E+00  0.000000000E+00 -1.000294459E+03  1.000294459E+03  0.000000000E+00  0.00000E+00  9.000E+00
      25     1     1     2     0     0 -2.326314203E+02 -5.362938127E+01  2.241166312E+02  3.504950108E+02  1.250000000E+02  0.00000E+00  9.000E+00
      25     1     1     2     0     0 -1.813304776E+02  2.374932199E-01  7.787879267E+02  8.093308553E+02  1.250000000E+02  0.00000E+00  9.000E+00
       2     1     1     2   502     0  4.139618979E+02  5.339188805E+01 -8.745869079E+02  9.690807015E+02  1.078959322E-05  0.00000E+00  9.000E+00
#rwgt            2          13   2.8379528635276291E-002           6      124123           0
</event>
<event>
      5   9999  3.19816E-02  3.90295E+01 -1.00000E+00  1.45505E-01
      21    -1     0     0   502   501  0.000000000E+00  0.000000000E+00  2.912578662E+02  2.912578662E+02  0.000000000E+00  0.00000E+00  9.000E+00
      21    -1     0     0   511   502  0.000000000E+00  0.000000000E+00 -1.285113157E+03  1.285113157E+03  0.000000000E+00  0.00000E+00  9.000E+00
      25     1     1     2     0     0 -3.750436118E+02  4.474458092E+02 -4.182101904E+02  7.289651749E+02  1.250000000E+02  0.00000E+00  9.000E+00
      25     1     1     2     0     0  3.698906637E+02 -4.087579891E+02 -4.711956281E+02  7.359025185E+02  1.250000000E+02  0.00000E+00  9.000E+00
      21     1     1     2   511   501  5.152948052E+00 -3.868782016E+01 -1.044494724E+02  1.115033300E+02  1.907348633E-06  0.00000E+00  9.000E+00
#rwgt            1           1   3.6300451127234193E-002           6      124142           0
</event>
<event>
      5   9999  3.19816E-02  4.45876E+01 -1.00000E+00  1.41975E-01
      21    -1     0     0   512   501  0.000000000E+00  0.000000000E+00  1.076289657E+03  1.076289657E+03  0.000000000E+00  0.00000E+00  9.000E+00
      21    -1     0     0   501   502  0.000000000E+00  0.000000000E+00 -6.685519376E+01  6.685519376E+01  0.000000000E+00  0.00000E+00  9.000E+00
      25     1     1     2     0     0  8.433240290E+01  3.684021106E+01  7.346082219E+01  1.717284127E+02  1.250000000E+02  0.00000E+00  9.000E+00
      25     1     1     2     0     0 -6.516848449E+01  3.418881218E+00  2.759674655E+02  3.099058924E+02  1.250000000E+02  0.00000E+00  9.000E+00
      21     1     1     2   512   502 -1.916391841E+01 -4.025909228E+01  6.600061759E+02  6.615105461E+02  7.629394531E-06  0.00000E+00  9.000E+00
#rwgt            1           1   2.6488983166990283E-002           6      124262           0
</event>
<event>
      5   9999  3.19816E-02  4.36175E+01 -1.00000E+00  1.42546E-01
      21    -1     0     0   502   511  0.000000000E+00  0.000000000E+00  1.056074762E+03  1.056074762E+03  0.000000000E+00  0.00000E+00  9.000E+00
      21    -1     0     0   501   502  0.000000000E+00  0.000000000E+00 -2.325866389E+02  2.325866389E+02  0.000000000E+00  0.00000E+00  9.000E+00
      25     1     1     2     0     0 -2.386770774E+02  1.739185976E+02  8.146659367E+02  8.755112874E+02  1.250000000E+02  0.00000E+00  9.000E+00
      25     1     1     2     0     0  1.961622336E+02 -1.836639965E+02 -8.615030370E+01  3.086405034E+02  1.250000000E+02  0.00000E+00  9.000E+00
      21     1     1     2   501   511  4.251484378E+01  9.745398945E+00  9.497249045E+01  1.045096105E+02  2.336015456E-06  0.00000E+00  9.000E+00
#rwgt            1           1   2.5803885952371004E-002           6      124382           0
</event>
<event>
      5   9999  3.19816E-02  6.87678E+01 -1.00000E+00  1.31613E-01
       1    -1     0     0   502     0  0.000000000E+00  0.000000000E+00  1.076033400E+03  1.076033400E+03  0.000000000E+00  0.00000E+00  9.000E+00
      21    -1     0     0   501   502  0.000000000E+00  0.000000000E+00 -4.751519318E+02  4.751519318E+02  0.000000000E+00  0.00000E+00  9.000E+00
      25     1     1     2     0     0  9.773007554E+00  1.234976555E+02 -4.170797490E+02  4.526894074E+02  1.250000000E+02  0.00000E+00  9.000E+00
      25     1     1     2     0     0  1.431010503E+01 -5.908483839E+01  8.484258163E+01  1.628467405E+02  1.250000000E+02  0.00000E+00  9.000E+00
       1     1     1     2   501     0 -2.408311258E+01 -6.441281711E+01  9.331186360E+02  9.356491843E+02  1.525878906E-05  0.00000E+00  9.000E+00
#rwgt            1           1   2.4291910826483944E-002           6      124519           0
</event>
<event>
      5   9999  3.19816E-02  3.53533E+02 -1.00000E+00  1.03326E-01
      21    -1     0     0   502   501  0.000000000E+00  0.000000000E+00  1.117602360E+03  1.117602360E+03  0.000000000E+00  0.00000E+00  9.000E+00
      -2    -1     0     0     0   502  0.000000000E+00  0.000000000E+00 -1.120791075E+03  1.120791075E+03  0.000000000E+00  0.00000E+00  9.000E+00
      25     1     1     2     0     0 -4.797717347E+02  6.034293296E+02  5.621721407E+02  9.622735521E+02  1.250000000E+02  0.00000E+00  9.000E+00
      25     1     1     2     0     0  5.003741651E+02 -2.504970876E+02  4.035097353E+01  5.747836959E+02  1.250000000E+02  0.00000E+00  9.000E+00
      -2     1     1     2     0   501 -2.060243041E+01 -3.529322420E+02 -6.057118292E+02  7.013361873E+02  1.078959322E-05  0.00000E+00  9.000E+00
#rwgt            1           1   3.0650530164477750E-002           6      124568           0
</event>
<event>
      5   9999  3.19816E-02  1.58139E+01 -1.00000E+00  1.75249E-01
      21    -1     0     0   502   501  0.000000000E+00  0.000000000E+00  5.474248014E+02  5.474248014E+02  0.000000000E+00  0.00000E+00  9.000E+00
      21    -1     0     0   511   502  0.000000000E+00  0.000000000E+00 -5.001944624E+01  5.001944624E+01  0.000000000E+00  0.00000E+00  9.000E+00
      25     1     1     2     0     0 -4.784969650E+01 -7.091157192E+01  2.120848255E+02  2.606204476E+02  1.250000000E+02  0.00000E+00  9.000E+00
      25     1     1     2     0     0  4.235604771E+01  8.574052323E+01  2.778613902E+02  3.193390428E+02  1.250000000E+02  0.00000E+00  9.000E+00
      21     1     1     2   511   501  5.493648785E+00 -1.482895131E+01  7.459139397E+00  1.748475720E+01  1.884864366E-07  0.00000E+00  9.000E+00
#rwgt            1           1   6.7734396578324113E-002           6      124628           0
</event>
<event>
      5   9999  3.19816E-02  7.68825E+02 -1.00000E+00  9.38184E-02
       2    -1     0     0   502     0  0.000000000E+00  0.000000000E+00  1.099179654E+03  1.099179654E+03  0.000000000E+00  0.00000E+00  9.000E+00
      21    -1     0     0   501   502  0.000000000E+00  0.000000000E+00 -8.725863120E+02  8.725863120E+02  0.000000000E+00  0.00000E+00  9.000E+00
      25     1     1     2     0     0  1.292970402E+02 -2.020094702E+02 -1.285197312E+02  2.994459417E+02  1.250000000E+02  0.00000E+00  9.000E+00
      25     1     1     2     0     0 -1.964087932E+02 -5.638804467E+02 -2.836452880E+02  6.727683268E+02  1.250000000E+02  0.00000E+00  9.000E+00
       2     1     1     2   501     0  6.711175299E+01  7.658899169E+02  6.387583614E+02  9.995516977E+02  7.629394531E-06  0.00000E+00  9.000E+00
#rwgt            1           1   3.0294234552979877E-002           6      124838           0
</event>
<event>
      5   9999  3.19816E-02  3.05388E+02 -1.00000E+00  1.05341E-01
      21    -1     0     0   502   511  0.000000000E+00  0.000000000E+00  1.325620065E+03  1.325620065E+03  0.000000000E+00  0.00000E+00  9.000E+00
      21    -1     0     0   501   502  0.000000000E+00  0.000000000E+00 -1.293006027E+03  1.293006027E+03  0.000000000E+00  0.00000E+00  9.000E+00
      25     1     1     2     0     0  1.101926154E+03  2.134271179E+01 -6.339364743E+02  1.277574739E+03  1.250000000E+02  0.00000E+00  9.000E+00
      25     1     1     2     0     0 -7.976824664E+02  5.070292843E+00  2.939143268E+02  8.592634384E+02  1.250000000E+02  0.00000E+00  9.000E+00
      21     1     1     2   501   511 -3.042436872E+02 -2.641300463E+01  3.726361852E+02  4.817879145E+02  5.394796609E-06  0.00000E+00  9.000E+00
#rwgt            2          11   4.2341393429629120E-003           6      124884           0
</event>
<event>
      5   9999  3.19816E-02  1.51942E+01 -1.00000E+00  1.76859E-01
      21    -1     0     0   502   512  0.000000000E+00  0.000000000E+00  2.786024065E+02  2.786024065E+02  0.000000000E+00  0.00000E+00  9.000E+00
      21    -1     0     0   501   502  0.000000000E+00  0.000000000E+00 -1.804095128E+02  1.804095128E+02  0.000000000E+00  0.00000E+00  9.000E+00
      25     1     1     2     0     0  9.801588291E+01 -1.422793279E+02  6.565169480E+01  2.231270165E+02  1.250000000E+02  0.00000E+00  9.000E+00
      25     1     1     2     0     0 -1.109348399E+02  1.342816186E+02  1.848390307E+01  2.151853770E+02  1.250000000E+02  0.00000E+00  9.000E+00
      21     1     1     2   501   512  1.291895695E+01  7.997709247E+00  1.405729590E+01  2.069952583E+01  0.000000000E+00  0.00000E+00  9.000E+00
#rwgt            1           1   2.6546123470137916E-002           6      124904           0
</event>
<event>
      5   9999  3.19816E-02  8.70120E+01 -1.00000E+00  1.26608E-01
      21    -1     0     0   502   501  0.000000000E+00  0.000000000E+00  1.189285373E+03  1.189285373E+03  0.000000000E+00  0.00000E+00  9.000E+00
      21    -1     0     0   501   511  0.000000000E+00  0.000000000E+00 -1.494734736E+02  1.494734736E+02  0.000000000E+00  0.00000E+00  9.000E+00
      25     1     1     2     0     0 -2.200214654E+02  1.556019577E+02  1.440478378E+02  3.301457164E+02  1.250000000E+02  0.00000E+00  9.000E+00
      25     1     1     2     0     0  1.646611176E+02 -8.847287221E+01  8.937218846E+02  9.215772023E+02  1.250000000E+02  0.00000E+00  9.000E+00
      21     1     1     2   502   511  5.536034783E+01 -6.712908554E+01  2.042176910E+00  8.703592777E+01  9.564642034E-07  0.00000E+00  9.000E+00
#rwgt            1           1   2.8160715532795349E-002           6      125061           0
</event>
<event>
      5   9999  3.19816E-02  1.62902E+01 -1.00000E+00  1.74073E-01
       1    -1     0     0   502     0  0.000000000E+00  0.000000000E+00  2.186131901E+02  2.186131901E+02  0.000000000E+00  0.00000E+00  9.000E+00
      21    -1     0     0   501   502  0.000000000E+00  0.000000000E+00 -1.070114332E+03  1.070114332E+03  0.000000000E+00  0.00000E+00  9.000E+00
      25     1     1     2     0     0  1.862620431E+02 -3.637610711E+01 -2.355941111E+02  3.273321784E+02  1.250000000E+02  0.00000E+00  9.000E+00
      25     1     1     2     0     0 -1.924765108E+02  2.131785631E+01 -7.713755455E+02  8.050757048E+02  1.250000000E+02  0.00000E+00  9.000E+00
       1     1     1     2   501     0  6.214467795E+00  1.505825081E+01  1.554685146E+02  1.563196390E+02  1.907348633E-06  0.00000E+00  9.000E+00
#rwgt            1           1   2.0751885825976053E-002           6      125155           0
</event>
<event>
      5   9999  3.19816E-02  3.74159E+02 -1.00000E+00  1.02566E-01
      21    -1     0     0   502   501  0.000000000E+00  0.000000000E+00  7.313799303E+02  7.313799303E+02  0.000000000E+00  0.00000E+00  9.000E+00
       2    -1     0     0   501     0  0.000000000E+00  0.000000000E+00 -2.180387600E+03  2.180387600E+03  0.000000000E+00  0.00000E+00  9.000E+00
      25     1     1     2     0     0  5.049563647E+02  2.091249809E+02 -1.086135715E+03  1.222305191E+03  1.250000000E+02  0.00000E+00  9.000E+00
      25     1     1     2     0     0 -8.753606169E+02 -2.619962888E+02  2.641221392E+02  9.593142182E+02  1.250000000E+02  0.00000E+00  9.000E+00
       2     1     1     2   502     0  3.704042522E+02  5.287130788E+01 -6.269940939E+02  7.301481213E+02  7.629394531E-06  0.00000E+00  9.000E+00
#rwgt            1           1   3.3844130373153480E-002           6      125300           0
</event>
<event>
      5   9999  3.19816E-02  3.16673E+02 -1.00000E+00  1.04834E-01
      21    -1     0     0   502   511  0.000000000E+00  0.000000000E+00  1.486736999E+03  1.486736999E+03  0.000000000E+00  0.00000E+00  9.000E+00
      21    -1     0     0   501   502  0.000000000E+00  0.000000000E+00 -2.359369254E+03  2.359369254E+03  0.000000000E+00  0.00000E+00  9.000E+00
      25     1     1     2     0     0 -8.644371071E+02 -2.884056582E+02 -2.104324584E+03  2.296570550E+03  1.250000000E+02  0.00000E+00  9.000E+00
      25     1     1     2     0     0  5.688876457E+02  1.746852745E+02  6.706135458E+02  9.052599772E+02  1.250000000E+02  0.00000E+00  9.000E+00
      21     1     1     2   501   511  2.955494614E+02  1.137203838E+02  5.610787835E+02  6.442757260E+02  0.000000000E+00  0.00000E+00  9.000E+00
#rwgt            2          11   9.5335400705344863E-003           6      125462           0
</event>
<event>
      5   9999  3.19816E-02  3.23825E+02 -1.00000E+00  1.04525E-01
      21    -1     0     0   502   501  0.000000000E+00  0.000000000E+00  1.694457315E+03  1.694457315E+03  0.000000000E+00  0.00000E+00  9.000E+00
      21    -1     0     0   512   502  0.000000000E+00  0.000000000E+00 -2.190430301E+02  2.190430301E+02  0.000000000E+00  0.00000E+00  9.000E+00
      25     1     1     2     0     0  2.747504503E+02 -3.818741199E+02  3.209068527E+02  5.830281824E+02  1.250000000E+02  0.00000E+00  9.000E+00
      25     1     1     2     0     0 -1.075333783E+02  1.045636942E+02  8.934150093E+02  9.145011604E+02  1.250000000E+02  0.00000E+00  9.000E+00
      21     1     1     2   512   501 -1.672170720E+02  2.773104256E+02  2.610924228E+02  4.159710021E+02  8.529922400E-06  0.00000E+00  9.000E+00
#rwgt            1           1   2.6648138406704557E-002           6      125482           0
</event>
<event>
      5   9999  3.19816E-02  2.30436E+01 -1.00000E+00  1.61448E-01
      21    -1     0     0   502   501  0.000000000E+00  0.000000000E+00  5.279407292E+02  5.279407292E+02  0.000000000E+00  0.00000E+00  9.000E+00
      21    -1     0     0   501   511  0.000000000E+00  0.000000000E+00 -8.258556599E+02  8.258556599E+02  0.000000000E+00  0.00000E+00  9.000E+00
      25     1     1     2     0     0 -1.858342906E+02  5.511168695E+02  1.360550157E+02  6.102459788E+02  1.250000000E+02  0.00000E+00  9.000E+00
      25     1     1     2     0     0  1.956741915E+02 -5.302798081E+02 -4.048174356E+02  7.063902747E+02  1.250000000E+02  0.00000E+00  9.000E+00
      21     1     1     2   502   511 -9.839900909E+00 -2.083706141E+01 -2.915251092E+01  3.716013551E+01  3.371747881E-07  0.00000E+00  9.000E+00
#rwgt            1           1   2.9046027889342026E-002           6      125565           0
</event>
<event>
      5   9999  3.19816E-02  6.87714E+00 -1.00000E+00  2.16646E-01
      21    -1     0     0   502   501  0.000000000E+00  0.000000000E+00  3.865031533E+02  3.865031533E+02  0.000000000E+00  0.00000E+00  9.000E+00
      21    -1     0     0   512   502  0.000000000E+00  0.000000000E+00 -4.140527114E+02  4.140527114E+02  0.000000000E+00  0.00000E+00  9.000E+00
      25     1     1     2     0     0  1.385497441E+02 -1.137382516E+02  3.200289779E+02  3.875254419E+02  1.250000000E+02  0.00000E+00  9.000E+00
      25     1     1     2     0     0 -1.320802065E+02  1.160706669E+02 -3.312044187E+02  3.952707270E+02  1.250000000E+02  0.00000E+00  9.000E+00
      21     1     1     2   512   501 -6.469537539E+00 -2.332415316E+00 -1.637411731E+01  1.775969580E+01  0.000000000E+00  0.00000E+00  9.000E+00
#rwgt            1           1   2.9122461825508639E-002           6      125726           0
</event>
<event>
      5   9999  3.19816E-02  1.22818E+02 -1.00000E+00  1.19942E-01
      21    -1     0     0   502   501  0.000000000E+00  0.000000000E+00  2.122861237E+02  2.122861237E+02  0.000000000E+00  0.00000E+00  9.000E+00
      21    -1     0     0   501   511  0.000000000E+00  0.000000000E+00 -2.218577909E+03  2.218577909E+03  0.000000000E+00  0.00000E+00  9.000E+00
      25     1     1     2     0     0  2.031492910E+01  1.892105325E+02  1.291317021E+02  2.617504889E+02  1.250000000E+02  0.00000E+00  9.000E+00
      25     1     1     2     0     0  1.459871376E+01 -7.145904590E+01 -3.403243366E+02  3.698177548E+02  1.250000000E+02  0.00000E+00  9.000E+00
      21     1     1     2   502   511 -3.491364286E+01 -1.177514866E+02 -1.795099151E+03  1.799295789E+03  2.157918644E-05  0.00000E+00  9.000E+00
#rwgt            1           1   2.7054041664985359E-002           6      126067           0
</event>
<event>
      5   9999  3.19816E-02  6.13649E+01 -1.00000E+00  1.34183E-01
      21    -1     0     0   502   512  0.000000000E+00  0.000000000E+00  2.578495494E+03  2.578495494E+03  0.000000000E+00  0.00000E+00  9.000E+00
      21    -1     0     0   501   502  0.000000000E+00  0.000000000E+00 -6.094730725E+02  6.094730725E+02  0.000000000E+00  0.00000E+00  9.000E+00
      25     1     1     2     0     0  9.817957986E+02 -3.150551466E+02  1.435180670E+03  1.771595690E+03  1.250000000E+02  0.00000E+00  9.000E+00
      25     1     1     2     0     0 -9.511969305E+02  2.618633717E+02  1.242422815E+02  1.002202160E+03  1.250000000E+02  0.00000E+00  9.000E+00
      21     1     1     2   501   512 -3.059886809E+01  5.319177489E+01  4.095994703E+02  4.141707157E+02  7.629394531E-06  0.00000E+00  9.000E+00
#rwgt            1           1   3.3761609229714586E-002           6      126135           0
</event>
<event>
      5   9999  3.19816E-02  4.91144E+02 -1.00000E+00  9.90730E-02
      21    -1     0     0   502   501  0.000000000E+00  0.000000000E+00  1.017645022E+03  1.017645022E+03  0.000000000E+00  0.00000E+00  9.000E+00
       2    -1     0     0   501     0  0.000000000E+00  0.000000000E+00 -2.320850851E+03  2.320850851E+03  0.000000000E+00  0.00000E+00  9.000E+00
      25     1     1     2     0     0  1.201157551E+03  6.403290504E+02 -3.362316989E+02  1.407649641E+03  1.250000000E+02  0.00000E+00  9.000E+00
      25     1     1     2     0     0 -8.883642790E+02 -2.616696832E+02 -1.071329093E+02  9.406192512E+02  1.250000000E+02  0.00000E+00  9.000E+00
       2     1     1     2   502     0 -3.127932722E+02 -3.786593672E+02 -8.598412207E+02  9.902269802E+02  1.078959322E-05  0.00000E+00  9.000E+00
#rwgt            2          13   1.8630146225181395E-003           6      126349           0
</event>
<event>
      5   9999  3.19816E-02  8.77877E+01 -1.00000E+00  1.26427E-01
      21    -1     0     0   502   501  0.000000000E+00  0.000000000E+00  2.278943593E+02  2.278943593E+02  0.000000000E+00  0.00000E+00  9.000E+00
      21    -1     0     0   501   511  0.000000000E+00  0.000000000E+00 -5.106988148E+02  5.106988148E+02  0.000000000E+00  0.00000E+00  9.000E+00
      25     1     1     2     0     0  1.981856745E+02  5.103143967E+01 -1.343691279E+02  2.748851250E+02  1.250000000E+02  0.00000E+00  9.000E+00
      25     1     1     2     0     0 -2.834021437E+02 -7.212272388E+01 -3.453129910E+01  3.198997858E+02  1.250000000E+02  0.00000E+00  9.000E+00
      21     1     1     2   502   511  8.521646914E+01  2.109128421E+01 -1.139040285E+02  1.438082633E+02  3.015782986E-06  0.00000E+00  9.000E+00
#rwgt            1           1   2.7745174414868738E-002           6      126383           0
</event>
<event>
      5   9999  3.19816E-02  2.16337E+01 -1.00000E+00  1.63604E-01
      21    -1     0     0   502   501  0.000000000E+00  0.000000000E+00  3.347592725E+02  3.347592725E+02  0.000000000E+00  0.00000E+00  9.000E+00
      21    -1     0     0   512   502  0.000000000E+00  0.000000000E+00 -4.358749450E+02  4.358749450E+02  0.000000000E+00  0.00000E+00  9.000E+00
      25     1     1     2     0     0  3.726070683E+01  2.429690993E+02  2.136967206E+02  3.488748084E+02  1.250000000E+02  0.00000E+00  9.000E+00
      25     1     1     2     0     0 -2.531513138E+01 -2.249324247E+02 -2.965383981E+02  3.934405585E+02  1.250000000E+02  0.00000E+00  9.000E+00
      21     1     1     2   512   501 -1.194557545E+01 -1.803667466E+01 -1.827399509E+01  2.831885065E+01  3.371747881E-07  0.00000E+00  9.000E+00
#rwgt            1           1   2.6696067923698680E-002           6      126447           0
</event>
<event>
      5   9999  3.19816E-02  7.16406E+01 -1.00000E+00  1.30713E-01
      21    -1     0     0   502   501  0.000000000E+00  0.000000000E+00  5.481049224E+02  5.481049224E+02  0.000000000E+00  0.00000E+00  9.000E+00
      21    -1     0     0   511   502  0.000000000E+00  0.000000000E+00 -2.675444456E+02  2.675444456E+02  0.000000000E+00  0.00000E+00  9.000E+00
      25     1     1     2     0     0  9.516822987E+01 -1.867739018E+02  6.423215628E+00  2.441469641E+02  1.250000000E+02  0.00000E+00  9.000E+00
      25     1     1     2     0     0 -8.848278779E+01  2.581018773E+02  3.540782201E+02  4.641574827E+02  1.250000000E+02  0.00000E+00  9.000E+00
      21     1     1     2   511   501 -6.685442076E+00 -7.132797550E+01 -7.994095887E+01  1.073449213E+02  0.000000000E+00  0.00000E+00  9.000E+00
#rwgt            2          11   2.3173309156226851E-003           6      126666           0
</event>
<event>
      5   9999  3.19816E-02  3.18751E+01 -1.00000E+00  1.51233E-01
      21    -1     0     0   502   501  0.000000000E+00  0.000000000E+00  3.146426447E+02  3.146426447E+02  0.000000000E+00  0.00000E+00  9.000E+00
      21    -1     0     0   512   502  0.000000000E+00  0.000000000E+00 -2.269455887E+02  2.269455887E+02  0.000000000E+00  0.00000E+00  9.000E+00
      25     1     1     2     0     0  5.988631819E+01  1.871142494E+02  1.734728481E+01  2.335038366E+02  1.250000000E+02  0.00000E+00  9.000E+00
      25     1     1     2     0     0 -9.161114992E+01 -1.840230805E+02  1.036705187E+02  2.619726577E+02  1.250000000E+02  0.00000E+00  9.000E+00
      21     1     1     2   512   501  3.172483172E+01 -3.091168888E+00 -3.332074750E+01  4.611173914E+01  0.000000000E+00  0.00000E+00  9.000E+00
#rwgt            1           1   2.9139200096475661E-002           6      126686           0
</event>
<event>
      5   9999  3.19816E-02  1.11375E+01 -1.00000E+00  1.90500E-01
      21    -1     0     0   502   501  0.000000000E+00  0.000000000E+00  2.814561962E+02  2.814561962E+02  0.000000000E+00  0.00000E+00  9.000E+00
      -1    -1     0     0     0   502  0.000000000E+00  0.000000000E+00 -9.991941133E+02  9.991941133E+02  0.000000000E+00  0.00000E+00  9.000E+00
      25     1     1     2     0     0 -2.103600876E+02  1.236879067E+02 -8.822711241E+01  2.880261934E+02  1.250000000E+02  0.00000E+00  9.000E+00
      25     1     1     2     0     0  2.211126012E+02 -1.207850030E+02  7.256020553E+01  2.904647703E+02  1.250000000E+02  0.00000E+00  9.000E+00
      -1     1     1     2     0   501 -1.075251358E+01 -2.902903727E+00 -7.020710103E+02  7.021593458E+02  1.078959322E-05  0.00000E+00  9.000E+00
#rwgt            1           1   2.9037322817491946E-002           6      126803           0
</event>
<event>
      5   9999  3.19816E-02  2.23702E+01 -1.00000E+00  1.62453E-01
      21    -1     0     0   502   511  0.000000000E+00  0.000000000E+00  1.197084040E+03  1.197084040E+03  0.000000000E+00  0.00000E+00  9.000E+00
      21    -1     0     0   501   502  0.000000000E+00  0.000000000E+00 -9.202414817E+01  9.202414817E+01  0.000000000E+00  0.00000E+00  9.000E+00
      25     1     1     2     0     0 -2.436319281E+02  1.260605149E+02  7.525458671E+02  8.106775264E+02  1.250000000E+02  0.00000E+00  9.000E+00
      25     1     1     2     0     0  2.292278611E+02 -1.431762427E+02  3.068549149E+02  4.275860002E+02  1.250000000E+02  0.00000E+00  9.000E+00
      21     1     1     2   501   511  1.440406701E+01  1.711572787E+01  4.565910958E+01  5.084466122E+01  0.000000000E+00  0.00000E+00  9.000E+00
#rwgt            1           1   3.4260982290401983E-002           6      127035           0
</event>
<event>
      5   9999  3.19816E-02  1.43134E+02 -1.00000E+00  1.17206E-01
      21    -1     0     0   502   501  0.000000000E+00  0.000000000E+00  1.503127404E+02  1.503127404E+02  0.000000000E+00  0.00000E+00  9.000E+00
      21    -1     0     0   512   502  0.000000000E+00  0.000000000E+00 -1.426705571E+03  1.426705571E+03  0.000000000E+00  0.00000E+00  9.000E+00
      25     1     1     2     0     0  3.689338931E+02  1.267267459E+01 -3.069968074E+02  4.961298760E+02  1.250000000E+02  0.00000E+00  9.000E+00
      25     1     1     2     0     0 -2.830714016E+02 -1.271927016E+02 -6.992392210E+02  7.751566873E+02  1.250000000E+02  0.00000E+00  9.000E+00
      21     1     1     2   512   501 -8.586249145E+01  1.145200270E+02 -2.701568027E+02  3.057317485E+02  5.394796609E-06  0.00000E+00  9.000E+00
#rwgt            1           1   2.7953589235649806E-002           6      127238           0
</event>
<event>
      5   9999  3.19816E-02  7.18032E+01 -1.00000E+00  1.30664E-01
      21    -1     0     0   511   501  0.000000000E+00  0.000000000E+00  1.427134606E+03  1.427134606E+03  0.000000000E+00  0.00000E+00  9.000E+00
      21    -1     0     0   501   502  0.000000000E+00  0.000000000E+00 -3.610113285E+02  3.610113285E+02  0.000000000E+00  0.00000E+00  9.000E+00
      25     1     1     2     0     0 -4.474450691E+02 -2.308807570E+02 -1.704541003E+01  5.190650824E+02  1.250000000E+02  0.00000E+00  9.000E+00
      25     1     1     2     0     0  5.155124960E+02  2.537396675E+02  9.898974091E+02  1.151372587E+03  1.250000000E+02  0.00000E+00  9.000E+00
      21     1     1     2   511   502 -6.806742699E+01 -2.285891050E+01  9.327127855E+01  1.177082657E+02  1.348699152E-06  0.00000E+00  9.000E+00
#rwgt            1           1   3.2201653435410427E-002           6      127335           0
</event>
<event>
      5   9999  3.19816E-02  2.49430E+01 -1.00000E+00  1.58825E-01
      21    -1     0     0   512   501  0.000000000E+00  0.000000000E+00  2.907858001E+02  2.907858001E+02  0.000000000E+00  0.00000E+00  9.000E+00
      21    -1     0     0   501   502  0.000000000E+00  0.000000000E+00 -4.824580157E+02  4.824580157E+02  0.000000000E+00  0.00000E+00  9.000E+00
      25     1     1     2     0     0 -2.219238955E+02  7.434543420E+01  9.821418835E+01  2.829284110E+02  1.250000000E+02  0.00000E+00  9.000E+00
      25     1     1     2     0     0  2.434000052E+02 -8.703122392E+01 -3.334993061E+02  4.400736116E+02  1.250000000E+02  0.00000E+00  9.000E+00
      21     1     1     2   512   502 -2.147610974E+01  1.268578972E+01  4.361290216E+01  5.024179321E+01  4.768371582E-07  0.00000E+00  9.000E+00
#rwgt            1           1   2.9349555465024546E-002           6      127431           0
</event>
<event>
      5   9999  3.19816E-02  3.19073E+01 -1.00000E+00  1.51203E-01
      21    -1     0     0   502   501  0.000000000E+00  0.000000000E+00  4.791895753E+02  4.791895753E+02  0.000000000E+00  0.00000E+00  9.000E+00
      -4    -1     0     0     0   502  0.000000000E+00  0.000000000E+00 -6.181051576E+02  6.181051576E+02  0.000000000E+00  0.00000E+00  9.000E+00
      25     1     1     2     0     0 -3.332229729E+02  2.159899226E+02  1.125554939E+02  4.312573890E+02  1.250000000E+02  0.00000E+00  9.000E+00
      25     1     1     2     0     0  3.609769719E+02 -2.002484443E+02 -1.936149325E+01  4.317449260E+02  1.250000000E+02  0.00000E+00  9.000E+00
      -4     1     1     2     0   501 -2.775399901E+01 -1.574147827E+01 -2.321095829E+02  2.342924179E+02  2.697398305E-06  0.00000E+00  9.000E+00
#rwgt            1           1   2.8347629588989544E-002           6      127636           0
</event>
<event>
      5   9999  3.19816E-02  3.38284E+01 -1.00000E+00  1.49503E-01
      21    -1     0     0   511   501  0.000000000E+00  0.000000000E+00  8.758072838E+02  8.758072838E+02  0.000000000E+00  0.00000E+00  9.000E+00
      21    -1     0     0   501   502  0.000000000E+00  0.000000000E+00 -6.890064335E+01  6.890064335E+01  0.000000000E+00  0.00000E+00  9.000E+00
      25     1     1     2     0     0 -3.221983408E+01  1.627330467E+02  4.016320386E+02  4.521652979E+02  1.250000000E+02  0.00000E+00  9.000E+00
      25     1     1     2     0     0  4.537952871E+01 -1.315692169E+02  1.636092946E+02  2.485211495E+02  1.250000000E+02  0.00000E+00  9.000E+00
      21     1     1     2   511   502 -1.315969463E+01 -3.116382979E+01  2.416653072E+02  2.440214797E+02  2.697398305E-06  0.00000E+00  9.000E+00
#rwgt            1           1   2.5310540221878265E-002           6      127765           0
</event>
<event>
      5   9999  3.19816E-02  2.27684E+01 -1.00000E+00  1.61854E-01
      -1    -1     0     0     0   501  0.000000000E+00  0.000000000E+00  8.027122343E+01  8.027122343E+01  0.000000000E+00  0.00000E+00  9.000E+00
      21    -1     0     0   501   502  0.000000000E+00  0.000000000E+00 -1.273141755E+03  1.273141755E+03  0.000000000E+00  0.00000E+00  9.000E+00
      25     1     1     2     0     0 -1.018195529E+02  2.062033140E+02 -6.803446999E+02  7.289588045E+02  1.250000000E+02  0.00000E+00  9.000E+00
      25     1     1     2     0     0  1.015417912E+02 -1.834366215E+02 -5.376985834E+02  5.905120626E+02  1.250000000E+02  0.00000E+00  9.000E+00
      -1     1     1     2     0   502  2.777617304E-01 -2.276669252E+01  2.517275215E+01  3.394211088E+01  1.651812370E-06  0.00000E+00  9.000E+00
#rwgt            1           1   3.6898563027484711E-002           6      127864           0
</event>
<event>
      5   9999  3.19816E-02  6.77300E+01 -1.00000E+00  1.31950E-01
      -2    -1     0     0     0   501  0.000000000E+00  0.000000000E+00  7.023504796E+02  7.023504796E+02  0.000000000E+00  0.00000E+00  9.000E+00
      21    -1     0     0   501   502  0.000000000E+00  0.000000000E+00 -2.482040388E+02  2.482040388E+02  0.000000000E+00  0.00000E+00  9.000E+00
      25     1     1     2     0     0  2.186656821E+02  6.341533841E+01  4.015091598E+01  2.628179631E+02  1.250000000E+02  0.00000E+00  9.000E+00
      25     1     1     2     0     0 -1.515260919E+02 -5.449154866E+01 -5.718083055E+01  2.117171056E+02  1.250000000E+02  0.00000E+00  9.000E+00
      -2     1     1     2     0   502 -6.713959018E+01 -8.923789750E+00  4.711763555E+02  4.760194497E+02  0.000000000E+00  0.00000E+00  9.000E+00
#rwgt            1           1   3.0158896767498920E-002           6      127969           0
</event>
<event>
      5   9999  3.19816E-02  1.22777E+02 -1.00000E+00  1.19948E-01
      21    -1     0     0   502   501  0.000000000E+00  0.000000000E+00  3.614914957E+02  3.614914957E+02  0.000000000E+00  0.00000E+00  9.000E+00
      21    -1     0     0   511   502  0.000000000E+00  0.000000000E+00 -1.287249424E+03  1.287249424E+03  0.000000000E+00  0.00000E+00  9.000E+00
      25     1     1     2     0     0 -3.965324456E+02 -3.160469723E+02 -2.690312534E+01  5.229459315E+02  1.250000000E+02  0.00000E+00  9.000E+00
      25     1     1     2     0     0  4.748520881E+02  2.214942760E+02 -6.213384937E+02  8.223325019E+02  1.250000000E+02  0.00000E+00  9.000E+00
      21     1     1     2   511   501 -7.831964253E+01  9.455269633E+01 -2.775163092E+02  3.034624864E+02  0.000000000E+00  0.00000E+00  9.000E+00
#rwgt            1           1   2.9822483887794002E-002           6      128030           0
</event>
<event>
      5   9999  3.19816E-02  3.39821E+01 -1.00000E+00  1.49373E-01
      21    -1     0     0   502   501  0.000000000E+00  0.000000000E+00  5.802693365E+02  5.802693365E+02  0.000000000E+00  0.00000E+00  9.000E+00
       2    -1     0     0   501     0  0.000000000E+00  0.000000000E+00 -1.856359688E+03  1.856359688E+03  0.000000000E+00  0.00000E+00  9.000E+00
      25     1     1     2     0     0 -2.803710994E+02  4.889911886E+01  5.106975420E+02  5.978595626E+02  1.250000000E+02  0.00000E+00  9.000E+00
      25     1     1     2     0     0  2.574319684E+02 -7.397058799E+01 -8.244931213E+02  8.758748617E+02  1.250000000E+02  0.00000E+00  9.000E+00
       2     1     1     2   502     0  2.293913091E+01  2.507146913E+01 -9.622947720E+02  9.628945999E+02  1.525878906E-05  0.00000E+00  9.000E+00
#rwgt            1           1   3.6495107514488839E-002           6      128113           0
</event>
<event>
      5   9999  3.19816E-02  1.93212E+01 -1.00000E+00  1.67616E-01
      21    -1     0     0   502   501  0.000000000E+00  0.000000000E+00  1.559353327E+02  1.559353327E+02  0.000000000E+00  0.00000E+00  9.000E+00
      21    -1     0     0   511   502  0.000000000E+00  0.000000000E+00 -6.371456000E+02  6.371456000E+02  0.000000000E+00  0.00000E+00  9.000E+00
      25     1     1     2     0     0 -9.516041022E+01  1.566666900E+00  1.626372867E+01  1.579476717E+02  1.250000000E+02  0.00000E+00  9.000E+00
      25     1     1     2     0     0  1.016527450E+02 -1.976444007E+01 -2.734888442E+01  1.646112850E+02  1.250000000E+02  0.00000E+00  9.000E+00
      21     1     1     2   511   501 -6.492334819E+00  1.819777317E+01 -4.701251115E+02  4.705219760E+02  0.000000000E+00  0.00000E+00  9.000E+00
#rwgt            1           1   2.2200253335064153E-002           6      128298           0
</event>
<event>
      5   9999  3.19816E-02  2.97289E+02 -1.00000E+00  1.05720E-01
       2    -1     0     0   502     0  0.000000000E+00  0.000000000E+00  3.116632744E+03  3.116632744E+03  0.000000000E+00  0.00000E+00  9.000E+00
      21    -1     0     0   501   502  0.000000000E+00  0.000000000E+00 -6.625596534E+01  6.625596534E+01  0.000000000E+00  0.00000E+00  9.000E+00
      25     1     1     2     0     0  1.927996429E+02  1.318110015E+02  6.072577976E+02  6.625200942E+02  1.250000000E+02  0.00000E+00  9.000E+00
      25     1     1     2     0     0 -5.807229974E+01  1.331971152E+02  2.951667959E+02  3.519407633E+02  1.250000000E+02  0.00000E+00  9.000E+00
       2     1     1     2   501     0 -1.347273432E+02 -2.650081167E+02  2.147952185E+03  2.168427852E+03  3.051757812E-05  0.00000E+00  9.000E+00
#rwgt            1           1   2.6643409975173112E-002           6      128417           0
</event>
<event>
      5   9999  3.19816E-02  1.02122E+02 -1.00000E+00  1.23419E-01
      21    -1     0     0   502   501  0.000000000E+00  0.000000000E+00  7.627941855E+02  7.627941855E+02  0.000000000E+00  0.00000E+00  9.000E+00
      21    -1     0     0   511   502  0.000000000E+00  0.000000000E+00 -3.033332699E+02  3.033332699E+02  0.000000000E+00  0.00000E+00  9.000E+00
      25     1     1     2     0     0  1.208659564E+02 -3.694314240E+02  1.266743162E+01  4.085016772E+02  1.250000000E+02  0.00000E+00  9.000E+00
      25     1     1     2     0     0 -2.253193777E+01  3.418747026E+02  4.108296271E+02  5.493559712E+02  1.250000000E+02  0.00000E+00  9.000E+00
      21     1     1     2   511   501 -9.833401862E+01  2.755672135E+01  3.596385691E+01  1.082698070E+02  1.966049969E-06  0.00000E+00  9.000E+00
#rwgt            1           1   2.9350589442201043E-002           6      128459           0
</event>
<event>
      5   9999  3.19816E-02  9.31659E+01 -1.00000E+00  1.25227E-01
      21    -1     0     0   502   501  0.000000000E+00  0.000000000E+00  3.414073516E+02  3.414073516E+02  0.000000000E+00  0.00000E+00  9.000E+00
      21    -1     0     0   512   502  0.000000000E+00  0.000000000E+00 -5.706694327E+02  5.706694327E+02  0.000000000E+00  0.00000E+00  9.000E+00
      25     1     1     2     0     0  3.904000334E+00  2.245355839E+02  2.367248942E+00  2.570254336E+02  1.250000000E+02  0.00000E+00  9.000E+00
      25     1     1     2     0     0  7.494841580E+01 -2.741559197E+02  8.751416534E+01  3.225871393E+02  1.250000000E+02  0.00000E+00  9.000E+00
      21     1     1     2   512   501 -7.885241613E+01  4.962033584E+01 -3.191434954E+02  3.324642115E+02  0.000000000E+00  0.00000E+00  9.000E+00
#rwgt            1           1   2.4545485075835830E-002           6      128544           0
</event>
<event>
      5   9999  3.19816E-02  2.49997E+01 -1.00000E+00  1.58751E-01
      21    -1     0     0   502   511  0.000000000E+00  0.000000000E+00  3.392963019E+02  3.392963019E+02  0.000000000E+00  0.00000E+00  9.000E+00
      21    -1     0     0   501   502  0.000000000E+00  0.000000000E+00 -2.749517627E+02  2.749517627E+02  0.000000000E+00  0.00000E+00  9.000E+00
      25     1     1     2     0     0  7.988206812E+01 -8.580499536E+01  2.744803698E+02  3.235863338E+02  1.250000000E+02  0.00000E+00  9.000E+00
      25     1     1     2     0     0 -5.754340480E+01  7.458135472E+01 -2.142423518E+02  2.653269817E+02  1.250000000E+02  0.00000E+00  9.000E+00
      21     1     1     2   501   511 -2.233866333E+01  1.122364064E+01  4.106521276E+00  2.533474897E+01  5.748063779E-07  0.00000E+00  9.000E+00
#rwgt            2          11   8.8608284837868225E-003           6      128972           0
</event>
<event>
      5   9999  3.19816E-02  1.54336E+02 -1.00000E+00  1.15905E-01
      21    -1     0     0   502   501  0.000000000E+00  0.000000000E+00  2.989333029E+02  2.989333029E+02  0.000000000E+00  0.00000E+00  9.000E+00
      21    -1     0     0   512   502  0.000000000E+00  0.000000000E+00 -3.603996386E+02  3.603996386E+02  0.000000000E+00  0.00000E+00  9.000E+00
      25     1     1     2     0     0 -3.771222454E+01  1.027037298E+02 -6.504342688E+01  1.783981933E+02  1.250000000E+02  0.00000E+00  9.000E+00
      25     1     1     2     0     0  1.831083651E+02 -1.544691326E+02  1.118089560E+02  2.924305541E+02  1.250000000E+02  0.00000E+00  9.000E+00
      21     1     1     2   512   501 -1.453961406E+02  5.176540283E+01 -1.082318649E+02  1.885041941E+02  1.907348633E-06  0.00000E+00  9.000E+00
#rwgt            1           1   3.2964287907613209E-002           6      129037           0
</event>
<event>
      5   9999  3.19816E-02  2.66447E+01 -1.00000E+00  1.56706E-01
      21    -1     0     0   511   501  0.000000000E+00  0.000000000E+00  4.359381889E+02  4.359381889E+02  0.000000000E+00  0.00000E+00  9.000E+00
      21    -1     0     0   501   502  0.000000000E+00  0.000000000E+00 -2.070999629E+02  2.070999629E+02  0.000000000E+00  0.00000E+00  9.000E+00
      25     1     1     2     0     0 -4.144993614E+01  2.197426767E+02  2.001170340E+00  2.561912291E+02  1.250000000E+02  0.00000E+00  9.000E+00
      25     1     1     2     0     0  6.664200129E+01 -2.284203547E+02  1.550949195E+02  3.103166912E+02  1.250000000E+02  0.00000E+00  9.000E+00
      21     1     1     2   511   502 -2.519206515E+01  8.677677967E+00  7.174213622E+01  7.653023161E+01  9.536743164E-07  0.00000E+00  9.000E+00
#rwgt            1           1   2.4732691616749698E-002           6      129091           0
</event>
<event>
      5   9999  3.19816E-02  1.05692E+02 -1.00000E+00  1.22756E-01
       1    -1     0     0   502     0  0.000000000E+00  0.000000000E+00  2.186258966E+03  2.186258966E+03  0.000000000E+00  0.00000E+00  9.000E+00
      21    -1     0     0   501   502  0.000000000E+00  0.000000000E+00 -5.883827003E+01  5.883827003E+01  0.000000000E+00  0.00000E+00  9.000E+00
      25     1     1     2     0     0 -3.531050690E+01  5.854852616E+01  5.128402804E+02  5.322639524E+02  1.250000000E+02  0.00000E+00  9.000E+00
      25     1     1     2     0     0 -5.890318653E+01 -1.064705096E+01  5.409975574E+01  1.487774467E+02  1.250000000E+02  0.00000E+00  9.000E+00
       1     1     1     2   501     0  9.421369343E+01 -4.790147520E+01  1.560480660E+03  1.564055837E+03  3.051757812E-05  0.00000E+00  9.000E+00
#rwgt            1           1   2.2604346109055286E-002           6      129177           0
</event>
<event>
      5   9999  3.19816E-02  3.39226E+01 -1.00000E+00  1.49423E-01
      21    -1     0     0   502   501  0.000000000E+00  0.000000000E+00  4.688670290E+02  4.688670290E+02  0.000000000E+00  0.00000E+00  9.000E+00
       1    -1     0     0   501     0  0.000000000E+00  0.000000000E+00 -9.309906647E+02  9.309906647E+02  0.000000000E+00  0.00000E+00  9.000E+00
      25     1     1     2     0     0 -3.379897913E+02  1.459320143E+02  3.113624462E+02  4.981012193E+02  1.250000000E+02  0.00000E+00  9.000E+00
      25     1     1     2     0     0  3.422576627E+02 -1.795850401E+02 -5.973731288E+02  7.224062218E+02  1.250000000E+02  0.00000E+00  9.000E+00
       1     1     1     2   502     0 -4.267871386E+00  3.365302585E+01 -1.761129530E+02  1.793502525E+02  1.907348633E-06  0.00000E+00  9.000E+00
#rwgt            1           1   3.0139151639629453E-002           6      129217           0
</event>
<event>
      5   9999  3.19816E-02  7.75114E+01 -1.00000E+00  1.29017E-01
      21    -1     0     0   502   511  0.000000000E+00  0.000000000E+00  3.645483051E+02  3.645483051E+02  0.000000000E+00  0.00000E+00  9.000E+00
      21    -1     0     0   501   502  0.000000000E+00  0.000000000E+00 -2.004581284E+03  2.004581284E+03  0.000000000E+00  0.00000E+00  9.000E+00
      25     1     1     2     0     0  3.234687758E+02  6.342878884E+02 -1.031150203E+03  1.259304933E+03  1.250000000E+02  0.00000E+00  9.000E+00
      25     1     1     2     0     0 -3.471581136E+02 -5.604852037E+02 -7.135963498E+02  9.795443685E+02  1.250000000E+02  0.00000E+00  9.000E+00
      21     1     1     2   501   511  2.368933781E+01 -7.380268474E+01  1.047135731E+02  1.302802878E+02  3.015782986E-06  0.00000E+00  9.000E+00
#rwgt            1           1   2.7971580498139286E-002           6      129334           0
</event>
<event>
      5   9999  3.19816E-02  1.06703E+02 -1.00000E+00  1.22574E-01
      21    -1     0     0   502   501  0.000000000E+00  0.000000000E+00  8.548160336E+01  8.548160336E+01  0.000000000E+00  0.00000E+00  9.000E+00
      21    -1     0     0   501   512  0.000000000E+00  0.000000000E+00 -6.227358953E+02  6.227358953E+02  0.000000000E+00  0.00000E+00  9.000E+00
      25     1     1     2     0     0 -7.071255809E+01 -7.625074493E+01 -9.932665853E+01  1.905393058E+02  1.250000000E+02  0.00000E+00  9.000E+00
      25     1     1     2     0     0  1.081320168E+02 -2.367599703E+01 -2.995243910E+02  3.429182800E+02  1.250000000E+02  0.00000E+00  9.000E+00
      21     1     1     2   502   512 -3.741945874E+01  9.992674196E+01 -1.384032424E+02  1.747599129E+02  1.907348633E-06  0.00000E+00  9.000E+00
#rwgt            1           1   3.5133468254777596E-002           6      129443           0
</event>
<event>
      5   9999  3.19816E-02  2.34524E+02 -1.00000E+00  1.09187E-01
      21    -1     0     0   511   501  0.000000000E+00  0.000000000E+00  1.041468315E+03  1.041468315E+03  0.000000000E+00  0.00000E+00  9.000E+00
      21    -1     0     0   501   502  0.000000000E+00  0.000000000E+00 -1.612753285E+03  1.612753285E+03  0.000000000E+00  0.00000E+00  9.000E+00
      25     1     1     2     0     0  4.281033472E+02  7.933395066E+02  5.613181460E+02  1.069281586E+03  1.250000000E+02  0.00000E+00  9.000E+00
      25     1     1     2     0     0 -2.698711998E+02 -6.202377289E+02 -1.160215442E+03  1.348795825E+03  1.250000000E+02  0.00000E+00  9.000E+00
      21     1     1     2   511   502 -1.582321474E+02 -1.731017777E+02  2.761232566E+01  2.361441899E+02  5.168791625E-06  0.00000E+00  9.000E+00
#rwgt            2          11   1.1780311299997247E-002           6      129582           0
</event>
<event>
      5   9999  3.19816E-02  6.36282E+01 -1.00000E+00  1.33355E-01
      21    -1     0     0   502   501  0.000000000E+00  0.000000000E+00  1.659347910E+03  1.659347910E+03  0.000000000E+00  0.00000E+00  9.000E+00
      21    -1     0     0   501   512  0.000000000E+00  0.000000000E+00 -1.224703524E+02  1.224703524E+02  0.000000000E+00  0.00000E+00  9.000E+00
      25     1     1     2     0     0  2.017854273E+02 -2.770456007E+02  3.342685389E+02  4.948050926E+02  1.250000000E+02  0.00000E+00  9.000E+00
      25     1     1     2     0     0 -1.541203443E+02  3.191951577E+02  1.127934246E+03  1.188906763E+03  1.250000000E+02  0.00000E+00  9.000E+00
      21     1     1     2   502   512 -4.766508296E+01 -4.214955698E+01  7.467477345E+01  9.810640691E+01  1.651812370E-06  0.00000E+00  9.000E+00
#rwgt            1           1   2.5050027912440060E-002           6      129602           0
</event>
<event>
      5   9999  3.19816E-02  1.66092E+02 -1.00000E+00  1.14666E-01
      21    -1     0     0   511   501  0.000000000E+00  0.000000000E+00  2.907565952E+03  2.907565952E+03  0.000000000E+00  0.00000E+00  9.000E+00
      21    -1     0     0   501   502  0.000000000E+00  0.000000000E+00 -3.504372258E+02  3.504372258E+02  0.000000000E+00  0.00000E+00  9.000E+00
      25     1     1     2     0     0  3.557681148E+02  7.866210696E+02  1.588455547E+03  1.812225064E+03  1.250000000E+02  0.00000E+00  9.000E+00
      25     1     1     2     0     0 -1.920194012E+02 -8.144235587E+02  5.875822472E+02  1.030065571E+03  1.250000000E+02  0.00000E+00  9.000E+00
      21     1     1     2   511   502 -1.637487136E+02  2.780248906E+01  3.810909323E+02  4.157125429E+02  5.394796609E-06  0.00000E+00  9.000E+00
#rwgt            2          11   5.4934807773340906E-003           6      129935           0
</event>
<event>
      5   9999  3.19816E-02  5.20303E+01 -1.00000E+00  1.38096E-01
      21    -1     0     0   502   512  0.000000000E+00  0.000000000E+00  2.819922355E+02  2.819922355E+02  0.000000000E+00  0.00000E+00  9.000E+00
      21    -1     0     0   501   502  0.000000000E+00  0.000000000E+00 -1.242513377E+03  1.242513377E+03  0.000000000E+00  0.00000E+00  9.000E+00
      25     1     1     2     0     0  2.318438488E+02  3.105916401E+02 -9.941024642E+02  1.074282759E+03  1.250000000E+02  0.00000E+00  9.000E+00
      25     1     1     2     0     0 -2.610860651E+02 -2.675563000E+02  1.337327805E+01  3.944060745E+02  1.250000000E+02  0.00000E+00  9.000E+00
      21     1     1     2   501   512  2.924221625E+01 -4.303534013E+01  2.020804485E+01  5.581677873E+01  1.283923342E-06  0.00000E+00  9.000E+00
#rwgt            1           1   3.1143177964099374E-002           6      129955           0
</event>
<event>
      5   9999  3.19816E-02  2.98800E+01 -1.00000E+00  1.53161E-01
      21    -1     0     0   502   501  0.000000000E+00  0.000000000E+00  2.365610976E+03  2.365610976E+03  0.000000000E+00  0.00000E+00  9.000E+00
      21    -1     0     0   511   502  0.000000000E+00  0.000000000E+00 -1.837268615E+02  1.837268615E+02  0.000000000E+00  0.00000E+00  9.000E+00
      25     1     1     2     0     0 -5.919893925E+02  1.213187966E+02  1.459792058E+03  1.584861995E+03  1.250000000E+02  0.00000E+00  9.000E+00
      25     1     1     2     0     0  5.817864403E+02 -9.323469590E+01  7.127493863E+02  9.331692549E+02  1.250000000E+02  0.00000E+00  9.000E+00
      21     1     1     2   511   501  1.020295221E+01 -2.808410074E+01  9.342670620E+00  3.130658785E+01  4.915124924E-07  0.00000E+00  9.000E+00
#rwgt            1           1   3.4015360708428172E-002           6      130118           0
</event>
<event>
      5   9999  3.19816E-02  9.38796E+01 -1.00000E+00  1.25074E-01
      21    -1     0     0   502   501  0.000000000E+00  0.000000000E+00  1.793970847E+02  1.793970847E+02  0.000000000E+00  0.00000E+00  9.000E+00
      21    -1     0     0   512   502  0.000000000E+00  0.000000000E+00 -7.567780710E+02  7.567780710E+02  0.000000000E+00  0.00000E+00  9.000E+00
      25     1     1     2     0     0  1.608572347E+02  7.158949737E+01  2.503677561E+01  2.173751279E+02  1.250000000E+02  0.00000E+00  9.000E+00
      25     1     1     2     0     0 -2.537086581E+02 -8.544551327E+01 -4.916861303E+02  5.736281632E+02  1.250000000E+02  0.00000E+00  9.000E+00
      21     1     1     2   512   501  9.285142343E+01  1.385601590E+01 -1.107316317E+02  1.451718646E+02  2.336015456E-06  0.00000E+00  9.000E+00
#rwgt            1           1   3.1554287854647173E-002           6      130331           0
</event>
<event>
      5   9999  3.19816E-02  1.82242E+01 -1.00000E+00  1.69771E-01
      21    -1     0     0   511   501  0.000000000E+00  0.000000000E+00  6.545117436E+02  6.545117436E+02  0.000000000E+00  0.00000E+00  9.000E+00
      21    -1     0     0   501   502  0.000000000E+00  0.000000000E+00 -8.124841542E+02  8.124841542E+02  0.000000000E+00  0.00000E+00  9.000E+00
      25     1     1     2     0     0 -7.377211141E+01  5.962145183E+02  8.104806388E+00  6.136813213E+02  1.250000000E+02  0.00000E+00  9.000E+00
      25     1     1     2     0     0  6.179919331E+01 -6.099538493E+02 -3.169203090E+02  7.013745938E+02  1.250000000E+02  0.00000E+00  9.000E+00
      21     1     1     2   511   502  1.197291810E+01  1.373933103E+01  1.508430919E+02  1.519399828E+02  2.697398305E-06  0.00000E+00  9.000E+00
#rwgt            1           1   3.1416245644928446E-002           6      130459           0
</event>
<event>
      5   9999  3.19816E-02  8.50840E+02 -1.00000E+00  9.27074E-02
       1    -1     0     0   502     0  0.000000000E+00  0.000000000E+00  9.003905248E+02  9.003905248E+02  0.000000000E+00  0.00000E+00  9.000E+00
      21    -1     0     0   501   502  0.000000000E+00  0.000000000E+00 -1.238367188E+03  1.238367188E+03  0.000000000E+00  0.00000E+00  9.000E+00
      25     1     1     2     0     0 -2.568910638E+02  1.586557511E+02 -8.001472459E+01  3.364402208E+02  1.250000000E+02  0.00000E+00  9.000E+00
      25     1     1     2     0     0 -5.799742855E+02 -5.081658188E+00 -6.373130107E+02  8.707404141E+02  1.250000000E+02  0.00000E+00  9.000E+00
       1     1     1     2   501     0  8.368653493E+02 -1.535740929E+02  3.793510725E+02  9.315770774E+02  1.078959322E-05  0.00000E+00  9.000E+00
#rwgt            2          17   7.5498719247256733E-004           6      130682           0
</event>
<event>
      5   9999  3.19816E-02  9.04646E+00 -1.00000E+00  2.00926E-01
      21    -1     0     0   502   511  0.000000000E+00  0.000000000E+00  2.830842563E+02  2.830842563E+02  0.000000000E+00  0.00000E+00  9.000E+00
      21    -1     0     0   501   502  0.000000000E+00  0.000000000E+00 -5.464920098E+02  5.464920098E+02  0.000000000E+00  0.00000E+00  9.000E+00
      25     1     1     2     0     0 -7.064728446E+01  2.010142497E+02 -1.963644163E+02  3.155657639E+02  1.250000000E+02  0.00000E+00  9.000E+00
      25     1     1     2     0     0  7.433544952E+01 -1.927537453E+02 -2.402168891E+02  3.406008209E+02  1.250000000E+02  0.00000E+00  9.000E+00
      21     1     1     2   501   511 -3.688165058E+00 -8.260504424E+00  1.731735519E+02  1.734096813E+02  1.907348633E-06  0.00000E+00  9.000E+00
#rwgt            1           1   3.4561255669959733E-002           6      130716           0
</event>
<event>
      5   9999  3.19816E-02  4.31567E+01 -1.00000E+00  1.42824E-01
      21    -1     0     0   512   501  0.000000000E+00  0.000000000E+00  1.189884250E+03  1.189884250E+03  0.000000000E+00  0.00000E+00  9.000E+00
      21    -1     0     0   501   502  0.000000000E+00  0.000000000E+00 -3.918222919E+02  3.918222919E+02  0.000000000E+00  0.00000E+00  9.000E+00
      25     1     1     2     0     0  5.604645214E+02  2.610694915E+02  3.468863217E+02  7.198839346E+02  1.250000000E+02  0.00000E+00  9.000E+00
      25     1     1     2     0     0 -5.727287083E+02 -3.024468565E+02  3.390294392E+02  7.416591097E+02  1.250000000E+02  0.00000E+00  9.000E+00
      21     1     1     2   512   502  1.226418697E+01  4.137736498E+01  1.121461973E+02  1.201634977E+02  1.907348633E-06  0.00000E+00  9.000E+00
#rwgt            2          11   4.1656699396509051E-003           6      130902           0
</event>
<event>
      5   9999  3.19816E-02  1.43814E+02 -1.00000E+00  1.17123E-01
      21    -1     0     0   502   501  0.000000000E+00  0.000000000E+00  8.226433236E+02  8.226433236E+02  0.000000000E+00  0.00000E+00  9.000E+00
       1    -1     0     0   501     0  0.000000000E+00  0.000000000E+00 -1.994839915E+02  1.994839915E+02  0.000000000E+00  0.00000E+00  9.000E+00
      25     1     1     2     0     0  8.617099129E+01  2.269824736E+02  6.239343986E+02  6.810768069E+02  1.250000000E+02  0.00000E+00  9.000E+00
      25     1     1     2     0     0  1.306900306E+01 -1.228962928E+02  5.884207987E+01  1.853690589E+02  1.250000000E+02  0.00000E+00  9.000E+00
       1     1     1     2   502     0 -9.923999435E+01 -1.040861808E+02 -5.961714642E+01  1.556814493E+02  4.046097457E-06  0.00000E+00  9.000E+00
#rwgt            1           1   2.8091625141053480E-002           6      130937           0
</event>
<event>
      5   9999  3.19816E-02  6.40854E+01 -1.00000E+00  1.33192E-01
       1    -1     0     0   502     0  0.000000000E+00  0.000000000E+00  9.835681770E+02  9.835681770E+02  0.000000000E+00  0.00000E+00  9.000E+00
      21    -1     0     0   501   502  0.000000000E+00  0.000000000E+00 -5.203019988E+01  5.203019988E+01  0.000000000E+00  0.00000E+00  9.000E+00
      25     1     1     2     0     0  4.642086519E+01 -5.973110138E+01  1.269662499E+02  1.935668614E+02  1.250000000E+02  0.00000E+00  9.000E+00
      25     1     1     2     0     0 -9.610276361E+01  1.925083108E+01  3.685214183E+02  4.012971111E+02  1.250000000E+02  0.00000E+00  9.000E+00
       1     1     1     2   501     0  4.968189842E+01  4.048027031E+01  4.360503089E+02  4.407344044E+02  0.000000000E+00  0.00000E+00  9.000E+00
#rwgt            1           1   2.2630861198619557E-002           6      131004           0
</event>
<event>
      5   9999  3.19816E-02  8.92693E+02 -1.00000E+00  9.21904E-02
       1    -1     0     0   502     0  0.000000000E+00  0.000000000E+00  1.167049210E+03  1.167049210E+03  0.000000000E+00  0.00000E+00  9.000E+00
      21    -1     0     0   501   502  0.000000000E+00  0.000000000E+00 -3.062491066E+03  3.062491066E+03  0.000000000E+00  0.00000E+00  9.000E+00
      25     1     1     2     0     0 -3.009004002E+02 -1.082291399E+03 -1.144953291E+03  1.608862567E+03  1.250000000E+02  0.00000E+00  9.000E+00
      25     1     1     2     0     0  1.097848451E+03  6.800791941E+02 -1.060457101E+03  1.675700807E+03  1.250000000E+02  0.00000E+00  9.000E+00
       1     1     1     2   501     0 -7.969480504E+02  4.022122045E+02  3.099685360E+02  9.449769023E+02  1.705984480E-05  0.00000E+00  9.000E+00
#rwgt            1           1   3.2466855871721781E-002           6      131110           0
</event>
<event>
      5   9999  3.19816E-02  5.45877E+01 -1.00000E+00  1.36935E-01
      21    -1     0     0   511   501  0.000000000E+00  0.000000000E+00  8.710511097E+02  8.710511097E+02  0.000000000E+00  0.00000E+00  9.000E+00
      21    -1     0     0   501   502  0.000000000E+00  0.000000000E+00 -4.026412334E+02  4.026412334E+02  0.000000000E+00  0.00000E+00  9.000E+00
      25     1     1     2     0     0 -3.349488993E+02  4.207122538E+02  2.155605781E+02  5.926895717E+02  1.250000000E+02  0.00000E+00  9.000E+00
      25     1     1     2     0     0  2.877646500E+02 -4.481614936E+02  1.544089491E+02  5.684402710E+02  1.250000000E+02  0.00000E+00  9.000E+00
      21     1     1     2   511   502  4.718424934E+01  2.744923984E+01  9.844034908E+01  1.125625003E+02  0.000000000E+00  0.00000E+00  9.000E+00
#rwgt            1           1   3.0835119343460796E-002           6      131137           0
</event>
<event>
      5   9999  3.19816E-02  2.09246E+01 -1.00000E+00  1.64766E-01
      21    -1     0     0   502   501  0.000000000E+00  0.000000000E+00  2.164595954E+03  2.164595954E+03  0.000000000E+00  0.00000E+00  9.000E+00
      21    -1     0     0   512   502  0.000000000E+00  0.000000000E+00 -2.505234482E+02  2.505234482E+02  0.000000000E+00  0.00000E+00  9.000E+00
      25     1     1     2     0     0  4.102052942E+02 -3.587720273E+01  2.371561858E+01  4.309791035E+02  1.250000000E+02  0.00000E+00  9.000E+00
      25     1     1     2     0     0 -4.273552663E+02  4.786540841E+01  1.906070946E+03  1.957972183E+03  1.250000000E+02  0.00000E+00  9.000E+00
      21     1     1     2   512   501  1.714997209E+01 -1.198820568E+01 -1.571405860E+01  2.616811525E+01  8.429369702E-07  0.00000E+00  9.000E+00
#rwgt            1           1   2.6925691591769173E-002           6      131240           0
</event>
<event>
      5   9999  3.19816E-02  7.90893E+01 -1.00000E+00  1.28591E-01
       2    -1     0     0   502     0  0.000000000E+00  0.000000000E+00  1.872069830E+03  1.872069830E+03  0.000000000E+00  0.00000E+00  9.000E+00
      21    -1     0     0   501   502  0.000000000E+00  0.000000000E+00 -4.666682346E+02  4.666682346E+02  0.000000000E+00  0.00000E+00  9.000E+00
      25     1     1     2     0     0  5.819731111E+02 -3.743664447E+01 -1.210356241E+02  6.085793512E+02  1.250000000E+02  0.00000E+00  9.000E+00
      25     1     1     2     0     0 -6.230374434E+02  1.050298654E+02  9.465129222E+02  1.144866211E+03  1.250000000E+02  0.00000E+00  9.000E+00
       2     1     1     2   501     0  4.106433227E+01 -6.759322095E+01  5.799242972E+02  5.852925024E+02  7.629394531E-06  0.00000E+00  9.000E+00
#rwgt            1           1   3.3620039696487504E-002           6      131500           0
</event>
<event>
      5   9999  3.19816E-02  2.97343E+01 -1.00000E+00  1.53309E-01
      21    -1     0     0   502   501  0.000000000E+00  0.000000000E+00  1.157009002E+03  1.157009002E+03  0.000000000E+00  0.00000E+00  9.000E+00
       2    -1     0     0   501     0  0.000000000E+00  0.000000000E+00 -1.593204336E+03  1.593204336E+03  0.000000000E+00  0.00000E+00  9.000E+00
      25     1     1     2     0     0 -1.202590800E+02  4.208282069E+02 -2.236027866E+02  5.071309813E+02  1.250000000E+02  0.00000E+00  9.000E+00
      25     1     1     2     0     0  1.497434707E+02 -4.169812885E+02  9.628624069E+02  1.067251384E+03  1.250000000E+02  0.00000E+00  9.000E+00
       2     1     1     2   502     0 -2.948439075E+01 -3.846918383E+00 -1.175454954E+03  1.175830973E+03  0.000000000E+00  0.00000E+00  9.000E+00
#rwgt            1           1   2.2319998526977972E-002           6      131593           0
</event>
<event>
      5   9999  3.19816E-02  3.32070E+01 -1.00000E+00  1.50038E-01
      21    -1     0     0   502   501  0.000000000E+00  0.000000000E+00  1.304207296E+02  1.304207296E+02  0.000000000E+00  0.00000E+00  9.000E+00
      21    -1     0     0   511   502  0.000000000E+00  0.000000000E+00 -1.699892198E+03  1.699892198E+03  0.000000000E+00  0.00000E+00  9.000E+00
      25     1     1     2     0     0 -1.376586924E+01 -9.818312869E+01  7.316244656E+01  1.755197126E+02  1.250000000E+02  0.00000E+00  9.000E+00
      25     1     1     2     0     0 -1.744907491E+01  8.685471964E+01 -1.037773561E+03  1.049022010E+03  1.250000000E+02  0.00000E+00  9.000E+00
      21     1     1     2   511   501  3.121494415E+01  1.132840905E+01 -6.048603533E+02  6.057712049E+02  0.000000000E+00  0.00000E+00  9.000E+00
#rwgt            1           1   2.9975305904631405E-002           6      131903           0
</event>
<event>
      5   9999  3.19816E-02  1.30889E+02 -1.00000E+00  1.18789E-01
      21    -1     0     0   512   501  0.000000000E+00  0.000000000E+00  3.243995130E+02  3.243995130E+02  0.000000000E+00  0.00000E+00  9.000E+00
      21    -1     0     0   501   502  0.000000000E+00  0.000000000E+00 -2.260278590E+03  2.260278590E+03  0.000000000E+00  0.00000E+00  9.000E+00
      25     1     1     2     0     0  3.272410847E+02  3.331358438E+02 -1.458265783E+03  1.536304108E+03  1.250000000E+02  0.00000E+00  9.000E+00
      25     1     1     2     0     0 -2.830765950E+02 -4.563484932E+02 -6.367689836E+02  8.423099455E+02  1.250000000E+02  0.00000E+00  9.000E+00
      21     1     1     2   512   502 -4.416448972E+01  1.232126494E+02  1.591556894E+02  2.060640498E+02  1.907348633E-06  0.00000E+00  9.000E+00
#rwgt            1           1   3.0301208717936182E-002           6      132071           0
</event>
<event>
      5   9999  3.19816E-02  9.16053E+00 -1.00000E+00  2.00265E-01
      21    -1     0     0   502   501  0.000000000E+00  0.000000000E+00  1.145812106E+03  1.145812106E+03  0.000000000E+00  0.00000E+00  9.000E+00
      21    -1     0     0   511   502  0.000000000E+00  0.000000000E+00 -3.925082746E+02  3.925082746E+02  0.000000000E+00  0.00000E+00  9.000E+00
      25     1     1     2     0     0  3.722967711E+02 -2.139051315E+02  9.440641260E+02  1.044625466E+03  1.250000000E+02  0.00000E+00  9.000E+00
      25     1     1     2     0     0 -3.758308212E+02  2.054537509E+02 -1.867325897E+02  4.836880296E+02  1.250000000E+02  0.00000E+00  9.000E+00
      21     1     1     2   511   501  3.534050130E+00  8.451380589E+00 -4.027704478E+00  1.000688501E+01  1.685873940E-07  0.00000E+00  9.000E+00
#rwgt            1           1   2.8642796789507766E-002           6      132150           0
</event>
<event>
      5   9999  3.19816E-02  1.04368E+02 -1.00000E+00  1.22999E-01
      21    -1     0     0   502   501  0.000000000E+00  0.000000000E+00  8.401325190E+02  8.401325190E+02  0.000000000E+00  0.00000E+00  9.000E+00
      21    -1     0     0   501   512  0.000000000E+00  0.000000000E+00 -2.796250286E+02  2.796250286E+02  0.000000000E+00  0.00000E+00  9.000E+00
      25     1     1     2     0     0  9.511559570E+00  1.692253223E+02 -1.707007445E+02  2.710930166E+02  1.250000000E+02  0.00000E+00  9.000E+00
      25     1     1     2     0     0 -1.106901204E+02 -1.436222946E+02  7.083836124E+02  7.418301751E+02  1.250000000E+02  0.00000E+00  9.000E+00
      21     1     1     2   502   512  1.011785609E+02 -2.560302777E+01  2.282462240E+01  1.068343559E+02  1.966049969E-06  0.00000E+00  9.000E+00
#rwgt            1           1   2.8470778524852618E-002           6      132450           0
</event>
<event>
      5   9999  3.19816E-02  1.27250E+01 -1.00000E+00  1.84388E-01
       2    -1     0     0   502     0  0.000000000E+00  0.000000000E+00  6.796511553E+02  6.796511553E+02  0.000000000E+00  0.00000E+00  9.000E+00
      21    -1     0     0   501   502  0.000000000E+00  0.000000000E+00 -5.920757606E+01  5.920757606E+01  0.000000000E+00  0.00000E+00  9.000E+00
      25     1     1     2     0     0  7.045230883E+01  1.377693550E+02  2.994058264E+02  3.594617808E+02  1.250000000E+02  0.00000E+00  9.000E+00
      25     1     1     2     0     0 -6.727908389E+01 -1.254463093E+02  2.997616047E+02  3.546057971E+02  1.250000000E+02  0.00000E+00  9.000E+00
       2     1     1     2   501     0 -3.173224938E+00 -1.232304574E+01  2.127614810E+01  2.479115348E+01  0.000000000E+00  0.00000E+00  9.000E+00
#rwgt            1           1   2.6732236120192147E-002           6      132514           0
</event>
<event>
      5   9999  3.19816E-02  5.99160E+01 -1.00000E+00  1.34736E-01
      21    -1     0     0   502   501  0.000000000E+00  0.000000000E+00  1.072800347E+02  1.072800347E+02  0.000000000E+00  0.00000E+00  9.000E+00
      21    -1     0     0   501   511  0.000000000E+00  0.000000000E+00 -2.861804223E+03  2.861804223E+03  0.000000000E+00  0.00000E+00  9.000E+00
      25     1     1     2     0     0  5.705150226E+01  2.024019854E+02 -2.483374324E+03  2.495394652E+03  1.250000000E+02  0.00000E+00  9.000E+00
      25     1     1     2     0     0  2.208215510E+00 -2.112457946E+02 -5.793001248E+01  2.522113168E+02  1.250000000E+02  0.00000E+00  9.000E+00
      21     1     1     2   502   511 -5.925971777E+01  8.843809188E+00 -2.132198515E+02  2.214782883E+02  0.000000000E+00  0.00000E+00  9.000E+00
#rwgt            1           1   8.1489484465121040E-002           6      132738           0
</event>
<event>
      5   9999  3.19816E-02  1.10710E+02 -1.00000E+00  1.21873E-01
      21    -1     0     0   502   501  0.000000000E+00  0.000000000E+00  2.220275392E+02  2.220275392E+02  0.000000000E+00  0.00000E+00  9.000E+00
      21    -1     0     0   512   502  0.000000000E+00  0.000000000E+00 -5.729158036E+02  5.729158036E+02  0.000000000E+00  0.00000E+00  9.000E+00
      25     1     1     2     0     0  1.207454306E+02  2.185256889E+02 -2.100854245E+02  3.494192629E+02  1.250000000E+02  0.00000E+00  9.000E+00
      25     1     1     2     0     0 -1.832055698E+01 -2.605487259E+02 -3.375337091E+01  2.915228489E+02  1.250000000E+02  0.00000E+00  9.000E+00
      21     1     1     2   512   501 -1.024248736E+02  4.202303700E+01 -1.070494690E+02  1.540012311E+02  1.907348633E-06  0.00000E+00  9.000E+00
#rwgt            1           1   3.5037963734671759E-002           6      132897           0
</event>
<event>
      5   9999  3.19816E-02  8.40933E+01 -1.00000E+00  1.27309E-01
       2    -1     0     0   502     0  0.000000000E+00  0.000000000E+00  1.203358593E+03  1.203358593E+03  0.000000000E+00  0.00000E+00  9.000E+00
      21    -1     0     0   501   502  0.000000000E+00  0.000000000E+00 -3.018746287E+02  3.018746287E+02  0.000000000E+00  0.00000E+00  9.000E+00
      25     1     1     2     0     0 -1.124065667E+02 -2.949319324E+01  7.090149540E+01  1.848164136E+02  1.250000000E+02  0.00000E+00  9.000E+00
      25     1     1     2     0     0  3.751532196E+01  6.774221700E+01 -2.210162541E+02  2.654610931E+02  1.250000000E+02  0.00000E+00  9.000E+00
       2     1     1     2   501     0  7.489124472E+01 -3.824902375E+01  1.051598723E+03  1.054955715E+03  1.525878906E-05  0.00000E+00  9.000E+00
#rwgt            1           1   3.1355779594429131E-002           6      132966           0
</event>
<event>
      5   9999  3.19816E-02  3.57682E+01 -1.00000E+00  1.47918E-01
      21    -1     0     0   502   501  0.000000000E+00  0.000000000E+00  2.053943096E+02  2.053943096E+02  0.000000000E+00  0.00000E+00  9.000E+00
       2    -1     0     0   501     0  0.000000000E+00  0.000000000E+00 -5.719376492E+02  5.719376492E+02  0.000000000E+00  0.00000E+00  9.000E+00
      25     1     1     2     0     0 -1.541871385E+02 -1.772937291E+02 -2.222463087E+02  3.467350022E+02  1.250000000E+02  0.00000E+00  9.000E+00
      25     1     1     2     0     0  1.894874566E+02  1.830602758E+02 -1.018454373E+01  2.917966513E+02  1.250000000E+02  0.00000E+00  9.000E+00
       2     1     1     2   502     0 -3.530031816E+01 -5.766546723E+00 -1.341124871E+02  1.388003052E+02  1.907348633E-06  0.00000E+00  9.000E+00
#rwgt            1           1   2.9021925388624151E-002           6      133015           0
</event>
<event>
      5   9999  3.19816E-02  4.41066E+02 -1.00000E+00  1.00424E-01
      21    -1     0     0   511   501  0.000000000E+00  0.000000000E+00  1.435571241E+03  1.435571241E+03  0.000000000E+00  0.00000E+00  9.000E+00
      21    -1     0     0   501   502  0.000000000E+00  0.000000000E+00 -1.055549607E+03  1.055549607E+03  0.000000000E+00  0.00000E+00  9.000E+00
      25     1     1     2     0     0 -1.117977106E+03  1.899057441E+02  4.026234906E+01  1.141570434E+03  1.250000000E+02  0.00000E+00  9.000E+00
      25     1     1     2     0     0  7.372203260E+02 -4.125350058E+02  1.401412131E+02  8.654152181E+02  1.250000000E+02  0.00000E+00  9.000E+00
      21     1     1     2   511   502  3.807567796E+02  2.226292617E+02  1.996180719E+02  4.841351960E+02  3.814697266E-06  0.00000E+00  9.000E+00
#rwgt            1           1   3.6526468747197123E-002           6      133128           0
</event>
<event>
      5   9999  3.19816E-02  6.40707E+02 -1.00000E+00  9.58860E-02
      21    -1     0     0   502   501  0.000000000E+00  0.000000000E+00  2.005462778E+03  2.005462778E+03  0.000000000E+00  0.00000E+00  9.000E+00
       2    -1     0     0   501     0  0.000000000E+00  0.000000000E+00 -2.402856493E+03  2.402856493E+03  0.000000000E+00  0.00000E+00  9.000E+00
      25     1     1     2     0     0  9.900731257E+01 -5.792019951E+02  1.084643511E+03  1.239900780E+03  1.250000000E+02  0.00000E+00  9.000E+00
      25     1     1     2     0     0 -2.023363224E+02 -5.311808143E+01  7.801103770E+02  8.172874147E+02  1.250000000E+02  0.00000E+00  9.000E+00
       2     1     1     2   502     0  1.033290099E+02  6.323200765E+02 -2.262147602E+03  2.351131076E+03  3.051757812E-05  0.00000E+00  9.000E+00
#rwgt            2          13   2.1366739727596604E-002           6      133172           0
</event>
<event>
      5   9999  3.19816E-02  6.42641E+01 -1.00000E+00  1.33129E-01
      21    -1     0     0   502   501  0.000000000E+00  0.000000000E+00  3.912243987E+02  3.912243987E+02  0.000000000E+00  0.00000E+00  9.000E+00
      21    -1     0     0   501   511  0.000000000E+00  0.000000000E+00 -1.753201039E+03  1.753201039E+03  0.000000000E+00  0.00000E+00  9.000E+00
      25     1     1     2     0     0  4.262644710E+02 -1.441163154E+02 -1.343852608E+03  1.422686101E+03  1.250000000E+02  0.00000E+00  9.000E+00
      25     1     1     2     0     0 -4.592660245E+02  1.992595600E+02  1.536077347E+02  5.383771816E+02  1.250000000E+02  0.00000E+00  9.000E+00
      21     1     1     2   502   511  3.300155349E+01 -5.514324459E+01 -1.717317676E+02  1.833621552E+02  0.000000000E+00  0.00000E+00  9.000E+00
#rwgt            1           1   3.2139253027969480E-002           6      133206           0
</event>
<event>
      5   9999  3.19816E-02  9.44634E+01 -1.00000E+00  1.24951E-01
      21    -1     0     0   502   501  0.000000000E+00  0.000000000E+00  8.218680504E+01  8.218680504E+01  0.000000000E+00  0.00000E+00  9.000E+00
      21    -1     0     0   512   502  0.000000000E+00  0.000000000E+00 -2.748430381E+03  2.748430381E+03  0.000000000E+00  0.00000E+00  9.000E+00
      25     1     1     2     0     0 -1.933903362E+02  9.967551194E+01 -2.034801205E+03  2.050213641E+03  1.250000000E+02  0.00000E+00  9.000E+00
      25     1     1     2     0     0  1.422686061E+02 -2.024060374E+01 -5.780282469E+01  1.990381995E+02  1.250000000E+02  0.00000E+00  9.000E+00
      21     1     1     2   512   501  5.112173009E+01 -7.943490819E+01 -5.736395460E+02  5.813653453E+02  1.321449896E-05  0.00000E+00  9.000E+00
#rwgt            1           1   2.4328825748224502E-002           6      133281           0
</event>
<event>
      5   9999  3.19816E-02  2.46126E+01 -1.00000E+00  1.59261E-01
      21    -1     0     0   502   511  0.000000000E+00  0.000000000E+00  4.527108830E+02  4.527108830E+02  0.000000000E+00  0.00000E+00  9.000E+00
      21    -1     0     0   501   502  0.000000000E+00  0.000000000E+00 -5.063749255E+02  5.063749255E+02  0.000000000E+00  0.00000E+00  9.000E+00
      25     1     1     2     0     0 -2.818692453E+02 -1.262054381E+02 -2.952650485E+02  4.451792144E+02  1.250000000E+02  0.00000E+00  9.000E+00
      25     1     1     2     0     0  2.935040240E+02  1.045164857E+02  7.303240425E+01  3.435506366E+02  1.250000000E+02  0.00000E+00  9.000E+00
      21     1     1     2   501   511 -1.163477862E+01  2.168895239E+01  1.685686018E+02  1.703559574E+02  1.907348633E-06  0.00000E+00  9.000E+00
#rwgt            1           1   3.0094712852402707E-002           6      133339           0
</event>
<event>
      5   9999  3.19816E-02  2.81900E+02 -1.00000E+00  1.06478E-01
      21    -1     0     0   512   501  0.000000000E+00  0.000000000E+00  1.360241846E+03  1.360241846E+03  0.000000000E+00  0.00000E+00  9.000E+00
      21    -1     0     0   501   502  0.000000000E+00  0.000000000E+00 -3.517699743E+02  3.517699743E+02  0.000000000E+00  0.00000E+00  9.000E+00
      25     1     1     2     0     0 -7.105856367E+01 -2.461481211E+02 -1.743032419E+02  3.341329633E+02  1.250000000E+02  0.00000E+00  9.000E+00
      25     1     1     2     0     0 -1.890343535E+02  3.548642820E+02  6.366514466E+02  7.632907113E+02  1.250000000E+02  0.00000E+00  9.000E+00
      21     1     1     2   512   502  2.600929171E+02 -1.087161609E+02  5.461236670E+02  6.145881457E+02  0.000000000E+00  0.00000E+00  9.000E+00
#rwgt            2          11   2.3454112624893882E-003           6      133565           0
</event>
<event>
      5   9999  3.19816E-02  2.44543E+02 -1.00000E+00  1.08559E-01
      21    -1     0     0   502   511  0.000000000E+00  0.000000000E+00  8.111609399E+02  8.111609399E+02  0.000000000E+00  0.00000E+00  9.000E+00
      21    -1     0     0   501   502  0.000000000E+00  0.000000000E+00 -2.431854628E+03  2.431854628E+03  0.000000000E+00  0.00000E+00  9.000E+00
      25     1     1     2     0     0 -1.531713302E+02  5.412638369E+02  1.698902540E+02  6.007625953E+02  1.250000000E+02  0.00000E+00  9.000E+00
      25     1     1     2     0     0 -8.380549159E+01 -6.016224807E+02 -2.133087062E+03  2.221409098E+03  1.250000000E+02  0.00000E+00  9.000E+00
      21     1     1     2   501   511  2.369768217E+02  6.035864380E+01  3.425031194E+02  4.208438745E+02  9.344061824E-06  0.00000E+00  9.000E+00
#rwgt            1           1   3.2695307199557620E-002           6      133600           0
</event>
<event>
      5   9999  3.19816E-02  1.27880E+01 -1.00000E+00  1.84170E-01
      21    -1     0     0   502   512  0.000000000E+00  0.000000000E+00  2.079502079E+02  2.079502079E+02  0.000000000E+00  0.00000E+00  9.000E+00
      21    -1     0     0   501   502  0.000000000E+00  0.000000000E+00 -8.176118543E+02  8.176118543E+02  0.000000000E+00  0.00000E+00  9.000E+00
      25     1     1     2     0     0 -4.712865065E+01  3.187769131E+02 -1.618665874E+02  3.816616593E+02  1.250000000E+02  0.00000E+00  9.000E+00
      25     1     1     2     0     0  5.439968813E+01 -3.292966408E+02 -4.865340466E+02  6.031052828E+02  1.250000000E+02  0.00000E+00  9.000E+00
      21     1     1     2   501   512 -7.271037484E+00  1.051972770E+01  3.873898768E+01  4.079512009E+01  4.768371582E-07  0.00000E+00  9.000E+00
#rwgt            1           1   3.0738325673319428E-002           6      133652           0
</event>
<event>
      5   9999  3.19816E-02  9.81191E+01 -1.00000E+00  1.24200E-01
      21    -1     0     0   502   501  0.000000000E+00  0.000000000E+00  2.506499001E+03  2.506499001E+03  0.000000000E+00  0.00000E+00  9.000E+00
      21    -1     0     0   501   511  0.000000000E+00  0.000000000E+00 -8.632836682E+02  8.632836682E+02  0.000000000E+00  0.00000E+00  9.000E+00
      25     1     1     2     0     0 -2.493641818E+02  7.626174086E+02 -5.436817859E+02  9.772321584E+02  1.250000000E+02  0.00000E+00  9.000E+00
      25     1     1     2     0     0  1.512493774E+02 -7.617018140E+02  2.147146526E+03  2.286685206E+03  1.250000000E+02  0.00000E+00  9.000E+00
      21     1     1     2   502   511  9.811480444E+01 -9.155946459E-01  3.975059310E+01  1.058653051E+02  1.430511475E-06  0.00000E+00  9.000E+00
#rwgt            1           1   4.1433884201875965E-002           6      133824           0
</event>
<event>
      5   9999  3.19816E-02  6.35228E+01 -1.00000E+00  1.33393E-01
      21    -1     0     0   512   501  0.000000000E+00  0.000000000E+00  3.846386964E+02  3.846386964E+02  0.000000000E+00  0.00000E+00  9.000E+00
      21    -1     0     0   501   502  0.000000000E+00  0.000000000E+00 -1.065107807E+03  1.065107807E+03  0.000000000E+00  0.00000E+00  9.000E+00
      25     1     1     2     0     0 -4.843366578E+02 -1.282389953E+02 -7.982953420E+00  5.164455107E+02  1.250000000E+02  0.00000E+00  9.000E+00
      25     1     1     2     0     0  5.394643457E+02  1.597998187E+02 -6.422749000E+02  8.629599119E+02  1.250000000E+02  0.00000E+00  9.000E+00
      21     1     1     2   512   502 -5.512768790E+01 -3.156082338E+01 -3.021125684E+01  7.034108036E+01  8.920806376E-07  0.00000E+00  9.000E+00
#rwgt            1           1   2.8230398695013613E-002           6      133998           0
</event>
<event>
      5   9999  3.19816E-02  1.10218E+02 -1.00000E+00  1.21957E-01
      21    -1     0     0   502   501  0.000000000E+00  0.000000000E+00  5.643300829E+01  5.643300829E+01  0.000000000E+00  0.00000E+00  9.000E+00
       2    -1     0     0   501     0  0.000000000E+00  0.000000000E+00 -1.660694400E+03  1.660694400E+03  0.000000000E+00  0.00000E+00  9.000E+00
      25     1     1     2     0     0  1.538251743E+02  3.860067448E+01 -2.679619685E+02  3.355306437E+02  1.250000000E+02  0.00000E+00  9.000E+00
      25     1     1     2     0     0 -4.593270718E+01 -6.112363007E+01 -1.187058222E+03  1.196067780E+03  1.250000000E+02  0.00000E+00  9.000E+00
       2     1     1     2   502     0 -1.078924671E+02  2.252295559E+01 -1.492412009E+02  1.855289844E+02  3.303624740E-06  0.00000E+00  9.000E+00
#rwgt            1           1   3.5467228747170704E-002           6      134146           0
</event>
<event>
      5   9999  3.19816E-02  1.97616E+02 -1.00000E+00  1.11838E-01
       2    -1     0     0   502     0  0.000000000E+00  0.000000000E+00  1.509398106E+03  1.509398106E+03  0.000000000E+00  0.00000E+00  9.000E+00
      21    -1     0     0   501   502  0.000000000E+00  0.000000000E+00 -1.012753528E+03  1.012753528E+03  0.000000000E+00  0.00000E+00  9.000E+00
      25     1     1     2     0     0 -2.742149718E+02  1.033326835E+03 -2.634219210E+01  1.076697316E+03  1.250000000E+02  0.00000E+00  9.000E+00
      25     1     1     2     0     0  8.966567468E+01 -9.626608706E+02  6.837098444E+02  1.190730883E+03  1.250000000E+02  0.00000E+00  9.000E+00
       2     1     1     2   501     0  1.845492971E+02 -7.066596475E+01 -1.607230739E+02  2.547234346E+02  3.303624740E-06  0.00000E+00  9.000E+00
#rwgt            1           1   3.1172005513732438E-002           6      134186           0
</event>
<event>
      5   9999  3.19816E-02  1.85101E+01 -1.00000E+00  1.69192E-01
      21    -1     0     0   502   501  0.000000000E+00  0.000000000E+00  1.087536711E+02  1.087536711E+02  0.000000000E+00  0.00000E+00  9.000E+00
      21    -1     0     0   511   502  0.000000000E+00  0.000000000E+00 -1.627516211E+03  1.627516211E+03  0.000000000E+00  0.00000E+00  9.000E+00
      25     1     1     2     0     0 -1.109001749E+02  3.382235910E+02 -1.026393470E+03  1.093527595E+03  1.250000000E+02  0.00000E+00  9.000E+00
      25     1     1     2     0     0  1.082340034E+02 -3.565407008E+02 -4.564553950E+02  6.023391059E+02  1.250000000E+02  0.00000E+00  9.000E+00
      21     1     1     2   511   501  2.666171488E+00  1.831710984E+01 -3.591367538E+01  4.040318134E+01  0.000000000E+00  0.00000E+00  9.000E+00
#rwgt            1           1   2.9972200723913194E-002           6      134258           0
</event>
<event>
      5   9999  3.19816E-02  3.97747E+01 -1.00000E+00  1.44992E-01
      21    -1     0     0   502   512  0.000000000E+00  0.000000000E+00  8.235120187E+02  8.235120187E+02  0.000000000E+00  0.00000E+00  9.000E+00
      21    -1     0     0   501   502  0.000000000E+00  0.000000000E+00 -1.027149793E+02  1.027149793E+02  0.000000000E+00  0.00000E+00  9.000E+00
      25     1     1     2     0     0  1.702495512E+02 -3.847463179E+01  1.616771786E+02  2.687558689E+02  1.250000000E+02  0.00000E+00  9.000E+00
      25     1     1     2     0     0 -2.082653724E+02  5.017173128E+01  2.739764394E+02  3.695669862E+02  1.250000000E+02  0.00000E+00  9.000E+00
      21     1     1     2   501   512  3.801582116E+01 -1.169709949E+01  2.851434213E+02  2.879041429E+02  3.814697266E-06  0.00000E+00  9.000E+00
#rwgt            1           1   3.1863698517152726E-002           6      134452           0
</event>
<event>
      5   9999  3.19816E-02  2.39032E+01 -1.00000E+00  1.60224E-01
      21    -1     0     0   511   501  0.000000000E+00  0.000000000E+00  6.342167425E+02  6.342167425E+02  0.000000000E+00  0.00000E+00  9.000E+00
      21    -1     0     0   501   502  0.000000000E+00  0.000000000E+00 -7.208928275E+02  7.208928275E+02  0.000000000E+00  0.00000E+00  9.000E+00
      25     1     1     2     0     0  1.236945992E+02 -1.905909638E+02  2.683676371E+02  3.731909136E+02  1.250000000E+02  0.00000E+00  9.000E+00
      25     1     1     2     0     0 -1.078937695E+02  2.085268146E+02 -6.415046536E+02  6.944621793E+02  1.250000000E+02  0.00000E+00  9.000E+00
      21     1     1     2   511   502 -1.580082964E+01 -1.793585073E+01  2.864609315E+02  2.874564771E+02  5.394796609E-06  0.00000E+00  9.000E+00
#rwgt            1           1   2.8166951563998389E-002           6      134559           0
</event>
<event>
      5   9999  3.19816E-02  6.58336E+01 -1.00000E+00  1.32585E-01
      21    -1     0     0   502   501  0.000000000E+00  0.000000000E+00  6.071539266E+02  6.071539266E+02  0.000000000E+00  0.00000E+00  9.000E+00
      21    -1     0     0   501   512  0.000000000E+00  0.000000000E+00 -3.848721415E+02  3.848721415E+02  0.000000000E+00  0.00000E+00  9.000E+00
      25     1     1     2     0     0  2.619554931E+02 -5.608408585E+01  9.472237818E+01  3.104246028E+02  1.250000000E+02  0.00000E+00  9.000E+00
      25     1     1     2     0     0 -2.142187881E+02  1.014191637E+02  3.550277300E+02  4.447979598E+02  1.250000000E+02  0.00000E+00  9.000E+00
      21     1     1     2   502   512 -4.773670499E+01 -4.533507782E+01 -2.274683230E+02  2.368035056E+02  2.697398305E-06  0.00000E+00  9.000E+00
#rwgt            1           1   2.7821545703813257E-002           6      134714           0
</event>
<event>
      5   9999  3.19816E-02  3.41070E+02 -1.00000E+00  1.03813E-01
      21    -1     0     0   511   501  0.000000000E+00  0.000000000E+00  4.698544053E+02  4.698544053E+02  0.000000000E+00  0.00000E+00  9.000E+00
      21    -1     0     0   501   502  0.000000000E+00  0.000000000E+00 -2.531906588E+03  2.531906588E+03  0.000000000E+00  0.00000E+00  9.000E+00
      25     1     1     2     0     0  1.792012165E+02 -9.035281485E+02 -8.234330237E+02  1.241830558E+03  1.250000000E+02  0.00000E+00  9.000E+00
      25     1     1     2     0     0 -3.989990073E+02  6.427264740E+02 -1.189682073E+03  1.415367783E+03  1.250000000E+02  0.00000E+00  9.000E+00
      21     1     1     2   511   502  2.197977909E+02  2.608016745E+02 -4.893708616E+01  3.445626513E+02  6.743495762E-06  0.00000E+00  9.000E+00
#rwgt            1           1   3.0102230743056888E-002           6      134776           0
</event>
<event>
      5   9999  3.19816E-02  4.18798E+01 -1.00000E+00  1.43614E-01
      21    -1     0     0   502   512  0.000000000E+00  0.000000000E+00  1.416783277E+03  1.416783277E+03  0.000000000E+00  0.00000E+00  9.000E+00
      21    -1     0     0   501   502  0.000000000E+00  0.000000000E+00 -5.267947833E+01  5.267947833E+01  0.000000000E+00  0.00000E+00  9.000E+00
      25     1     1     2     0     0 -1.053526014E+02  9.383780545E+01  9.957425776E+02  1.013426359E+03  1.250000000E+02  0.00000E+00  9.000E+00
      25     1     1     2     0     0  8.071630899E+01 -1.277047742E+02  1.907643219E+02  2.735683798E+02  1.250000000E+02  0.00000E+00  9.000E+00
      21     1     1     2   501   512  2.463629238E+01  3.386696874E+01  1.775968994E+02  1.824680168E+02  2.697398305E-06  0.00000E+00  9.000E+00
#rwgt            1           1   3.0013761907804481E-002           6      134839           0
</event>
<event>
      5   9999  3.19816E-02  1.67048E+02 -1.00000E+00  1.14570E-01
      21    -1     0     0   502   511  0.000000000E+00  0.000000000E+00  1.057739397E+03  1.057739397E+03  0.000000000E+00  0.00000E+00  9.000E+00
      21    -1     0     0   501   502  0.000000000E+00  0.000000000E+00 -5.854597497E+02  5.854597497E+02  0.000000000E+00  0.00000E+00  9.000E+00
      25     1     1     2     0     0  1.036361777E+02 -5.335070746E+02 -3.383750449E+02  6.522981887E+02  1.250000000E+02  0.00000E+00  9.000E+00
      25     1     1     2     0     0 -3.737044813E+01  3.801644455E+02  5.472281699E+02  6.789736563E+02  1.250000000E+02  0.00000E+00  9.000E+00
      21     1     1     2   501   511 -6.626572957E+01  1.533426291E+02  2.634265223E+02  3.119273016E+02  0.000000000E+00  0.00000E+00  9.000E+00
#rwgt            2          11   3.9897701670622617E-003           6      134989           0
</event>
<event>
      5   9999  3.19816E-02  1.96500E+02 -1.00000E+00  1.11928E-01
      21    -1     0     0   502   501  0.000000000E+00  0.000000000E+00  3.473105486E+02  3.473105486E+02  0.000000000E+00  0.00000E+00  9.000E+00
      21    -1     0     0   512   502  0.000000000E+00  0.000000000E+00 -5.885341158E+02  5.885341158E+02  0.000000000E+00  0.00000E+00  9.000E+00
      25     1     1     2     0     0  2.976733126E+02 -1.802290971E+02  3.609208787E+01  3.715098482E+02  1.250000000E+02  0.00000E+00  9.000E+00
      25     1     1     2     0     0 -1.097498902E+02  2.376477090E+02 -2.038814285E+02  3.545618548E+02  1.250000000E+02  0.00000E+00  9.000E+00
      21     1     1     2   512   501 -1.879234224E+02 -5.741861193E+01 -7.343422663E+01  2.097729614E+02  0.000000000E+00  0.00000E+00  9.000E+00
#rwgt            1           1   2.8000424824365010E-002           6      135024           0
</event>
<event>
      5   9999  3.19816E-02  2.63851E+02 -1.00000E+00  1.07436E-01
      21    -1     0     0   502   511  0.000000000E+00  0.000000000E+00  1.232393902E+02  1.232393902E+02  0.000000000E+00  0.00000E+00  9.000E+00
      21    -1     0     0   501   502  0.000000000E+00  0.000000000E+00 -1.261720231E+03  1.261720231E+03  0.000000000E+00  0.00000E+00  9.000E+00
      25     1     1     2     0     0  4.204869915E+01 -7.443649426E+01 -3.379894028E+02  3.703656588E+02  1.250000000E+02  0.00000E+00  9.000E+00
      25     1     1     2     0     0 -3.046728779E+02  9.984899346E+01 -5.616956777E+02  6.587278788E+02  1.250000000E+02  0.00000E+00  9.000E+00
      21     1     1     2   501   511  2.626241787E+02 -2.541249920E+01 -2.387957604E+02  3.558660838E+02  9.344061824E-06  0.00000E+00  9.000E+00
#rwgt            1           1   2.5758679057933418E-002           6      135101           0
</event>
<event>
      5   9999  3.19816E-02  5.47554E+01 -1.00000E+00  1.36861E-01
      21    -1     0     0   502   501  0.000000000E+00  0.000000000E+00  1.662841526E+03  1.662841526E+03  0.000000000E+00  0.00000E+00  9.000E+00
       2    -1     0     0   501     0  0.000000000E+00  0.000000000E+00 -1.929824132E+02  1.929824132E+02  0.000000000E+00  0.00000E+00  9.000E+00
      25     1     1     2     0     0 -2.433359696E+02 -2.616788066E+02  1.285500569E+03  1.340083917E+03  1.250000000E+02  0.00000E+00  9.000E+00
      25     1     1     2     0     0  2.929848827E+02  2.385889767E+02  2.156716673E+02  4.526633510E+02  1.250000000E+02  0.00000E+00  9.000E+00
       2     1     1     2   502     0 -4.964891307E+01  2.308982994E+01 -3.131312311E+01  6.307667155E+01  1.617033478E-06  0.00000E+00  9.000E+00
#rwgt            1           1   2.9115495005756605E-002           6      135139           0
</event>
<event>
      5   9999  3.19816E-02  9.98263E+00 -1.00000E+00  1.95844E-01
      21    -1     0     0   511   501  0.000000000E+00  0.000000000E+00  1.772873649E+02  1.772873649E+02  0.000000000E+00  0.00000E+00  9.000E+00
      21    -1     0     0   501   502  0.000000000E+00  0.000000000E+00 -2.791101474E+02  2.791101474E+02  0.000000000E+00  0.00000E+00  9.000E+00
      25     1     1     2     0     0 -7.287738856E+01  1.137683556E+02  5.951075426E+01  1.934447786E+02  1.250000000E+02  0.00000E+00  9.000E+00
      25     1     1     2     0     0  7.275601312E+01 -1.237502464E+02 -1.654034934E+02  2.521723152E+02  1.250000000E+02  0.00000E+00  9.000E+00
      21     1     1     2   511   502  1.213754365E-01  9.981890809E+00  4.069956670E+00  1.078041852E+01  1.788139343E-07  0.00000E+00  9.000E+00
#rwgt            1           1   2.8374194367358885E-002           6      135250           0
</event>
<event>
      5   9999  3.19816E-02  6.83428E+01 -1.00000E+00  1.31750E-01
      21    -1     0     0   502   501  0.000000000E+00  0.000000000E+00  5.269636039E+02  5.269636039E+02  0.000000000E+00  0.00000E+00  9.000E+00
      21    -1     0     0   501   512  0.000000000E+00  0.000000000E+00 -7.009830440E+02  7.009830440E+02  0.000000000E+00  0.00000E+00  9.000E+00
      25     1     1     2     0     0 -2.673860112E+01  7.163500697E+01 -2.020841829E+01  1.479185830E+02  1.250000000E+02  0.00000E+00  9.000E+00
      25     1     1     2     0     0 -4.074555436E+01 -6.083587098E+01  4.498038405E+02  4.725565557E+02  1.250000000E+02  0.00000E+00  9.000E+00
      21     1     1     2   502   512  6.748415548E+01 -1.079913599E+01 -6.036148623E+02  6.074715092E+02  7.629394531E-06  0.00000E+00  9.000E+00
#rwgt            1           1   3.0298056484998087E-002           6      135474           0
</event>
<event>
      5   9999  3.19816E-02  3.65099E+00 -1.00000E+00  2.73177E-01
       2    -1     0     0   502     0  0.000000000E+00  0.000000000E+00  8.881795285E+01  8.881795285E+01  0.000000000E+00  0.00000E+00  9.000E+00
      21    -1     0     0   501   502  0.000000000E+00  0.000000000E+00 -2.943404720E+03  2.943404720E+03  0.000000000E+00  0.00000E+00  9.000E+00
      25     1     1     2     0     0 -1.338823962E+02  4.093520453E+01 -2.371593543E+03  2.379008432E+03  1.250000000E+02  0.00000E+00  9.000E+00
      25     1     1     2     0     0  1.354904972E+02 -3.765744401E+01 -5.524760161E+02  5.836355937E+02  1.250000000E+02  0.00000E+00  9.000E+00
       2     1     1     2   501     0 -1.608101004E+00 -3.277760528E+00  6.948279208E+01  6.957864685E+01  2.132480600E-06  0.00000E+00  9.000E+00
#rwgt            1           1   1.9723769201088977E-002           6      135520           0
</event>
<event>
      5   9999  3.19816E-02  2.64795E+02 -1.00000E+00  1.07384E-01
       2    -1     0     0   502     0  0.000000000E+00  0.000000000E+00  5.523703048E+02  5.523703048E+02  0.000000000E+00  0.00000E+00  9.000E+00
      21    -1     0     0   501   502  0.000000000E+00  0.000000000E+00 -5.383105668E+02  5.383105668E+02  0.000000000E+00  0.00000E+00  9.000E+00
      25     1     1     2     0     0 -8.196069021E+01 -5.055795631E+00 -3.541412658E+02  3.844270437E+02  1.250000000E+02  0.00000E+00  9.000E+00
      25     1     1     2     0     0  7.751773154E+01  2.698133422E+02  8.563809435E+01  3.190095947E+02  1.250000000E+02  0.00000E+00  9.000E+00
       2     1     1     2   501     0  4.442958675E+00 -2.647575465E+02  2.825629094E+02  3.872442331E+02  3.814697266E-06  0.00000E+00  9.000E+00
#rwgt            1           1   2.6548817824140491E-002           6      135928           0
</event>
<event>
      5   9999  3.19816E-02  2.39547E+02 -1.00000E+00  1.08868E-01
      21    -1     0     0   502   501  0.000000000E+00  0.000000000E+00  4.377911879E+02  4.377911879E+02  0.000000000E+00  0.00000E+00  9.000E+00
      21    -1     0     0   501   511  0.000000000E+00  0.000000000E+00 -1.191160710E+03  1.191160710E+03  0.000000000E+00  0.00000E+00  9.000E+00
      25     1     1     2     0     0  1.846785840E+02  1.549612525E+02  2.539931603E+02  3.718288513E+02  1.250000000E+02  0.00000E+00  9.000E+00
      25     1     1     2     0     0 -3.501334334E+02 -3.281880885E+02 -7.950355675E+02  9.370204887E+02  1.250000000E+02  0.00000E+00  9.000E+00
      21     1     1     2   502   511  1.654548494E+02  1.732268360E+02 -2.123271151E+02  3.201025581E+02  6.031565972E-06  0.00000E+00  9.000E+00
#rwgt            1           1   2.7567240921263132E-002           6      136023           0
</event>
<event>
      5   9999  3.19816E-02  1.28016E+01 -1.00000E+00  1.84123E-01
      21    -1     0     0   502   501  0.000000000E+00  0.000000000E+00  3.759511230E+02  3.759511230E+02  0.000000000E+00  0.00000E+00  9.000E+00
      21    -1     0     0   512   502  0.000000000E+00  0.000000000E+00 -1.410988752E+03  1.410988752E+03  0.000000000E+00  0.00000E+00  9.000E+00
      25     1     1     2     0     0  6.182964483E+02  2.161642421E+01 -7.946327871E+01  6.361581411E+02  1.250000000E+02  0.00000E+00  9.000E+00
      25     1     1     2     0     0 -6.104320508E+02 -1.151533659E+01 -9.064487990E+02  1.100015598E+03  1.250000000E+02  0.00000E+00  9.000E+00
      21     1     1     2   512   501 -7.864397583E+00 -1.010108762E+01 -4.912555128E+01  5.076613545E+01  6.743495762E-07  0.00000E+00  9.000E+00
#rwgt            1           1   2.4861478686470165E-002           6      136085           0
</event>
<event>
      5   9999  3.19816E-02  1.13339E+02 -1.00000E+00  1.21431E-01
      21    -1     0     0   502   501  0.000000000E+00  0.000000000E+00  7.205313218E+02  7.205313218E+02  0.000000000E+00  0.00000E+00  9.000E+00
       2    -1     0     0   501     0  0.000000000E+00  0.000000000E+00 -1.173195043E+03  1.173195043E+03  0.000000000E+00  0.00000E+00  9.000E+00
      25     1     1     2     0     0  3.757276510E+02  3.277833894E+02  4.613789068E+01  5.161074724E+02  1.250000000E+02  0.00000E+00  9.000E+00
      25     1     1     2     0     0 -4.885902209E+02 -3.174052732E+02  2.309748269E+02  6.390937975E+02  1.250000000E+02  0.00000E+00  9.000E+00
       2     1     1     2   502     0  1.128625699E+02 -1.037811626E+01 -7.297764387E+02  7.385250946E+02  0.000000000E+00  0.00000E+00  9.000E+00
#rwgt            1           1   3.0730956379101799E-002           6      136478           0
</event>
<event>
      5   9999  3.19816E-02  9.70045E+01 -1.00000E+00  1.24425E-01
      21    -1     0     0   511   501  0.000000000E+00  0.000000000E+00  4.083933308E+02  4.083933308E+02  0.000000000E+00  0.00000E+00  9.000E+00
      21    -1     0     0   501   502  0.000000000E+00  0.000000000E+00 -1.244831337E+02  1.244831337E+02  0.000000000E+00  0.00000E+00  9.000E+00
      25     1     1     2     0     0 -9.726400898E+01  8.716144880E+01  1.183359419E+02  2.160689722E+02  1.250000000E+02  0.00000E+00  9.000E+00
      25     1     1     2     0     0  1.938682091E+01 -2.932530990E+01  5.908028044E+00  1.299835660E+02  1.250000000E+02  0.00000E+00  9.000E+00
      21     1     1     2   511   502  7.787718808E+01 -5.783613890E+01  1.596662271E+02  1.868239264E+02  2.697398305E-06  0.00000E+00  9.000E+00
#rwgt            1           1   6.6715108980996474E-002           6      136546           0
</event>
<event>
      5   9999  3.19816E-02  6.10223E+01 -1.00000E+00  1.34312E-01
      21    -1     0     0   502   512  0.000000000E+00  0.000000000E+00  9.282333708E+01  9.282333708E+01  0.000000000E+00  0.00000E+00  9.000E+00
      21    -1     0     0   501   502  0.000000000E+00  0.000000000E+00 -2.695860267E+03  2.695860267E+03  0.000000000E+00  0.00000E+00  9.000E+00
      25     1     1     2     0     0  2.015058969E+01  1.356896651E+02 -2.213436173E+03  2.221202922E+03  1.250000000E+02  0.00000E+00  9.000E+00
      25     1     1     2     0     0  3.069329095E+00 -7.925778943E+01 -4.547356724E+02  4.782266719E+02  1.250000000E+02  0.00000E+00  9.000E+00
      21     1     1     2   501   512 -2.321991878E+01 -5.643187567E+01  6.513491480E+01  8.925401025E+01  2.523185073E-06  0.00000E+00  9.000E+00
#rwgt            1           1   4.0103203443934012E-002           6      136609           0
</event>
<event>
      5   9999  3.19816E-02  8.83772E+01 -1.00000E+00  1.26290E-01
      21    -1     0     0   502   501  0.000000000E+00  0.000000000E+00  2.876470607E+02  2.876470607E+02  0.000000000E+00  0.00000E+00  9.000E+00
      21    -1     0     0   511   502  0.000000000E+00  0.000000000E+00 -4.780947278E+02  4.780947278E+02  0.000000000E+00  0.00000E+00  9.000E+00
      25     1     1     2     0     0 -9.764276269E+01  2.277784291E+02  1.070835864E+02  2.975046493E+02  1.250000000E+02  0.00000E+00  9.000E+00
      25     1     1     2     0     0  1.088920161E+01 -2.109158215E+02 -1.273834294E+02  2.765060516E+02  1.250000000E+02  0.00000E+00  9.000E+00
      21     1     1     2   511   501  8.675356108E+01 -1.686260761E+01 -1.701478241E+02  1.917310876E+02  0.000000000E+00  0.00000E+00  9.000E+00
#rwgt            1           1   2.5473148032860000E-002           6      136658           0
</event>
<event>
      5   9999  3.19816E-02  1.30690E+02 -1.00000E+00  1.18816E-01
       1    -1     0     0   502     0  0.000000000E+00  0.000000000E+00  1.568563647E+03  1.568563647E+03  0.000000000E+00  0.00000E+00  9.000E+00
      21    -1     0     0   501   502  0.000000000E+00  0.000000000E+00 -7.810583777E+01  7.810583777E+01  0.000000000E+00  0.00000E+00  9.000E+00
      25     1     1     2     0     0  1.711221348E+02 -5.771098416E+01  4.338156733E+02  4.862451862E+02  1.250000000E+02  0.00000E+00  9.000E+00
      25     1     1     2     0     0 -1.116576638E+02  1.740894494E+02  2.673379206E+02  3.603736034E+02  1.250000000E+02  0.00000E+00  9.000E+00
       1     1     1     2   501     0 -5.946447100E+01 -1.163784652E+02  7.893042151E+02  8.000506949E+02  1.525878906E-05  0.00000E+00  9.000E+00
#rwgt            1           1   2.9859420847480153E-002           6      136698           0
</event>
<event>
      5   9999  3.19816E-02  6.02373E+01 -1.00000E+00  1.34612E-01
      21    -1     0     0   502   501  0.000000000E+00  0.000000000E+00  1.144818432E+03  1.144818432E+03  0.000000000E+00  0.00000E+00  9.000E+00
      21    -1     0     0   501   511  0.000000000E+00  0.000000000E+00 -2.004861640E+02  2.004861640E+02  0.000000000E+00  0.00000E+00  9.000E+00
      25     1     1     2     0     0 -3.796042522E+02  1.810366004E+02  5.489036867E+02  7.027047006E+02  1.250000000E+02  0.00000E+00  9.000E+00
      25     1     1     2     0     0  3.508713819E+02 -2.339795871E+02  3.777878806E+02  5.798326108E+02  1.250000000E+02  0.00000E+00  9.000E+00
      21     1     1     2   502   511  2.873287024E+01  5.294298674E+01  1.764070048E+01  6.276728440E+01  6.307962682E-07  0.00000E+00  9.000E+00
#rwgt            1           1   2.9089336421535966E-002           6      136753           0
</event>
<event>
      5   9999  3.19816E-02  1.43849E+02 -1.00000E+00  1.17119E-01
      21    -1     0     0   502   501  0.000000000E+00  0.000000000E+00  7.721027426E+01  7.721027426E+01  0.000000000E+00  0.00000E+00  9.000E+00
       2    -1     0     0   501     0  0.000000000E+00  0.000000000E+00 -2.445545000E+03  2.445545000E+03  0.000000000E+00  0.00000E+00  9.000E+00
      25     1     1     2     0     0  5.533625810E+00 -2.820493226E+02 -4.877374035E+02  5.771440169E+02  1.250000000E+02  0.00000E+00  9.000E+00
      25     1     1     2     0     0  1.381573865E+02  2.753072294E+02 -1.012458818E+03  1.065635675E+03  1.250000000E+02  0.00000E+00  9.000E+00
       2     1     1     2   502     0 -1.436910123E+02  6.742093183E+00 -8.681385050E+02  8.799755830E+02  1.525878906E-05  0.00000E+00  9.000E+00
#rwgt            2          13   1.3869649830004192E-003           6      136998           0
</event>
<event>
      5   9999  3.19816E-02  1.18432E+02 -1.00000E+00  1.20611E-01
      21    -1     0     0   502   501  0.000000000E+00  0.000000000E+00  4.214163493E+02  4.214163493E+02  0.000000000E+00  0.00000E+00  9.000E+00
      21    -1     0     0   511   502  0.000000000E+00  0.000000000E+00 -8.489196780E+02  8.489196780E+02  0.000000000E+00  0.00000E+00  9.000E+00
      25     1     1     2     0     0  2.447816033E+02  3.231128736E+02 -1.607081507E+02  4.536210666E+02  1.250000000E+02  0.00000E+00  9.000E+00
      25     1     1     2     0     0 -2.669974853E+02 -2.067835127E+02  1.450228402E+02  3.882057476E+02  1.250000000E+02  0.00000E+00  9.000E+00
      21     1     1     2   511   501  2.221588199E+01 -1.163293609E+02 -4.118180182E+02  4.285092132E+02  5.394796609E-06  0.00000E+00  9.000E+00
#rwgt            1           1   3.0993762156869099E-002           6      137092           0
</event>
<event>
      5   9999  3.19816E-02  1.61057E+01 -1.00000E+00  1.74522E-01
      21    -1     0     0   512   501  0.000000000E+00  0.000000000E+00  2.270091201E+02  2.270091201E+02  0.000000000E+00  0.00000E+00  9.000E+00
      21    -1     0     0   501   502  0.000000000E+00  0.000000000E+00 -1.206240661E+03  1.206240661E+03  0.000000000E+00  0.00000E+00  9.000E+00
      25     1     1     2     0     0  1.751300619E+02 -1.146931998E+02 -1.416620402E+02  2.819897202E+02  1.250000000E+02  0.00000E+00  9.000E+00
      25     1     1     2     0     0 -1.778391013E+02  1.305694150E+02 -9.777809795E+02  1.010126607E+03  1.250000000E+02  0.00000E+00  9.000E+00
      21     1     1     2   512   502  2.709039342E+00 -1.587621522E+01  1.402114787E+02  1.411334541E+02  3.814697266E-06  0.00000E+00  9.000E+00
#rwgt            1           1   2.9799795256536556E-002           6      137176           0
</event>
<event>
      5   9999  3.19816E-02  1.17937E+03 -1.00000E+00  8.93037E-02
       2    -1     0     0   502     0  0.000000000E+00  0.000000000E+00  3.024648296E+03  3.024648296E+03  0.000000000E+00  0.00000E+00  9.000E+00
      21    -1     0     0   501   502  0.000000000E+00  0.000000000E+00 -9.328016209E+02  9.328016209E+02  0.000000000E+00  0.00000E+00  9.000E+00
      25     1     1     2     0     0  2.264390970E+01  4.279173334E+02  7.586604301E+02  8.802366949E+02  1.250000000E+02  0.00000E+00  9.000E+00
      25     1     1     2     0     0 -9.824863495E+02 -1.113199811E+03  1.153305352E+03  1.884205796E+03  1.250000000E+02  0.00000E+00  9.000E+00
       2     1     1     2   501     0  9.598424398E+02  6.852824773E+02  1.798808927E+02  1.193007426E+03  1.221299026E-05  0.00000E+00  9.000E+00
#rwgt            2          18   4.2664336492892756E-004           6      137621           0
</event>
<event>
      5   9999  3.19816E-02  4.27911E+01 -1.00000E+00  1.43047E-01
      21    -1     0     0   502   501  0.000000000E+00  0.000000000E+00  3.780086950E+02  3.780086950E+02  0.000000000E+00  0.00000E+00  9.000E+00
      21    -1     0     0   501   511  0.000000000E+00  0.000000000E+00 -6.298757441E+02  6.298757441E+02  0.000000000E+00  0.00000E+00  9.000E+00
      25     1     1     2     0     0 -3.246566571E+02  2.468022551E+02  3.488832896E+01  4.279666968E+02  1.250000000E+02  0.00000E+00  9.000E+00
      25     1     1     2     0     0  3.673889741E+02 -2.490437692E+02 -2.663843206E+02  5.325251765E+02  1.250000000E+02  0.00000E+00  9.000E+00
      21     1     1     2   502   511 -4.273231705E+01  2.241514111E+00 -2.037105741E+01  4.739256573E+01  1.011524364E-06  0.00000E+00  9.000E+00
#rwgt            1           1   2.4081754892332781E-002           6      137670           0
</event>
<event>
      5   9999  3.19816E-02  2.98990E+02 -1.00000E+00  1.05640E-01
      21    -1     0     0   502   501  0.000000000E+00  0.000000000E+00  7.421420716E+02  7.421420716E+02  0.000000000E+00  0.00000E+00  9.000E+00
       3    -1     0     0   501     0  0.000000000E+00  0.000000000E+00 -1.164880565E+03  1.164880565E+03  0.000000000E+00  0.00000E+00  9.000E+00
      25     1     1     2     0     0  4.439384440E+02 -5.299414435E+01 -3.700865288E+02  5.936992169E+02  1.250000000E+02  0.00000E+00  9.000E+00
      25     1     1     2     0     0 -3.609150777E+02 -2.342382171E+02  5.083487582E+02  6.776213512E+02  1.250000000E+02  0.00000E+00  9.000E+00
       3     1     1     2   502     0 -8.302336625E+01  2.872323615E+02 -5.610007228E+02  6.357020684E+02  7.629394531E-06  0.00000E+00  9.000E+00
#rwgt            2          14   5.9174202573896384E-005           6      137748           0
</event>
<event>
      5   9999  3.19816E-02  2.57386E+01 -1.00000E+00  1.57810E-01
      21    -1     0     0   502   501  0.000000000E+00  0.000000000E+00  1.086790082E+03  1.086790082E+03  0.000000000E+00  0.00000E+00  9.000E+00
      -4    -1     0     0     0   502  0.000000000E+00  0.000000000E+00 -1.782101273E+02  1.782101273E+02  0.000000000E+00  0.00000E+00  9.000E+00
      25     1     1     2     0     0  3.765022531E+01 -1.346408109E+02  9.504334598E+02  9.687592317E+02  1.250000000E+02  0.00000E+00  9.000E+00
      25     1     1     2     0     0 -3.335420301E+01  1.092633055E+02  6.868965774E+01  1.827409146E+02  1.250000000E+02  0.00000E+00  9.000E+00
      -4     1     1     2     0   501 -4.296022299E+00  2.537750545E+01 -1.105431625E+02  1.135000633E+02  2.697398305E-06  0.00000E+00  9.000E+00
#rwgt            1           1   2.9793820250063399E-002           6      137767           0
</event>
<event>
      5   9999  3.19816E-02  2.42294E+02 -1.00000E+00  1.08697E-01
       2    -1     0     0   502     0  0.000000000E+00  0.000000000E+00  1.931292752E+03  1.931292752E+03  0.000000000E+00  0.00000E+00  9.000E+00
      21    -1     0     0   501   502  0.000000000E+00  0.000000000E+00 -2.346823449E+02  2.346823449E+02  0.000000000E+00  0.00000E+00  9.000E+00
      25     1     1     2     0     0  4.191435075E+02 -3.078305206E+02  5.452301258E+02  7.637681581E+02  1.250000000E+02  0.00000E+00  9.000E+00
      25     1     1     2     0     0 -4.964653328E+02  7.820509398E+01  5.581995687E+02  7.614496845E+02  1.250000000E+02  0.00000E+00  9.000E+00
       2     1     1     2   501     0  7.732182532E+01  2.296254266E+02  5.931807122E+02  6.407572539E+02  7.629394531E-06  0.00000E+00  9.000E+00
#rwgt            1           1   2.9935642577238068E-002           6      137900           0
</event>
<event>
      5   9999  3.19816E-02  5.74071E+01 -1.00000E+00  1.35737E-01
      21    -1     0     0   511   501  0.000000000E+00  0.000000000E+00  2.168576850E+02  2.168576850E+02  0.000000000E+00  0.00000E+00  9.000E+00
      21    -1     0     0   501   502  0.000000000E+00  0.000000000E+00 -1.105587521E+03  1.105587521E+03  0.000000000E+00  0.00000E+00  9.000E+00
      25     1     1     2     0     0 -1.742099002E+02 -2.865347223E+02 -7.747855972E+02  8.534453457E+02  1.250000000E+02  0.00000E+00  9.000E+00
      25     1     1     2     0     0  2.316007973E+02  2.851693090E+02 -1.302374037E+02  4.093253540E+02  1.250000000E+02  0.00000E+00  9.000E+00
      21     1     1     2   511   502 -5.739089707E+01  1.365413273E+00  1.629316532E+01  5.967450591E+01  7.907449699E-07  0.00000E+00  9.000E+00
#rwgt            1           1   2.9090298255270833E-002           6      137953           0
</event>
<event>
      5   9999  3.19816E-02  1.18312E+01 -1.00000E+00  1.87677E-01
      21    -1     0     0   502   501  0.000000000E+00  0.000000000E+00  2.806653891E+02  2.806653891E+02  0.000000000E+00  0.00000E+00  9.000E+00
      21    -1     0     0   512   502  0.000000000E+00  0.000000000E+00 -2.030180425E+02  2.030180425E+02  0.000000000E+00  0.00000E+00  9.000E+00
      25     1     1     2     0     0  1.404968680E+02  5.143457244E+01 -7.619605459E+01  2.093220578E+02  1.250000000E+02  0.00000E+00  9.000E+00
      25     1     1     2     0     0 -1.506038182E+02 -4.528429088E+01  1.635580011E+02  2.590528841E+02  1.250000000E+02  0.00000E+00  9.000E+00
      21     1     1     2   512   501  1.010695015E+01 -6.150281568E+00 -9.714599914E+00  1.530848968E+01  1.192092896E-07  0.00000E+00  9.000E+00
#rwgt            1           1   2.9018564055739573E-002           6      138068           0
</event>
<event>
      5   9999  3.19816E-02  4.39558E+01 -1.00000E+00  1.42345E-01
      21    -1     0     0   511   501  0.000000000E+00  0.000000000E+00  5.402953371E+01  5.402953371E+01  0.000000000E+00  0.00000E+00  9.000E+00
      21    -1     0     0   501   502  0.000000000E+00  0.000000000E+00 -1.434321045E+03  1.434321045E+03  0.000000000E+00  0.00000E+00  9.000E+00
      25     1     1     2     0     0 -1.053595022E+02  1.717753171E+02 -4.902044749E+02  5.445482637E+02  1.250000000E+02  0.00000E+00  9.000E+00
      25     1     1     2     0     0  1.021541707E+02 -2.156141333E+02 -7.835672980E+02  8.285696347E+02  1.250000000E+02  0.00000E+00  9.000E+00
      21     1     1     2   511   502  3.205331515E+00  4.383881616E+01 -1.065197387E+02  1.152326806E+02  0.000000000E+00  0.00000E+00  9.000E+00
#rwgt            1           1   2.9286988627561277E-002           6      138294           0
</event>
<event>
      5   9999  3.19816E-02  4.13951E+02 -1.00000E+00  1.01239E-01
      21    -1     0     0   502   501  0.000000000E+00  0.000000000E+00  1.573636183E+03  1.573636183E+03  0.000000000E+00  0.00000E+00  9.000E+00
      -1    -1     0     0     0   502  0.000000000E+00  0.000000000E+00 -5.994249542E+02  5.994249542E+02  0.000000000E+00  0.00000E+00  9.000E+00
      25     1     1     2     0     0  2.061224146E+02 -2.402817433E+02  5.397529720E+02  6.381066029E+02  1.250000000E+02  0.00000E+00  9.000E+00
      25     1     1     2     0     0 -6.015967946E+02  1.179880267E+02  7.770431699E+02  9.976276689E+02  1.250000000E+02  0.00000E+00  9.000E+00
      -1     1     1     2     0   501  3.954743800E+02  1.222937166E+02 -3.425849126E+02  5.373268658E+02  6.607249480E-06  0.00000E+00  9.000E+00
#rwgt            2          10   2.1120393429838454E-004           6      138399           0
</event>
<event>
      5   9999  3.19816E-02  1.70348E+02 -1.00000E+00  1.14245E-01
      21    -1     0     0   502   501  0.000000000E+00  0.000000000E+00  9.170128362E+02  9.170128362E+02  0.000000000E+00  0.00000E+00  9.000E+00
      21    -1     0     0   511   502  0.000000000E+00  0.000000000E+00 -1.691254510E+02  1.691254510E+02  0.000000000E+00  0.00000E+00  9.000E+00
      25     1     1     2     0     0  1.476309283E+02 -2.154748895E+02  4.823629166E+02  5.626040369E+02  1.250000000E+02  0.00000E+00  9.000E+00
      25     1     1     2     0     0  2.054199174E+01  1.883379026E+02  2.705010826E+02  3.531132604E+02  1.250000000E+02  0.00000E+00  9.000E+00
      21     1     1     2   511   501 -1.681729201E+02  2.713698686E+01 -4.976614116E+00  1.704209899E+02  6.899736466E-07  0.00000E+00  9.000E+00
#rwgt            1           1   2.7195541730805670E-002           6      138433           0
</event>
<event>
      5   9999  3.19816E-02  9.63166E+01 -1.00000E+00  1.24565E-01
      21    -1     0     0   502   501  0.000000000E+00  0.000000000E+00  9.656012069E+01  9.656012069E+01  0.000000000E+00  0.00000E+00  9.000E+00
      21    -1     0     0   501   512  0.000000000E+00  0.000000000E+00 -5.508923766E+02  5.508923766E+02  0.000000000E+00  0.00000E+00  9.000E+00
      25     1     1     2     0     0 -1.333043230E+01 -2.135767066E+01 -6.432770207E+01  1.428177292E+02  1.250000000E+02  0.00000E+00  9.000E+00
      25     1     1     2     0     0  8.745317510E+01  8.286137445E+01 -1.029126991E+02  2.018169687E+02  1.250000000E+02  0.00000E+00  9.000E+00
      21     1     1     2   502   512 -7.412274281E+01 -6.150370379E+01 -2.870918547E+02  3.028177994E+02  0.000000000E+00  0.00000E+00  9.000E+00
#rwgt            1           1   2.3471652145356906E-002           6      138473           0
</event>
<event>
      5   9999  3.19816E-02  5.08367E+01 -1.00000E+00  1.38666E-01
      21    -1     0     0   502   511  0.000000000E+00  0.000000000E+00  2.152564486E+03  2.152564486E+03  0.000000000E+00  0.00000E+00  9.000E+00
      21    -1     0     0   501   502  0.000000000E+00  0.000000000E+00 -6.274222663E+01  6.274222663E+01  0.000000000E+00  0.00000E+00  9.000E+00
      25     1     1     2     0     0  2.687788065E+01 -2.420674035E+02  6.183860544E+02  6.762731405E+02  1.250000000E+02  0.00000E+00  9.000E+00
      25     1     1     2     0     0 -2.884685936E+01  1.912688788E+02  3.660154817E+02  4.324445146E+02  1.250000000E+02  0.00000E+00  9.000E+00
      21     1     1     2   501   511  1.968978706E+00  5.079852462E+01  1.105420723E+03  1.106589057E+03  1.525878906E-05  0.00000E+00  9.000E+00
#rwgt            1           1   2.8180221581375307E-002           6      138528           0
</event>
<event>
      5   9999  3.19816E-02  5.75258E+01 -1.00000E+00  1.35688E-01
      21    -1     0     0   502   501  0.000000000E+00  0.000000000E+00  9.957929868E+02  9.957929868E+02  0.000000000E+00  0.00000E+00  9.000E+00
      21    -1     0     0   512   502  0.000000000E+00  0.000000000E+00 -2.653905059E+02  2.653905059E+02  0.000000000E+00  0.00000E+00  9.000E+00
      25     1     1     2     0     0  3.668424127E+02 -9.360044134E+01  9.423773641E+01  4.096829864E+02  1.250000000E+02  0.00000E+00  9.000E+00
      25     1     1     2     0     0 -3.520046295E+02  1.491797318E+02  6.723931400E+02  7.835173172E+02  1.250000000E+02  0.00000E+00  9.000E+00
      21     1     1     2   512   501 -1.483778320E+01 -5.557929048E+01 -3.622839555E+01  6.798318898E+01  8.259061849E-07  0.00000E+00  9.000E+00
#rwgt            1           1   2.8029478223475013E-002           6      138588           0
</event>
<event>
      5   9999  3.19816E-02  8.15249E+01 -1.00000E+00  1.27954E-01
      21    -1     0     0   511   501  0.000000000E+00  0.000000000E+00  5.373368566E+02  5.373368566E+02  0.000000000E+00  0.00000E+00  9.000E+00
      21    -1     0     0   501   502  0.000000000E+00  0.000000000E+00 -5.077506608E+02  5.077506608E+02  0.000000000E+00  0.00000E+00  9.000E+00
      25     1     1     2     0     0 -3.254229160E+02  7.648829629E+01 -1.989422012E+02  4.085994777E+02  1.250000000E+02  0.00000E+00  9.000E+00
      25     1     1     2     0     0  2.508846030E+02 -4.346790860E+01 -9.787174327E+01  3.000606959E+02  1.250000000E+02  0.00000E+00  9.000E+00
      21     1     1     2   511   502  7.453831306E+01 -3.302038770E+01  3.264001403E+02  3.364273439E+02  3.814697266E-06  0.00000E+00  9.000E+00
#rwgt            2          11   2.5865525499745891E-003           6      138887           0
</event>
<event>
      5   9999  3.19816E-02  1.47098E+02 -1.00000E+00  1.16731E-01
       2    -1     0     0   502     0  0.000000000E+00  0.000000000E+00  3.322856726E+03  3.322856726E+03  0.000000000E+00  0.00000E+00  9.000E+00
      21    -1     0     0   501   502  0.000000000E+00  0.000000000E+00 -6.535142132E+02  6.535142132E+02  0.000000000E+00  0.00000E+00  9.000E+00
      25     1     1     2     0     0 -3.673639694E+02 -6.893757001E+00 -2.424797188E+01  3.888660104E+02  1.250000000E+02  0.00000E+00  9.000E+00
      25     1     1     2     0     0  4.219520235E+02 -1.297005843E+02 -3.269586287E+02  5.633761590E+02  1.250000000E+02  0.00000E+00  9.000E+00
       2     1     1     2   501     0 -5.458805411E+01  1.365943413E+02  3.020549113E+03  3.024128770E+03  0.000000000E+00  0.00000E+00  9.000E+00
#rwgt            1           1   2.0534338512070073E-002           6      138922           0
</event>
<event>
      5   9999  3.19816E-02  4.59826E+01 -1.00000E+00  1.41183E-01
      21    -1     0     0   502   501  0.000000000E+00  0.000000000E+00  8.527224646E+02  8.527224646E+02  0.000000000E+00  0.00000E+00  9.000E+00
      21    -1     0     0   511   502  0.000000000E+00  0.000000000E+00 -1.654179542E+02  1.654179542E+02  0.000000000E+00  0.00000E+00  9.000E+00
      25     1     1     2     0     0  7.672958429E+01 -2.879934363E+02  5.846283314E+02  6.680141723E+02  1.250000000E+02  0.00000E+00  9.000E+00
      25     1     1     2     0     0 -4.342677028E+01  2.562866237E+02  8.323666313E+01  3.002033643E+02  1.250000000E+02  0.00000E+00  9.000E+00
      21     1     1     2   511   501 -3.330281402E+01  3.170681265E+01  1.943951592E+01  4.992288222E+01  6.743495762E-07  0.00000E+00  9.000E+00
#rwgt            1           1   2.7471023797330154E-002           6      138989           0
</event>
<event>
      5   9999  3.19816E-02  5.82211E+01 -1.00000E+00  1.35406E-01
      21    -1     0     0   512   501  0.000000000E+00  0.000000000E+00  3.159104358E+02  3.159104358E+02  0.000000000E+00  0.00000E+00  9.000E+00
      21    -1     0     0   501   502  0.000000000E+00  0.000000000E+00 -4.434227612E+02  4.434227612E+02  0.000000000E+00  0.00000E+00  9.000E+00
      25     1     1     2     0     0 -3.933812263E+01 -1.192424628E+02 -2.604596771E+02  3.150087241E+02  1.250000000E+02  0.00000E+00  9.000E+00
      25     1     1     2     0     0  1.652571683E+01  1.728082580E+02 -7.630814156E+01  2.271205094E+02  1.250000000E+02  0.00000E+00  9.000E+00
      21     1     1     2   512   502  2.281240581E+01 -5.356579515E+01  2.092554933E+02  2.172039634E+02  2.697398305E-06  0.00000E+00  9.000E+00
#rwgt            1           1   2.7295391357085100E-002           6      139078           0
</event>
<event>
      5   9999  3.19816E-02  7.13971E+01 -1.00000E+00  1.30787E-01
      21    -1     0     0   511   501  0.000000000E+00  0.000000000E+00  3.191009483E+02  3.191009483E+02  0.000000000E+00  0.00000E+00  9.000E+00
      21    -1     0     0   501   502  0.000000000E+00  0.000000000E+00 -4.356972983E+02  4.356972983E+02  0.000000000E+00  0.00000E+00  9.000E+00
      25     1     1     2     0     0 -2.501983923E+02 -1.294348564E+02  3.095721931E+01  3.097353176E+02  1.250000000E+02  0.00000E+00  9.000E+00
      25     1     1     2     0     0  2.894026322E+02  6.976430144E+01 -1.765656304E+02  3.679964172E+02  1.250000000E+02  0.00000E+00  9.000E+00
      21     1     1     2   511   502 -3.920423986E+01  5.967055497E+01  2.901206105E+01  7.706651179E+01  1.168007728E-06  0.00000E+00  9.000E+00
#rwgt            1           1   2.7094963158550939E-002           6      139161           0
</event>
<event>
      5   9999  3.19816E-02  3.83971E+01 -1.00000E+00  1.45950E-01
      21    -1     0     0   512   501  0.000000000E+00  0.000000000E+00  1.145047835E+02  1.145047835E+02  0.000000000E+00  0.00000E+00  9.000E+00
      21    -1     0     0   501   502  0.000000000E+00  0.000000000E+00 -4.536852852E+02  4.536852852E+02  0.000000000E+00  0.00000E+00  9.000E+00
      25     1     1     2     0     0  9.539822363E+01  1.053536114E+02 -2.705907449E+02  3.302189512E+02  1.250000000E+02  0.00000E+00  9.000E+00
      25     1     1     2     0     0 -6.198445623E+01 -1.242707515E+02 -7.005908663E+01  1.995459048E+02  1.250000000E+02  0.00000E+00  9.000E+00
      21     1     1     2   512   502 -3.341376741E+01  1.891714009E+01  1.469329775E+00  3.842521271E+01  8.242915086E-07  0.00000E+00  9.000E+00
#rwgt            1           1   3.4182289804438160E-002           6      139213           0
</event>
<event>
      5   9999  3.19816E-02  1.98224E+01 -1.00000E+00  1.66689E-01
      21    -1     0     0   511   501  0.000000000E+00  0.000000000E+00  3.980401832E+02  3.980401832E+02  0.000000000E+00  0.00000E+00  9.000E+00
      21    -1     0     0   501   502  0.000000000E+00  0.000000000E+00 -2.860611228E+02  2.860611228E+02  0.000000000E+00  0.00000E+00  9.000E+00
      25     1     1     2     0     0 -2.156894076E+02  7.840729882E+00  2.173962692E+02  3.308618072E+02  1.250000000E+02  0.00000E+00  9.000E+00
      25     1     1     2     0     0  1.959634374E+02 -9.794021583E+00 -1.684101873E+02  2.872012933E+02  1.250000000E+02  0.00000E+00  9.000E+00
      21     1     1     2   511   502  1.972597016E+01  1.953291702E+00  6.299297844E+01  6.603820546E+01  9.536743164E-07  0.00000E+00  9.000E+00
#rwgt            1           1   2.5108516998757959E-002           6      139321           0
</event>
<event>
      5   9999  3.19816E-02  2.50222E+01 -1.00000E+00  1.58722E-01
      21    -1     0     0   502   512  0.000000000E+00  0.000000000E+00  1.757701147E+02  1.757701147E+02  0.000000000E+00  0.00000E+00  9.000E+00
      21    -1     0     0   501   502  0.000000000E+00  0.000000000E+00 -3.397555105E+02  3.397555105E+02  0.000000000E+00  0.00000E+00  9.000E+00
      25     1     1     2     0     0  7.636892962E+01  1.652320698E+02 -1.088536948E+02  2.461868745E+02  1.250000000E+02  0.00000E+00  9.000E+00
      25     1     1     2     0     0 -5.757767811E+01 -1.817547969E+02 -7.209551742E+01  2.391082576E+02  1.250000000E+02  0.00000E+00  9.000E+00
      21     1     1     2   501   512 -1.879125151E+01  1.652272717E+01  1.696381648E+01  3.023049314E+01  3.371747881E-07  0.00000E+00  9.000E+00
#rwgt            1           1   3.0134693371546121E-002           6      139466           0
</event>
<event>
      5   9999  3.19816E-02  8.11402E+01 -1.00000E+00  1.28053E-01
      21    -1     0     0   511   501  0.000000000E+00  0.000000000E+00  9.407737922E+02  9.407737922E+02  0.000000000E+00  0.00000E+00  9.000E+00
      21    -1     0     0   501   502  0.000000000E+00  0.000000000E+00 -5.889797774E+02  5.889797774E+02  0.000000000E+00  0.00000E+00  9.000E+00
      25     1     1     2     0     0  1.418222732E+02  1.361506487E+02 -2.627939505E+02  3.511925636E+02  1.250000000E+02  0.00000E+00  9.000E+00
      25     1     1     2     0     0 -6.356240931E+01 -1.147235467E+02 -2.507884519E+02  3.093889456E+02  1.250000000E+02  0.00000E+00  9.000E+00
      21     1     1     2   511   502 -7.825986392E+01 -2.142710197E+01  8.653764172E+02  8.691720603E+02  0.000000000E+00  0.00000E+00  9.000E+00
#rwgt            1           1   2.5871140633863803E-002           6      139580           0
</event>
<event>
      5   9999  3.19816E-02  7.66496E+01 -1.00000E+00  1.29255E-01
      21    -1     0     0   502   512  0.000000000E+00  0.000000000E+00  4.266516402E+02  4.266516402E+02  0.000000000E+00  0.00000E+00  9.000E+00
      21    -1     0     0   501   502  0.000000000E+00  0.000000000E+00 -1.265257697E+03  1.265257697E+03  0.000000000E+00  0.00000E+00  9.000E+00
      25     1     1     2     0     0 -3.293923550E+02 -1.533128073E+02 -5.839315281E+02  6.990029827E+02  1.250000000E+02  0.00000E+00  9.000E+00
      25     1     1     2     0     0  4.051223231E+02  1.651503147E+02 -5.349848830E+02  7.023051674E+02  1.250000000E+02  0.00000E+00  9.000E+00
      21     1     1     2   501   512 -7.572996810E+01 -1.183750743E+01  2.803103548E+02  2.906011866E+02  7.629394531E-06  0.00000E+00  9.000E+00
#rwgt            1           1   2.7045002510417207E-002           6      139655           0
</event>
<event>
      5   9999  3.19816E-02  1.13524E+02 -1.00000E+00  1.21400E-01
      21    -1     0     0   502   511  0.000000000E+00  0.000000000E+00  1.850611416E+02  1.850611416E+02  0.000000000E+00  0.00000E+00  9.000E+00
      21    -1     0     0   501   502  0.000000000E+00  0.000000000E+00 -4.427685086E+02  4.427685086E+02  0.000000000E+00  0.00000E+00  9.000E+00
      25     1     1     2     0     0 -6.375061043E+01 -1.515447902E+02 -3.001811444E+02  3.643675113E+02  1.250000000E+02  0.00000E+00  9.000E+00
      25     1     1     2     0     0  2.361813412E+01  4.535166027E+01 -1.559086979E+01  1.359509638E+02  1.250000000E+02  0.00000E+00  9.000E+00
      21     1     1     2   501   511  4.013247632E+01  1.061931299E+02  5.806464724E+01  1.275111751E+02  1.907348633E-06  0.00000E+00  9.000E+00
#rwgt            1           1   3.0685127827649244E-002           6      139749           0
</event>
<event>
      5   9999  3.19816E-02  2.90278E+01 -1.00000E+00  1.54040E-01
      21    -1     0     0   502   501  0.000000000E+00  0.000000000E+00  2.679878400E+02  2.679878400E+02  0.000000000E+00  0.00000E+00  9.000E+00
      21    -1     0     0   501   512  0.000000000E+00  0.000000000E+00 -2.015211601E+03  2.015211601E+03  0.000000000E+00  0.00000E+00  9.000E+00
      25     1     1     2     0     0  4.151741851E+01 -3.271254935E+02 -5.525551857E+01  3.569495159E+02  1.250000000E+02  0.00000E+00  9.000E+00
      25     1     1     2     0     0 -1.250858468E+01  3.260756588E+02 -1.438965316E+02  3.779060886E+02  1.250000000E+02  0.00000E+00  9.000E+00
      21     1     1     2   502   512 -2.900883382E+01  1.049834712E+00 -1.548071711E+03  1.548343837E+03  3.737624730E-05  0.00000E+00  9.000E+00
#rwgt            1           1   2.5646672157151953E-002           6      139822           0
</event>
<event>
      5   9999  3.19816E-02  7.68909E+01 -1.00000E+00  1.29188E-01
      21    -1     0     0   511   501  0.000000000E+00  0.000000000E+00  3.019342550E+02  3.019342550E+02  0.000000000E+00  0.00000E+00  9.000E+00
      21    -1     0     0   501   502  0.000000000E+00  0.000000000E+00 -1.023575704E+03  1.023575704E+03  0.000000000E+00  0.00000E+00  9.000E+00
      25     1     1     2     0     0  1.204810597E+02  3.885660265E+02  3.923381309E+01  4.273915474E+02  1.250000000E+02  0.00000E+00  9.000E+00
      25     1     1     2     0     0 -1.581730118E+02 -3.215472232E+02 -7.125030873E+02  8.072775036E+02  1.250000000E+02  0.00000E+00  9.000E+00
      21     1     1     2   511   502  3.769195204E+01 -6.701880328E+01 -4.837217452E+01  9.084090768E+01  0.000000000E+00  0.00000E+00  9.000E+00
#rwgt            1           1   3.3563286934296638E-002           6      139960           0
</event>
<event>
      5   9999  3.19816E-02  5.07025E+01 -1.00000E+00  1.38731E-01
      21    -1     0     0   502   501  0.000000000E+00  0.000000000E+00  2.873696226E+02  2.873696226E+02  0.000000000E+00  0.00000E+00  9.000E+00
       2    -1     0     0   501     0  0.000000000E+00  0.000000000E+00 -3.016966688E+03  3.016966688E+03  0.000000000E+00  0.00000E+00  9.000E+00
      25     1     1     2     0     0 -4.350797731E+01  4.523731334E+02 -1.466751662E+02  4.936324546E+02  1.250000000E+02  0.00000E+00  9.000E+00
      25     1     1     2     0     0 -6.996527801E+00 -4.568496337E+02 -3.802102328E+02  6.074087259E+02  1.250000000E+02  0.00000E+00  9.000E+00
       2     1     1     2   502     0  5.050450511E+01  4.476500362E+00 -2.202711666E+03  2.203295130E+03  3.051757812E-05  0.00000E+00  9.000E+00
#rwgt            1           1   2.5692976159566307E-002           6      140018           0
</event>
<event>
      5   9999  3.19816E-02  3.67333E+01 -1.00000E+00  1.47173E-01
      21    -1     0     0   502   501  0.000000000E+00  0.000000000E+00  5.258910592E+02  5.258910592E+02  0.000000000E+00  0.00000E+00  9.000E+00
      21    -1     0     0   511   502  0.000000000E+00  0.000000000E+00 -1.996263732E+02  1.996263732E+02  0.000000000E+00  0.00000E+00  9.000E+00
      25     1     1     2     0     0  1.800626885E+02 -1.282538217E+01 -4.674177646E+01  2.244924406E+02  1.250000000E+02  0.00000E+00  9.000E+00
      25     1     1     2     0     0 -1.902593892E+02  4.811512215E+01  3.948359836E+02  4.582948332E+02  1.250000000E+02  0.00000E+00  9.000E+00
      21     1     1     2   511   501  1.019670073E+01 -3.528973998E+01 -2.182952114E+01  4.273015852E+01  6.743495762E-07  0.00000E+00  9.000E+00
#rwgt            1           1   2.7829601102782976E-002           6      140107           0
</event>
<event>
      5   9999  3.19816E-02  5.15143E+01 -1.00000E+00  1.38340E-01
      21    -1     0     0   512   501  0.000000000E+00  0.000000000E+00  8.173899361E+02  8.173899361E+02  0.000000000E+00  0.00000E+00  9.000E+00
      21    -1     0     0   501   502  0.000000000E+00  0.000000000E+00 -4.896182192E+02  4.896182192E+02  0.000000000E+00  0.00000E+00  9.000E+00
      25     1     1     2     0     0 -1.623928820E+02 -4.214058902E+01  4.336205042E+02  4.814551059E+02  1.250000000E+02  0.00000E+00  9.000E+00
      25     1     1     2     0     0  1.164569734E+02  6.545620840E+01 -4.457162956E+02  4.818036509E+02  1.250000000E+02  0.00000E+00  9.000E+00
      21     1     1     2   512   502  4.593590856E+01 -2.331561939E+01  3.398675083E+02  3.437493985E+02  3.814697266E-06  0.00000E+00  9.000E+00
#rwgt            1           1   2.9757126323450081E-002           6      140217           0
</event>
<event>
      5   9999  3.19816E-02  8.74582E+01 -1.00000E+00  1.26503E-01
      21    -1     0     0   511   501  0.000000000E+00  0.000000000E+00  1.729816261E+02  1.729816261E+02  0.000000000E+00  0.00000E+00  9.000E+00
      21    -1     0     0   501   502  0.000000000E+00  0.000000000E+00 -1.674441363E+03  1.674441363E+03  0.000000000E+00  0.00000E+00  9.000E+00
      25     1     1     2     0     0  1.885450717E+02 -1.826664030E+02 -9.357046065E+02  9.798389508E+02  1.250000000E+02  0.00000E+00  9.000E+00
      25     1     1     2     0     0 -2.177647494E+02  1.002337703E+02 -6.753002605E+02  7.274089198E+02  1.250000000E+02  0.00000E+00  9.000E+00
      21     1     1     2   511   502  2.921967773E+01  8.243263262E+01  1.095451298E+02  1.401751189E+02  4.473129043E-06  0.00000E+00  9.000E+00
#rwgt            1           1   3.3615035197764508E-002           6      140311           0
</event>
<event>
      5   9999  3.19816E-02  3.14482E+01 -1.00000E+00  1.51631E-01
      21    -1     0     0   502   512  0.000000000E+00  0.000000000E+00  2.576008156E+02  2.576008156E+02  0.000000000E+00  0.00000E+00  9.000E+00
      21    -1     0     0   501   502  0.000000000E+00  0.000000000E+00 -2.465041659E+03  2.465041659E+03  0.000000000E+00  0.00000E+00  9.000E+00
      25     1     1     2     0     0  5.567507274E+02  3.052464264E+02 -3.690774007E+02  7.449764298E+02  1.250000000E+02  0.00000E+00  9.000E+00
      25     1     1     2     0     0 -5.826927787E+02 -3.230227784E+02 -1.817838803E+03  1.940112755E+03  1.250000000E+02  0.00000E+00  9.000E+00
      21     1     1     2   501   512  2.594205129E+01  1.777635198E+01 -2.052464002E+01  3.755328964E+01  8.259061849E-07  0.00000E+00  9.000E+00
#rwgt            1           1   2.3350386333288359E-002           6      140361           0
</event>
<event>
      5   9999  3.19816E-02  2.56773E+01 -1.00000E+00  1.57886E-01
      21    -1     0     0   502   501  0.000000000E+00  0.000000000E+00  1.278279401E+02  1.278279401E+02  0.000000000E+00  0.00000E+00  9.000E+00
      21    -1     0     0   511   502  0.000000000E+00  0.000000000E+00 -9.687575556E+02  9.687575556E+02  0.000000000E+00  0.00000E+00  9.000E+00
      25     1     1     2     0     0 -2.492736620E+02  1.473737762E+02 -1.891383454E+02  3.677699038E+02  1.250000000E+02  0.00000E+00  9.000E+00
      25     1     1     2     0     0  2.240614515E+02 -1.425089124E+02 -5.452217477E+02  6.191963165E+02  1.250000000E+02  0.00000E+00  9.000E+00
      21     1     1     2   511   501  2.521221049E+01 -4.864863822E+00 -1.065695223E+02  1.096192754E+02  1.907348633E-06  0.00000E+00  9.000E+00
#rwgt            1           1   3.1748325418134299E-002           6      140550           0
</event>
<event>
      5   9999  3.19816E-02  1.22360E+02 -1.00000E+00  1.20010E-01
      -1    -1     0     0     0   501  0.000000000E+00  0.000000000E+00  8.661173788E+02  8.661173788E+02  0.000000000E+00  0.00000E+00  9.000E+00
      21    -1     0     0   501   502  0.000000000E+00  0.000000000E+00 -1.841702260E+03  1.841702260E+03  0.000000000E+00  0.00000E+00  9.000E+00
      25     1     1     2     0     0 -2.046634686E+02  2.210051508E+02 -1.804964439E+02  3.727390217E+02  1.250000000E+02  0.00000E+00  9.000E+00
      25     1     1     2     0     0  3.229601723E+02 -1.897339521E+02 -1.535073053E+03  1.585047798E+03  1.250000000E+02  0.00000E+00  9.000E+00
      -1     1     1     2     0   502 -1.182967037E+02 -3.127119871E+01  7.399846155E+02  7.500328187E+02  1.078959322E-05  0.00000E+00  9.000E+00
#rwgt            1           1   2.5795517238415683E-002           6      140699           0
</event>
<event>
      5   9999  3.19816E-02  1.41205E+02 -1.00000E+00  1.17443E-01
      21    -1     0     0   502   511  0.000000000E+00  0.000000000E+00  1.051349959E+02  1.051349959E+02  0.000000000E+00  0.00000E+00  9.000E+00
      21    -1     0     0   501   502  0.000000000E+00  0.000000000E+00 -3.236113326E+03  3.236113326E+03  0.000000000E+00  0.00000E+00  9.000E+00
      25     1     1     2     0     0  5.471723912E+01 -5.368031418E+02 -1.752593733E+03  1.838031932E+03  1.250000000E+02  0.00000E+00  9.000E+00
      25     1     1     2     0     0 -2.438970019E+00  4.056325424E+02 -1.216373438E+03  1.288306271E+03  1.250000000E+02  0.00000E+00  9.000E+00
      21     1     1     2   501   511 -5.227826910E+01  1.311705994E+02 -1.620111599E+02  2.149101196E+02  3.814697266E-06  0.00000E+00  9.000E+00
#rwgt            1           1   6.3077472874355819E-002           6      140812           0
</event>
<event>
      5   9999  3.19816E-02  2.10316E+01 -1.00000E+00  1.64587E-01
      21    -1     0     0   512   501  0.000000000E+00  0.000000000E+00  7.478078929E+02  7.478078929E+02  0.000000000E+00  0.00000E+00  9.000E+00
      21    -1     0     0   501   502  0.000000000E+00  0.000000000E+00 -8.278808999E+02  8.278808999E+02  0.000000000E+00  0.00000E+00  9.000E+00
      25     1     1     2     0     0  1.221193675E+02 -6.274868705E+01 -8.046346214E+02  8.257798808E+02  1.250000000E+02  0.00000E+00  9.000E+00
      25     1     1     2     0     0 -1.011178081E+02  6.162431839E+01  6.531693048E+02  6.754831667E+02  1.250000000E+02  0.00000E+00  9.000E+00
      21     1     1     2   512   502 -2.100155940E+01  1.124368655E+00  7.139230951E+01  7.442574527E+01  9.536743164E-07  0.00000E+00  9.000E+00
#rwgt            1           1   3.1435085263981109E-002           6      140892           0
</event>
<event>
      5   9999  3.19816E-02  2.74002E+02 -1.00000E+00  1.06887E-01
       2    -1     0     0   502     0  0.000000000E+00  0.000000000E+00  1.626285786E+03  1.626285786E+03  0.000000000E+00  0.00000E+00  9.000E+00
      21    -1     0     0   501   502  0.000000000E+00  0.000000000E+00 -5.718538024E+02  5.718538024E+02  0.000000000E+00  0.00000E+00  9.000E+00
      25     1     1     2     0     0  1.072016313E+02  2.111187304E+02  2.915314907E+02  3.958268790E+02  1.250000000E+02  0.00000E+00  9.000E+00
      25     1     1     2     0     0  1.609896921E+02 -1.549916035E+02 -4.722145387E+02  5.371700370E+02  1.250000000E+02  0.00000E+00  9.000E+00
       2     1     1     2   501     0 -2.681913234E+02 -5.612712686E+01  1.235115032E+03  1.265142672E+03  1.525878906E-05  0.00000E+00  9.000E+00
#rwgt            2          18   2.6010935176344172E-003           6      141616           0
</event>
<event>
      5   9999  3.19816E-02  6.75376E+01 -1.00000E+00  1.32013E-01
      21    -1     0     0   502   501  0.000000000E+00  0.000000000E+00  1.228908181E+02  1.228908181E+02  0.000000000E+00  0.00000E+00  9.000E+00
       2    -1     0     0   501     0  0.000000000E+00  0.000000000E+00 -6.260268653E+02  6.260268653E+02  0.000000000E+00  0.00000E+00  9.000E+00
      25     1     1     2     0     0 -7.249952541E+01 -1.832251340E+02 -2.521848331E+02  3.435837903E+02  1.250000000E+02  0.00000E+00  9.000E+00
      25     1     1     2     0     0  5.327533565E+00  1.902432959E+02 -1.185683135E+02  2.567184045E+02  1.250000000E+02  0.00000E+00  9.000E+00
       2     1     1     2   502     0  6.717199184E+01 -7.018161964E+00 -1.323829006E+02  1.486154886E+02  0.000000000E+00  0.00000E+00  9.000E+00
#rwgt            1           1   2.7424141255293754E-002           6      141680           0
</event>
<event>
      5   9999  3.45590E-02  4.78399E+01 -1.00000E+00  1.40179E-01
      21    -1     0     0   502   511  0.000000000E+00  0.000000000E+00  4.795217131E+02  4.795217131E+02  0.000000000E+00  0.00000E+00  9.000E+00
      21    -1     0     0   501   502  0.000000000E+00  0.000000000E+00 -4.845500578E+02  4.845500578E+02  0.000000000E+00  0.00000E+00  9.000E+00
      25     1     1     2     0     0 -1.883725535E+02  9.958852202E+01 -3.895572084E+02  4.612828972E+02  1.250000000E+02  0.00000E+00  9.000E+00
      25     1     1     2     0     0  1.602813033E+02 -1.383123905E+02  2.148853708E+02  3.265289208E+02  1.250000000E+02  0.00000E+00  9.000E+00
      21     1     1     2   501   511  2.809125018E+01  3.872386846E+01  1.696434928E+02  1.762599529E+02  2.697398305E-06  0.00000E+00  9.000E+00
#rwgt            1           1   3.4523791890021104E-002           6      141744           0
</event>
<event>
      5   9999  3.19816E-02  4.07339E+01 -1.00000E+00  1.44352E-01
       1    -1     0     0   502     0  0.000000000E+00  0.000000000E+00  1.009627345E+03  1.009627345E+03  0.000000000E+00  0.00000E+00  9.000E+00
      21    -1     0     0   501   502  0.000000000E+00  0.000000000E+00 -6.841222890E+02  6.841222890E+02  0.000000000E+00  0.00000E+00  9.000E+00
      25     1     1     2     0     0 -2.458086147E+02 -7.609816826E+01 -4.774036945E+02  5.565537654E+02  1.250000000E+02  0.00000E+00  9.000E+00
      25     1     1     2     0     0  2.566685855E+02  3.683865775E+01 -4.235169557E+01  2.909544906E+02  1.250000000E+02  0.00000E+00  9.000E+00
       1     1     1     2   501     0 -1.085997082E+01  3.925951051E+01  8.452604463E+02  8.462413782E+02  1.525878906E-05  0.00000E+00  9.000E+00
#rwgt            1           1   2.5529420155294635E-002           6      141850           0
</event>
<event>
      5   9999  3.19816E-02  3.92440E+02 -1.00000E+00  1.01935E-01
      21    -1     0     0   502   501  0.000000000E+00  0.000000000E+00  9.213325047E+01  9.213325047E+01  0.000000000E+00  0.00000E+00  9.000E+00
       1    -1     0     0   501     0  0.000000000E+00  0.000000000E+00 -2.363480016E+03  2.363480016E+03  0.000000000E+00  0.00000E+00  9.000E+00
      25     1     1     2     0     0  1.378882942E+02  1.398587651E+02 -7.751167597E+02  8.093235737E+02  1.250000000E+02  0.00000E+00  9.000E+00
      25     1     1     2     0     0 -9.039097066E+01  2.496958266E+02 -6.020227646E+02  6.697573758E+02  1.250000000E+02  0.00000E+00  9.000E+00
       1     1     1     2   502     0 -4.749732357E+01 -3.895545916E+02 -8.942072409E+02  9.765323166E+02  1.868812365E-05  0.00000E+00  9.000E+00
#rwgt            2          12   6.1548002771672698E-004           6      142217           0
</event>
<event>
      5   9999  3.19816E-02  2.69835E+01 -1.00000E+00  1.56307E-01
      21    -1     0     0   511   501  0.000000000E+00  0.000000000E+00  1.981827039E+03  1.981827039E+03  0.000000000E+00  0.00000E+00  9.000E+00
      21    -1     0     0   501   502  0.000000000E+00  0.000000000E+00 -3.585248209E+02  3.585248209E+02  0.000000000E+00  0.00000E+00  9.000E+00
      25     1     1     2     0     0 -3.812193143E+01  3.791185857E+02  8.410054644E+02  9.317185062E+02  1.250000000E+02  0.00000E+00  9.000E+00
      25     1     1     2     0     0  1.153764507E+01 -3.837431608E+02 -1.827660660E+02  4.431933727E+02  1.250000000E+02  0.00000E+00  9.000E+00
      21     1     1     2   511   502  2.658428636E+01  4.624575130E+00  9.650628194E+02  9.654399807E+02  1.078959322E-05  0.00000E+00  9.000E+00
#rwgt            2          11   9.9117278739663597E-004           6      142236           0
</event>
<event>
      5   9999  3.19816E-02  4.46466E+02 -1.00000E+00  1.00270E-01
       2    -1     0     0   502     0  0.000000000E+00  0.000000000E+00  1.309821160E+03  1.309821160E+03  0.000000000E+00  0.00000E+00  9.000E+00
      21    -1     0     0   501   502  0.000000000E+00  0.000000000E+00 -7.850933428E+02  7.850933428E+02  0.000000000E+00  0.00000E+00  9.000E+00
      25     1     1     2     0     0 -9.294251708E+01  4.140489544E+02 -1.221150650E+01  4.425482674E+02  1.250000000E+02  0.00000E+00  9.000E+00
      25     1     1     2     0     0 -3.713766059E+01 -8.411446263E+02 -1.184091030E+02  8.593888549E+02  1.250000000E+02  0.00000E+00  9.000E+00
       2     1     1     2   501     0  1.300801777E+02  4.270956719E+02  6.553484267E+02  7.929773805E+02  0.000000000E+00  0.00000E+00  9.000E+00
#rwgt            2          18   1.1428821157147215E-003           6      142301           0
</event>
<event>
      5   9999  3.19816E-02  5.44383E+01 -1.00000E+00  1.37000E-01
      21    -1     0     0   502   501  0.000000000E+00  0.000000000E+00  5.837278667E+01  5.837278667E+01  0.000000000E+00  0.00000E+00  9.000E+00
      21    -1     0     0   501   511  0.000000000E+00  0.000000000E+00 -7.376864630E+02  7.376864630E+02  0.000000000E+00  0.00000E+00  9.000E+00
      25     1     1     2     0     0 -3.579149616E+01  7.535074683E+01 -2.396628252E+02  2.828816644E+02  1.250000000E+02  0.00000E+00  9.000E+00
      25     1     1     2     0     0  2.681597832E+01 -1.290440657E+02 -2.123284150E+02  2.794276712E+02  1.250000000E+02  0.00000E+00  9.000E+00
      21     1     1     2   502   511  8.975517845E+00  5.369331887E+01 -2.273224361E+02  2.337499141E+02  2.697398305E-06  0.00000E+00  9.000E+00
#rwgt            1           1   2.6088827688315056E-002           6      142320           0
</event>
<event>
      5   9999  3.19816E-02  1.36715E+02 -1.00000E+00  1.18013E-01
       2    -1     0     0   502     0  0.000000000E+00  0.000000000E+00  1.794424049E+03  1.794424049E+03  0.000000000E+00  0.00000E+00  9.000E+00
      21    -1     0     0   501   502  0.000000000E+00  0.000000000E+00 -1.149812676E+02  1.149812676E+02  0.000000000E+00  0.00000E+00  9.000E+00
      25     1     1     2     0     0 -1.380369085E+02 -5.273920951E+01  2.991196255E+02  3.562768063E+02  1.250000000E+02  0.00000E+00  9.000E+00
      25     1     1     2     0     0  2.338356760E+02  1.502762920E+02  1.991533248E+02  3.640729791E+02  1.250000000E+02  0.00000E+00  9.000E+00
       2     1     1     2   501     0 -9.579876757E+01 -9.753708252E+01  1.181169831E+03  1.189055531E+03  0.000000000E+00  0.00000E+00  9.000E+00
#rwgt            1           1   3.1303855221595171E-002           6      142424           0
</event>
<event>
      5   9999  3.19816E-02  3.61583E+02 -1.00000E+00  1.03023E-01
      21    -1     0     0   502   501  0.000000000E+00  0.000000000E+00  2.526812945E+02  2.526812945E+02  0.000000000E+00  0.00000E+00  9.000E+00
       2    -1     0     0   501     0  0.000000000E+00  0.000000000E+00 -2.721589504E+03  2.721589504E+03  0.000000000E+00  0.00000E+00  9.000E+00
      25     1     1     2     0     0  7.547297857E-01 -3.377652403E+02 -6.654976283E+02  7.567020685E+02  1.250000000E+02  0.00000E+00  9.000E+00
      25     1     1     2     0     0 -3.383996427E+02  2.083899498E+02 -4.119981766E+01  4.186443769E+02  1.250000000E+02  0.00000E+00  9.000E+00
       2     1     1     2   502     0  3.376449129E+02  1.293752905E+02 -1.762210764E+03  1.798924353E+03  0.000000000E+00  0.00000E+00  9.000E+00
#rwgt            1           1   2.8861385249256813E-002           6      142486           0
</event>
<event>
      5   9999  3.19816E-02  1.01234E+02 -1.00000E+00  1.23589E-01
       2    -1     0     0   502     0  0.000000000E+00  0.000000000E+00  6.627835867E+02  6.627835867E+02  0.000000000E+00  0.00000E+00  9.000E+00
      21    -1     0     0   501   502  0.000000000E+00  0.000000000E+00 -1.895841728E+02  1.895841728E+02  0.000000000E+00  0.00000E+00  9.000E+00
      25     1     1     2     0     0 -1.353745127E+02  5.928334494E+00  3.610950922E+02  4.054331874E+02  1.250000000E+02  0.00000E+00  9.000E+00
      25     1     1     2     0     0  1.363550557E+02  9.530048683E+01  2.173527543E+02  3.009021499E+02  1.250000000E+02  0.00000E+00  9.000E+00
       2     1     1     2   501     0 -9.805430134E-01 -1.012288213E+02 -1.052484327E+02  1.460324222E+02  3.568322551E-06  0.00000E+00  9.000E+00
#rwgt            1           1   2.7658870052690528E-002           6      142550           0
</event>
<event>
      5   9999  3.19816E-02  1.26344E+02 -1.00000E+00  1.19426E-01
      21    -1     0     0   511   501  0.000000000E+00  0.000000000E+00  5.862086320E+02  5.862086320E+02  0.000000000E+00  0.00000E+00  9.000E+00
      21    -1     0     0   501   502  0.000000000E+00  0.000000000E+00 -8.856099912E+02  8.856099912E+02  0.000000000E+00  0.00000E+00  9.000E+00
      25     1     1     2     0     0  5.496496484E+02  1.653328212E+01  5.695772220E+01  5.667956135E+02  1.250000000E+02  0.00000E+00  9.000E+00
      25     1     1     2     0     0 -6.756312663E+02 -6.967694389E+00 -3.656007293E+02  7.783412170E+02  1.250000000E+02  0.00000E+00  9.000E+00
      21     1     1     2   511   502  1.259816180E+02 -9.565587735E+00  9.241647834E+00  1.266817926E+02  1.143415337E-06  0.00000E+00  9.000E+00
#rwgt            1           1   3.3918077562745202E-002           6      142633           0
</event>
<event>
      5   9999  3.19816E-02  7.50442E+01 -1.00000E+00  1.29708E-01
      21    -1     0     0   512   501  0.000000000E+00  0.000000000E+00  8.123212288E+01  8.123212288E+01  0.000000000E+00  0.00000E+00  9.000E+00
      21    -1     0     0   501   502  0.000000000E+00  0.000000000E+00 -1.016290222E+03  1.016290222E+03  0.000000000E+00  0.00000E+00  9.000E+00
      25     1     1     2     0     0  2.051725312E+02  9.490355175E+01 -3.867439439E+02  4.650788426E+02  1.250000000E+02  0.00000E+00  9.000E+00
      25     1     1     2     0     0 -1.346259533E+02 -1.204927765E+02 -4.913409676E+02  5.382226333E+02  1.250000000E+02  0.00000E+00  9.000E+00
      21     1     1     2   512   502 -7.054657787E+01  2.558922477E+01 -5.697318783E+01  9.422086926E+01  6.743495762E-07  0.00000E+00  9.000E+00
#rwgt            2          11   2.7783656218159729E-003           6      142726           0
</event>
<event>
      5   9999  3.19816E-02  2.07520E+01 -1.00000E+00  1.65057E-01
      21    -1     0     0   502   501  0.000000000E+00  0.000000000E+00  4.574763801E+02  4.574763801E+02  0.000000000E+00  0.00000E+00  9.000E+00
      21    -1     0     0   501   511  0.000000000E+00  0.000000000E+00 -1.694593421E+03  1.694593421E+03  0.000000000E+00  0.00000E+00  9.000E+00
      25     1     1     2     0     0  7.295026180E+02 -2.305400056E+02 -8.563518257E+02  1.155113074E+03  1.250000000E+02  0.00000E+00  9.000E+00
      25     1     1     2     0     0 -7.179185028E+02  2.133221644E+02 -1.609602006E+02  7.761742772E+02  1.250000000E+02  0.00000E+00  9.000E+00
      21     1     1     2   502   511 -1.158411528E+01  1.721784115E+01 -2.198050149E+02  2.207824503E+02  0.000000000E+00  0.00000E+00  9.000E+00
#rwgt            1           1   2.8791574429650968E-002           6      142746           0
</event>
<event>
      5   9999  3.19816E-02  7.10672E+02 -1.00000E+00  9.46993E-02
       2    -1     0     0   502     0  0.000000000E+00  0.000000000E+00  1.628724575E+03  1.628724575E+03  0.000000000E+00  0.00000E+00  9.000E+00
      21    -1     0     0   501   502  0.000000000E+00  0.000000000E+00 -5.007318191E+02  5.007318191E+02  0.000000000E+00  0.00000E+00  9.000E+00
      25     1     1     2     0     0  1.901508384E+02  2.169956021E+02  9.275149218E+01  3.278296386E+02  1.250000000E+02  0.00000E+00  9.000E+00
      25     1     1     2     0     0 -4.638012169E+02  4.388776422E+02  1.523602395E+02  6.682542901E+02  1.250000000E+02  0.00000E+00  9.000E+00
       2     1     1     2   501     0  2.736503785E+02 -6.558732443E+02  8.828810245E+02  1.133372466E+03  1.868812365E-05  0.00000E+00  9.000E+00
#rwgt            1           1   2.8641939205683253E-002           6      143018           0
</event>
<event>
      5   9999  3.19816E-02  5.55490E+01 -1.00000E+00  1.36517E-01
      21    -1     0     0   502   501  0.000000000E+00  0.000000000E+00  3.427675774E+02  3.427675774E+02  0.000000000E+00  0.00000E+00  9.000E+00
      21    -1     0     0   511   502  0.000000000E+00  0.000000000E+00 -5.727194935E+02  5.727194935E+02  0.000000000E+00  0.00000E+00  9.000E+00
      25     1     1     2     0     0  3.791506694E+01  9.696531854E+01 -2.060425658E+02  2.625230737E+02  1.250000000E+02  0.00000E+00  9.000E+00
      25     1     1     2     0     0 -4.535443148E+01 -4.191673066E+01  2.965687738E+02  3.277072999E+02  1.250000000E+02  0.00000E+00  9.000E+00
      21     1     1     2   511   501  7.439364542E+00 -5.504858788E+01 -3.204781241E+02  3.252566974E+02  5.394796609E-06  0.00000E+00  9.000E+00
#rwgt            1           1   2.6160194354916129E-002           6      143047           0
</event>
<event>
      5   9999  3.19816E-02  2.78159E+01 -1.00000E+00  1.55356E-01
      21    -1     0     0   502   512  0.000000000E+00  0.000000000E+00  7.296342693E+02  7.296342693E+02  0.000000000E+00  0.00000E+00  9.000E+00
      21    -1     0     0   501   502  0.000000000E+00  0.000000000E+00 -2.814510957E+02  2.814510957E+02  0.000000000E+00  0.00000E+00  9.000E+00
      25     1     1     2     0     0  2.797888203E+02 -7.640031865E+01  5.294547517E+02  6.164950338E+02  1.250000000E+02  0.00000E+00  9.000E+00
      25     1     1     2     0     0 -3.025902002E+02  9.233201115E+01 -1.071071445E+02  3.566272143E+02  1.250000000E+02  0.00000E+00  9.000E+00
      21     1     1     2   501   512  2.280137993E+01 -1.593169250E+01  2.583556640E+01  3.796311689E+01  7.539457465E-07  0.00000E+00  9.000E+00
#rwgt            1           1   3.1098636035521633E-002           6      143129           0
</event>
<event>
      5   9999  3.19816E-02  1.35792E+02 -1.00000E+00  1.18132E-01
      21    -1     0     0   502   501  0.000000000E+00  0.000000000E+00  8.973478556E+02  8.973478556E+02  0.000000000E+00  0.00000E+00  9.000E+00
      21    -1     0     0   501   511  0.000000000E+00  0.000000000E+00 -1.951673181E+02  1.951673181E+02  0.000000000E+00  0.00000E+00  9.000E+00
      25     1     1     2     0     0  5.223609998E+01  3.117027030E+02  7.956037260E+01  3.490587889E+02  1.250000000E+02  0.00000E+00  9.000E+00
      25     1     1     2     0     0 -8.589420897E+01 -1.801481027E+02  5.274554976E+02  5.776378242E+02  1.250000000E+02  0.00000E+00  9.000E+00
      21     1     1     2   502   511  3.365810899E+01 -1.315546003E+02  9.516466728E+01  1.658185607E+02  2.697398305E-06  0.00000E+00  9.000E+00
#rwgt            1           1   2.8597882140053137E-002           6      143369           0
</event>
<event>
      5   9999  3.19816E-02  8.55289E+01 -1.00000E+00  1.26960E-01
      21    -1     0     0   502   501  0.000000000E+00  0.000000000E+00  9.538764539E+01  9.538764539E+01  0.000000000E+00  0.00000E+00  9.000E+00
       1    -1     0     0   501     0  0.000000000E+00  0.000000000E+00 -1.744293472E+03  1.744293472E+03  0.000000000E+00  0.00000E+00  9.000E+00
      25     1     1     2     0     0 -1.482502261E+00  2.084749124E+02 -4.011872164E+02  4.690843949E+02  1.250000000E+02  0.00000E+00  9.000E+00
      25     1     1     2     0     0  8.427960027E+01 -1.870313535E+02 -1.818300426E+02  3.012821644E+02  1.250000000E+02  0.00000E+00  9.000E+00
       1     1     1     2   502     0 -8.279709801E+01 -2.144355886E+01 -1.065888568E+03  1.069314558E+03  0.000000000E+00  0.00000E+00  9.000E+00
#rwgt            1           1   2.8753841235765298E-002           6      143457           0
</event>
<event>
      5   9999  3.19816E-02  5.71163E+01 -1.00000E+00  1.35857E-01
      21    -1     0     0   502   501  0.000000000E+00  0.000000000E+00  5.572551541E+02  5.572551541E+02  0.000000000E+00  0.00000E+00  9.000E+00
      21    -1     0     0   511   502  0.000000000E+00  0.000000000E+00 -2.821808548E+02  2.821808548E+02  0.000000000E+00  0.00000E+00  9.000E+00
      25     1     1     2     0     0  1.256398344E+02  1.003909537E+02  4.851430438E+02  5.261677342E+02  1.250000000E+02  0.00000E+00  9.000E+00
      25     1     1     2     0     0 -1.129079407E+02 -4.471178781E+01 -1.451998691E+02  2.268377152E+02  1.250000000E+02  0.00000E+00  9.000E+00
      21     1     1     2   511   501 -1.273189372E+01 -5.567916590E+01 -6.486887543E+01  8.643055959E+01  9.536743164E-07  0.00000E+00  9.000E+00
#rwgt            1           1   2.7112423379458985E-002           6      143562           0
</event>
<event>
      5   9999  3.19816E-02  5.49159E+01 -1.00000E+00  1.36791E-01
      21    -1     0     0   512   501  0.000000000E+00  0.000000000E+00  1.211085864E+03  1.211085864E+03  0.000000000E+00  0.00000E+00  9.000E+00
      21    -1     0     0   501   502  0.000000000E+00  0.000000000E+00 -8.695183423E+01  8.695183423E+01  0.000000000E+00  0.00000E+00  9.000E+00
      25     1     1     2     0     0 -2.040561216E+02  1.349197339E+02  4.181092519E+02  5.002825020E+02  1.250000000E+02  0.00000E+00  9.000E+00
      25     1     1     2     0     0  2.159757516E+02 -1.885264050E+02  5.549702834E+02  6.370280576E+02  1.250000000E+02  0.00000E+00  9.000E+00
      21     1     1     2   512   502 -1.191963001E+01  5.360667115E+01  1.510544942E+02  1.607271383E+02  0.000000000E+00  0.00000E+00  9.000E+00
#rwgt            1           1   2.4185510415417617E-002           6      143644           0
</event>
<event>
      5   9999  3.19816E-02  2.20672E+01 -1.00000E+00  1.62920E-01
      21    -1     0     0   511   501  0.000000000E+00  0.000000000E+00  8.823762489E+02  8.823762489E+02  0.000000000E+00  0.00000E+00  9.000E+00
      21    -1     0     0   501   502  0.000000000E+00  0.000000000E+00 -3.240744726E+02  3.240744726E+02  0.000000000E+00  0.00000E+00  9.000E+00
      25     1     1     2     0     0 -1.000292779E+01 -4.349803511E+02  4.597874473E+02  6.452421725E+02  1.250000000E+02  0.00000E+00  9.000E+00
      25     1     1     2     0     0  5.545218254E+00  4.565925733E+02  1.375759140E+01  4.736262227E+02  1.250000000E+02  0.00000E+00  9.000E+00
      21     1     1     2   511   502  4.457709535E+00 -2.161222224E+01  8.475673762E+01  8.758232639E+01  9.536743164E-07  0.00000E+00  9.000E+00
#rwgt            1           1   2.8825541795498375E-002           6      143760           0
</event>
<event>
      5   9999  3.19816E-02  2.04986E+01 -1.00000E+00  1.65491E-01
       1    -1     0     0   502     0  0.000000000E+00  0.000000000E+00  2.057339982E+03  2.057339982E+03  0.000000000E+00  0.00000E+00  9.000E+00
      21    -1     0     0   501   502  0.000000000E+00  0.000000000E+00 -6.809079248E+01  6.809079248E+01  0.000000000E+00  0.00000E+00  9.000E+00
      25     1     1     2     0     0 -1.510404525E+02 -4.686550071E+01  1.588969174E+02  2.566764965E+02  1.250000000E+02  0.00000E+00  9.000E+00
      25     1     1     2     0     0  1.331418731E+02  5.685723666E+01  4.591194507E+02  4.973682476E+02  1.250000000E+02  0.00000E+00  9.000E+00
       1     1     1     2   501     0  1.789857945E+01 -9.991735944E+00  1.371232821E+03  1.371386030E+03  2.642899792E-05  0.00000E+00  9.000E+00
#rwgt            1           1   2.6737935726367994E-002           6      143998           0
</event>
<event>
      5   9999  3.19816E-02  7.09115E+01 -1.00000E+00  1.30937E-01
       2    -1     0     0   502     0  0.000000000E+00  0.000000000E+00  1.201058292E+03  1.201058292E+03  0.000000000E+00  0.00000E+00  9.000E+00
      21    -1     0     0   501   502  0.000000000E+00  0.000000000E+00 -9.939564373E+02  9.939564373E+02  0.000000000E+00  0.00000E+00  9.000E+00
      25     1     1     2     0     0  1.439346328E+02 -6.831113366E+02 -6.782415765E+02  9.813230420E+02  1.250000000E+02  0.00000E+00  9.000E+00
      25     1     1     2     0     0 -7.666859204E+01  7.055550239E+02  6.590719676E+02  9.765689035E+02  1.250000000E+02  0.00000E+00  9.000E+00
       2     1     1     2   501     0 -6.726604080E+01 -2.244368736E+01  2.262714634E+02  2.371227836E+02  2.697398305E-06  0.00000E+00  9.000E+00
#rwgt            1           1   3.5077632594195191E-002           6      144152           0
</event>
<event>
      5   9999  3.19816E-02  6.31031E+01 -1.00000E+00  1.33543E-01
      21    -1     0     0   502   511  0.000000000E+00  0.000000000E+00  1.819518151E+02  1.819518151E+02  0.000000000E+00  0.00000E+00  9.000E+00
      21    -1     0     0   501   502  0.000000000E+00  0.000000000E+00 -1.038977004E+03  1.038977004E+03  0.000000000E+00  0.00000E+00  9.000E+00
      25     1     1     2     0     0 -1.362845727E+02  9.882430060E-01 -1.139927505E+02  2.172413601E+02  1.250000000E+02  0.00000E+00  9.000E+00
      25     1     1     2     0     0  8.186560855E+01  3.095826803E+01 -8.585782306E+02  8.720332392E+02  1.250000000E+02  0.00000E+00  9.000E+00
      21     1     1     2   501   511  5.441896419E+01 -3.194651103E+01  1.155457927E+02  1.316542192E+02  1.907348633E-06  0.00000E+00  9.000E+00
#rwgt            1           1   2.7873262717466315E-002           6      144257           0
</event>
<event>
      5   9999  3.19816E-02  3.94775E+01 -1.00000E+00  1.45195E-01
      21    -1     0     0   502   501  0.000000000E+00  0.000000000E+00  6.488543813E+02  6.488543813E+02  0.000000000E+00  0.00000E+00  9.000E+00
      21    -1     0     0   501   512  0.000000000E+00  0.000000000E+00 -1.264634430E+02  1.264634430E+02  0.000000000E+00  0.00000E+00  9.000E+00
      25     1     1     2     0     0  8.880982992E+01 -3.156519868E+00 -6.414198636E+00  1.535033923E+02  1.250000000E+02  0.00000E+00  9.000E+00
      25     1     1     2     0     0 -4.944721618E+01  1.466947403E-01  5.572000486E+02  5.731857839E+02  1.250000000E+02  0.00000E+00  9.000E+00
      21     1     1     2   502   512 -3.936261374E+01  3.009825128E+00 -2.839491162E+01  4.862864808E+01  6.743495762E-07  0.00000E+00  9.000E+00
#rwgt            1           1   2.6956686343447379E-002           6      144349           0
</event>
<event>
      5   9999  3.19816E-02  1.34444E+01 -1.00000E+00  1.81984E-01
      21    -1     0     0   502   501  0.000000000E+00  0.000000000E+00  8.532864418E+02  8.532864418E+02  0.000000000E+00  0.00000E+00  9.000E+00
      21    -1     0     0   511   502  0.000000000E+00  0.000000000E+00 -4.919861872E+01  4.919861872E+01  0.000000000E+00  0.00000E+00  9.000E+00
      25     1     1     2     0     0  1.246585292E+02 -8.029212312E+01  4.170623850E+02  4.599484829E+02  1.250000000E+02  0.00000E+00  9.000E+00
      25     1     1     2     0     0 -1.374744738E+02  7.622984335E+01  3.680617080E+02  4.192906401E+02  1.250000000E+02  0.00000E+00  9.000E+00
      21     1     1     2   511   501  1.281594462E+01  4.062279770E+00  1.896373007E+01  2.324593753E+01  3.371747881E-07  0.00000E+00  9.000E+00
#rwgt            1           1   2.9102039946823977E-002           6      144415           0
</event>
<event>
      5   9999  3.19816E-02  4.41654E+01 -1.00000E+00  1.42222E-01
       2    -1     0     0   502     0  0.000000000E+00  0.000000000E+00  1.510023203E+03  1.510023203E+03  0.000000000E+00  0.00000E+00  9.000E+00
      21    -1     0     0   501   502  0.000000000E+00  0.000000000E+00 -1.277521563E+02  1.277521563E+02  0.000000000E+00  0.00000E+00  9.000E+00
      25     1     1     2     0     0  2.526681826E+01  3.006172345E+01  6.684672323E+02  6.811868759E+02  1.250000000E+02  0.00000E+00  9.000E+00
      25     1     1     2     0     0 -1.964518229E+00  7.456069754E+00 -8.832123646E+01  1.532484686E+02  1.250000000E+02  0.00000E+00  9.000E+00
       2     1     1     2   501     0 -2.330230004E+01 -3.751779321E+01  8.021250512E+02  8.033400151E+02  1.078959322E-05  0.00000E+00  9.000E+00
#rwgt            2          18   5.7150683449948899E-004           6      144618           0
</event>
<event>
      5   9999  3.19816E-02  1.12365E+02 -1.00000E+00  1.21593E-01
      21    -1     0     0   502   511  0.000000000E+00  0.000000000E+00  2.636158307E+02  2.636158307E+02  0.000000000E+00  0.00000E+00  9.000E+00
      21    -1     0     0   501   502  0.000000000E+00  0.000000000E+00 -6.358123933E+02  6.358123933E+02  0.000000000E+00  0.00000E+00  9.000E+00
      25     1     1     2     0     0  7.962373986E+01  6.106582932E+01  1.587222019E+02  2.255808344E+02  1.250000000E+02  0.00000E+00  9.000E+00
      25     1     1     2     0     0 -1.907592137E+02 -7.764001601E+01 -5.035231277E+02  5.581913560E+02  1.250000000E+02  0.00000E+00  9.000E+00
      21     1     1     2   501   511  1.111354739E+02  1.657418669E+01 -2.739563669E+01  1.156560337E+02  1.390207266E-06  0.00000E+00  9.000E+00
#rwgt            2          11   3.9086138254574828E-003           6      144652           0
</event>
<event>
      5   9999  3.19816E-02  9.03072E+01 -1.00000E+00  1.25853E-01
      21    -1     0     0   502   501  0.000000000E+00  0.000000000E+00  5.109146936E+02  5.109146936E+02  0.000000000E+00  0.00000E+00  9.000E+00
      21    -1     0     0   501   512  0.000000000E+00  0.000000000E+00 -1.412425636E+03  1.412425636E+03  0.000000000E+00  0.00000E+00  9.000E+00
      25     1     1     2     0     0  2.256252238E+02  9.794009107E+01 -3.970500849E+02  4.835005408E+02  1.250000000E+02  0.00000E+00  9.000E+00
      25     1     1     2     0     0 -1.572970129E+02 -3.889229344E+01  4.430526762E+02  4.880324115E+02  1.250000000E+02  0.00000E+00  9.000E+00
      21     1     1     2   502   512 -6.832821087E+01 -5.904779763E+01 -9.475135333E+02  9.518073768E+02  0.000000000E+00  0.00000E+00  9.000E+00
#rwgt            1           1   2.4799385293718054E-002           6      144702           0
</event>
<event>
      5   9999  3.19816E-02  7.44578E+01 -1.00000E+00  1.29877E-01
      21    -1     0     0   502   501  0.000000000E+00  0.000000000E+00  7.562761472E+02  7.562761472E+02  0.000000000E+00  0.00000E+00  9.000E+00
      21    -1     0     0   501   511  0.000000000E+00  0.000000000E+00 -1.011934609E+03  1.011934609E+03  0.000000000E+00  0.00000E+00  9.000E+00
      25     1     1     2     0     0 -2.775208274E+02 -2.738976835E+02  2.411780486E+02  4.752153215E+02  1.250000000E+02  0.00000E+00  9.000E+00
      25     1     1     2     0     0  2.036715247E+02  2.643977260E+02  3.162698848E+02  4.764870277E+02  1.250000000E+02  0.00000E+00  9.000E+00
      21     1     1     2   502   511  7.384930270E+01  9.499957419E+00 -8.131063954E+02  8.165084071E+02  1.525878906E-05  0.00000E+00  9.000E+00
#rwgt            1           1   2.6938155684762627E-002           6      144803           0
</event>
<event>
      5   9999  3.19816E-02  3.13542E+02 -1.00000E+00  1.04973E-01
      -4    -1     0     0     0   501  0.000000000E+00  0.000000000E+00  4.903810783E+02  4.903810783E+02  0.000000000E+00  0.00000E+00  9.000E+00
      21    -1     0     0   501   502  0.000000000E+00  0.000000000E+00 -5.756879223E+02  5.756879223E+02  0.000000000E+00  0.00000E+00  9.000E+00
      25     1     1     2     0     0 -1.406269191E+01  1.838038459E+02 -1.779876127E+02  2.851073541E+02  1.250000000E+02  0.00000E+00  9.000E+00
      25     1     1     2     0     0  2.285568105E+02  4.489035584E+01 -2.156992075E+02  3.411810484E+02  1.250000000E+02  0.00000E+00  9.000E+00
      -4     1     1     2     0   502 -2.144941185E+02 -2.286942018E+02  3.083799762E+02  4.397805982E+02  0.000000000E+00  0.00000E+00  9.000E+00
#rwgt            2           2   1.0112951956729537E-004           6      144924           0
</event>
<event>
      5   9999  3.19816E-02  1.30444E+02 -1.00000E+00  1.18850E-01
      21    -1     0     0   511   501  0.000000000E+00  0.000000000E+00  1.181719619E+03  1.181719619E+03  0.000000000E+00  0.00000E+00  9.000E+00
      21    -1     0     0   501   502  0.000000000E+00  0.000000000E+00 -3.453020844E+02  3.453020844E+02  0.000000000E+00  0.00000E+00  9.000E+00
      25     1     1     2     0     0 -2.329236889E+02 -4.207292757E+02  2.018711954E+02  5.363241071E+02  1.250000000E+02  0.00000E+00  9.000E+00
      25     1     1     2     0     0  1.668760364E+02  5.332158131E+02  3.334415157E+02  6.625518540E+02  1.250000000E+02  0.00000E+00  9.000E+00
      21     1     1     2   511   502  6.604765249E+01 -1.124865374E+02  3.011048233E+02  3.281457422E+02  3.814697266E-06  0.00000E+00  9.000E+00
#rwgt            1           1   2.3352907561016992E-002           6      144958           0
</event>
<event>
      5   9999  3.19816E-02  2.61680E+02 -1.00000E+00  1.07557E-01
       2    -1     0     0   502     0  0.000000000E+00  0.000000000E+00  5.877774656E+02  5.877774656E+02  0.000000000E+00  0.00000E+00  9.000E+00
      21    -1     0     0   501   502  0.000000000E+00  0.000000000E+00 -6.504884623E+02  6.504884623E+02  0.000000000E+00  0.00000E+00  9.000E+00
      25     1     1     2     0     0 -1.329206054E+02 -1.125977500E+02 -4.236958334E+02  4.748571363E+02  1.250000000E+02  0.00000E+00  9.000E+00
      25     1     1     2     0     0  3.529561899E+02 -2.903774649E+01  3.299166215E+02  4.998912280E+02  1.250000000E+02  0.00000E+00  9.000E+00
       2     1     1     2   501     0 -2.200355845E+02  1.416354965E+02  3.106821517E+01  2.635175635E+02  2.697398305E-06  0.00000E+00  9.000E+00
#rwgt            2          18   2.6466246970685049E-004           6      145100           0
</event>
<event>
      5   9999  3.19816E-02  8.27996E+00 -1.00000E+00  2.05736E-01
      21    -1     0     0   511   501  0.000000000E+00  0.000000000E+00  4.407391664E+01  4.407391664E+01  0.000000000E+00  0.00000E+00  9.000E+00
      21    -1     0     0   501   502  0.000000000E+00  0.000000000E+00 -1.709109821E+03  1.709109821E+03  0.000000000E+00  0.00000E+00  9.000E+00
      25     1     1     2     0     0  8.839699736E+01  8.347204273E+01 -2.728160243E+02  3.237826342E+02  1.250000000E+02  0.00000E+00  9.000E+00
      25     1     1     2     0     0 -9.629448957E+01 -8.098460735E+01 -1.403913883E+03  1.415072551E+03  1.250000000E+02  0.00000E+00  9.000E+00
      21     1     1     2   511   502  7.897492212E+00 -2.487435379E+00  1.169400250E+01  1.432855235E+01  6.307962682E-07  0.00000E+00  9.000E+00
#rwgt            1           1   2.5300085923848387E-002           6      145119           0
</event>
<event>
      5   9999  3.19816E-02  2.00973E+01 -1.00000E+00  1.66195E-01
      21    -1     0     0   502   501  0.000000000E+00  0.000000000E+00  4.582908237E+02  4.582908237E+02  0.000000000E+00  0.00000E+00  9.000E+00
      21    -1     0     0   512   502  0.000000000E+00  0.000000000E+00 -8.632092510E+02  8.632092510E+02  0.000000000E+00  0.00000E+00  9.000E+00
      25     1     1     2     0     0  5.107432055E+02  1.119060311E+02 -1.227715355E+02  5.514339776E+02  1.250000000E+02  0.00000E+00  9.000E+00
      25     1     1     2     0     0 -5.303739041E+02 -1.076004659E+02 -7.328676405E+01  5.602412768E+02  1.250000000E+02  0.00000E+00  9.000E+00
      21     1     1     2   512   501  1.963069869E+01 -4.305565257E+00 -2.088601278E+02  2.098248202E+02  0.000000000E+00  0.00000E+00  9.000E+00
#rwgt            1           1   2.6470560038518741E-002           6      145355           0
</event>
<event>
      5   9999  3.19816E-02  6.35397E+02 -1.00000E+00  9.59826E-02
      21    -1     0     0   502   501  0.000000000E+00  0.000000000E+00  1.975458966E+03  1.975458966E+03  0.000000000E+00  0.00000E+00  9.000E+00
       1    -1     0     0   501     0  0.000000000E+00  0.000000000E+00 -1.179211454E+03  1.179211454E+03  0.000000000E+00  0.00000E+00  9.000E+00
      25     1     1     2     0     0  7.656558841E+02  1.471241725E+01  1.394325322E+03  1.595685900E+03  1.250000000E+02  0.00000E+00  9.000E+00
      25     1     1     2     0     0 -5.037520106E+02 -5.936212711E+02 -4.449180371E+02  9.053890664E+02  1.250000000E+02  0.00000E+00  9.000E+00
       1     1     1     2   502     0 -2.619038734E+02  5.789088539E+02 -1.531597738E+02  6.535954531E+02  7.387129490E-06  0.00000E+00  9.000E+00
#rwgt            2          12   3.0575768164405233E-004           6      145616           0
</event>
<event>
      5   9999  3.19816E-02  3.23733E+02 -1.00000E+00  1.04529E-01
      21    -1     0     0   502   501  0.000000000E+00  0.000000000E+00  3.462230879E+02  3.462230879E+02  0.000000000E+00  0.00000E+00  9.000E+00
      21    -1     0     0   501   511  0.000000000E+00  0.000000000E+00 -7.838613383E+02  7.838613383E+02  0.000000000E+00  0.00000E+00  9.000E+00
      25     1     1     2     0     0 -3.717609497E+01 -3.494403972E+02 -1.740481322E+02  4.115925237E+02  1.250000000E+02  0.00000E+00  9.000E+00
      25     1     1     2     0     0  2.050082967E+02  7.260926304E+01  6.299976750E+01  2.586396673E+02  1.250000000E+02  0.00000E+00  9.000E+00
      21     1     1     2   502   511 -1.678322018E+02  2.768311342E+02 -3.265898856E+02  4.598522352E+02  7.629394531E-06  0.00000E+00  9.000E+00
#rwgt            2          11   2.8461787993612595E-003           6      145635           0
</event>
<event>
      5   9999  3.19816E-02  1.23161E+02 -1.00000E+00  1.19891E-01
      21    -1     0     0   502   501  0.000000000E+00  0.000000000E+00  3.006990118E+02  3.006990118E+02  0.000000000E+00  0.00000E+00  9.000E+00
      21    -1     0     0   512   502  0.000000000E+00  0.000000000E+00 -4.913557112E+02  4.913557112E+02  0.000000000E+00  0.00000E+00  9.000E+00
      25     1     1     2     0     0 -1.086102603E+02  2.038567426E+02 -2.012402194E+02  3.308721597E+02  1.250000000E+02  0.00000E+00  9.000E+00
      25     1     1     2     0     0  2.147114715E+02 -1.413167137E+02  1.065574684E+02  3.050424948E+02  1.250000000E+02  0.00000E+00  9.000E+00
      21     1     1     2   512   501 -1.061012112E+02 -6.254002890E+01 -9.597394829E+01  1.561400685E+02  0.000000000E+00  0.00000E+00  9.000E+00
#rwgt            1           1   2.1714676757208354E-002           6      145655           0
</event>
<event>
      5   9999  3.19816E-02  7.48907E+01 -1.00000E+00  1.29752E-01
      21    -1     0     0   502   501  0.000000000E+00  0.000000000E+00  1.658411724E+02  1.658411724E+02  0.000000000E+00  0.00000E+00  9.000E+00
      21    -1     0     0   501   511  0.000000000E+00  0.000000000E+00 -1.008637461E+03  1.008637461E+03  0.000000000E+00  0.00000E+00  9.000E+00
      25     1     1     2     0     0 -1.531711284E+02 -3.149611302E+02 -2.167502177E+02  4.304271890E+02  1.250000000E+02  0.00000E+00  9.000E+00
      25     1     1     2     0     0  9.556420271E+01  2.671065849E+02 -4.009110556E+02  5.067870549E+02  1.250000000E+02  0.00000E+00  9.000E+00
      21     1     1     2   502   511  5.760692565E+01  4.785454534E+01 -2.251350151E+02  2.372643893E+02  2.697398305E-06  0.00000E+00  9.000E+00
#rwgt            1           1   2.9007680048443073E-002           6      145705           0
</event>
<event>
      5   9999  3.19816E-02  5.94951E+01 -1.00000E+00  1.34900E-01
      21    -1     0     0   502   501  0.000000000E+00  0.000000000E+00  2.238098499E+02  2.238098499E+02  0.000000000E+00  0.00000E+00  9.000E+00
      21    -1     0     0   512   502  0.000000000E+00  0.000000000E+00 -4.666982032E+02  4.666982032E+02  0.000000000E+00  0.00000E+00  9.000E+00
      25     1     1     2     0     0 -1.063225332E+02  2.072391938E+02 -5.226810537E+01  2.694615360E+02  1.250000000E+02  0.00000E+00  9.000E+00
      25     1     1     2     0     0  1.499529837E+02 -2.476872493E+02 -1.517810972E+02  3.499962460E+02  1.250000000E+02  0.00000E+00  9.000E+00
      21     1     1     2   512   501 -4.363045046E+01  4.044805546E+01 -3.883915071E+01  7.105027112E+01  1.261592536E-06  0.00000E+00  9.000E+00
#rwgt            2          11   3.0346046931856441E-003           6      145878           0
</event>
<event>
      5   9999  3.19816E-02  4.66928E+01 -1.00000E+00  1.40793E-01
      21    -1     0     0   502   501  0.000000000E+00  0.000000000E+00  4.590663661E+02  4.590663661E+02  0.000000000E+00  0.00000E+00  9.000E+00
      21    -1     0     0   511   502  0.000000000E+00  0.000000000E+00 -2.256250476E+02  2.256250476E+02  0.000000000E+00  0.00000E+00  9.000E+00
      25     1     1     2     0     0 -2.842542614E+01 -8.095951805E+01  3.757493816E+02  4.051851999E+02  1.250000000E+02  0.00000E+00  9.000E+00
      25     1     1     2     0     0  6.816671654E+00  1.223512481E+02 -1.519858852E+02  2.318210608E+02  1.250000000E+02  0.00000E+00  9.000E+00
      21     1     1     2   511   501  2.160875449E+01 -4.139173005E+01  9.677822041E+00  4.768515311E+01  6.307962682E-07  0.00000E+00  9.000E+00
#rwgt            1           1   2.6835913395372800E-002           6      145913           0
</event>
<event>
      5   9999  3.19816E-02  8.41635E+01 -1.00000E+00  1.27292E-01
      21    -1     0     0   502   512  0.000000000E+00  0.000000000E+00  8.708211245E+02  8.708211245E+02  0.000000000E+00  0.00000E+00  9.000E+00
      21    -1     0     0   501   502  0.000000000E+00  0.000000000E+00 -1.227098343E+02  1.227098343E+02  0.000000000E+00  0.00000E+00  9.000E+00
      25     1     1     2     0     0 -7.593469969E+01  1.015436293E+02 -2.304607425E+01  1.795363718E+02  1.250000000E+02  0.00000E+00  9.000E+00
      25     1     1     2     0     0  4.847713080E+01 -2.198496891E+01  2.364421676E+02  2.726962957E+02  1.250000000E+02  0.00000E+00  9.000E+00
      21     1     1     2   501   512  2.745756889E+01 -7.955866036E+01  5.347151968E+02  5.412982914E+02  7.629394531E-06  0.00000E+00  9.000E+00
#rwgt            1           1   2.8608094444355896E-002           6      145999           0
</event>
<event>
      5   9999  3.19816E-02  4.32747E+01 -1.00000E+00  1.42752E-01
      21    -1     0     0   502   501  0.000000000E+00  0.000000000E+00  1.087693161E+03  1.087693161E+03  0.000000000E+00  0.00000E+00  9.000E+00
      21    -1     0     0   501   511  0.000000000E+00  0.000000000E+00 -5.998913108E+02  5.998913108E+02  0.000000000E+00  0.00000E+00  9.000E+00
      25     1     1     2     0     0 -1.887498908E+02 -1.804690848E+02  9.804532859E+02  1.022305853E+03  1.250000000E+02  0.00000E+00  9.000E+00
      25     1     1     2     0     0  2.056587723E+02  1.406345151E+02 -1.436086881E+02  3.135634749E+02  1.250000000E+02  0.00000E+00  9.000E+00
      21     1     1     2   502   511 -1.690888151E+01  3.983456973E+01 -3.490427472E+02  3.517151441E+02  3.814697266E-06  0.00000E+00  9.000E+00
#rwgt            1           1   2.9728606928522815E-002           6      146059           0
</event>
<event>
      5   9999  3.19816E-02  7.05727E+01 -1.00000E+00  1.31042E-01
      21    -1     0     0   502   501  0.000000000E+00  0.000000000E+00  4.921245269E+02  4.921245269E+02  0.000000000E+00  0.00000E+00  9.000E+00
      21    -1     0     0   501   512  0.000000000E+00  0.000000000E+00 -2.672123765E+02  2.672123765E+02  0.000000000E+00  0.00000E+00  9.000E+00
      25     1     1     2     0     0 -4.780344992E+01 -6.629637066E+01  4.415584240E+02  4.661321919E+02  1.250000000E+02  0.00000E+00  9.000E+00
      25     1     1     2     0     0  1.168276422E+01  5.667965674E+00 -1.220633846E+02  1.751944139E+02  1.250000000E+02  0.00000E+00  9.000E+00
      21     1     1     2   502   512  3.612068570E+01  6.062840498E+01 -9.458288897E+01  1.180102975E+02  1.348699152E-06  0.00000E+00  9.000E+00
#rwgt            1           1   2.9323047466599174E-002           6      146179           0
</event>
<event>
      5   9999  3.19816E-02  1.19228E+01 -1.00000E+00  1.87323E-01
      21    -1     0     0   502   501  0.000000000E+00  0.000000000E+00  3.840961152E+02  3.840961152E+02  0.000000000E+00  0.00000E+00  9.000E+00
      21    -1     0     0   501   511  0.000000000E+00  0.000000000E+00 -3.449445921E+02  3.449445921E+02  0.000000000E+00  0.00000E+00  9.000E+00
      25     1     1     2     0     0  2.776209568E+02 -1.414522086E+02 -9.855445708E+01  3.498858442E+02  1.250000000E+02  0.00000E+00  9.000E+00
      25     1     1     2     0     0 -2.711320700E+02  1.314498531E+02  1.525442315E+02  3.601199880E+02  1.250000000E+02  0.00000E+00  9.000E+00
      21     1     1     2   502   511 -6.488886856E+00  1.000235551E+01 -1.483825128E+01  1.903487509E+01  2.384185791E-07  0.00000E+00  9.000E+00
#rwgt            1           1   2.8195102702015702E-002           6      146244           0
</event>
<event>
      5   9999  3.19816E-02  3.14120E+02 -1.00000E+00  1.04947E-01
      21    -1     0     0   502   512  0.000000000E+00  0.000000000E+00  1.914010802E+03  1.914010802E+03  0.000000000E+00  0.00000E+00  9.000E+00
      21    -1     0     0   501   502  0.000000000E+00  0.000000000E+00 -2.398165686E+03  2.398165686E+03  0.000000000E+00  0.00000E+00  9.000E+00
      25     1     1     2     0     0 -1.674591164E+03  5.133871192E+02  3.328943466E+02  1.787250835E+03  1.250000000E+02  0.00000E+00  9.000E+00
      25     1     1     2     0     0  1.903118929E+03 -7.289012415E+02 -8.446958296E+02  2.209591528E+03  1.250000000E+02  0.00000E+00  9.000E+00
      21     1     1     2   501   512 -2.285277649E+02  2.155141223E+02  2.764659818E+01  3.153341254E+02  6.087849300E-06  0.00000E+00  9.000E+00
#rwgt            2          11   1.2165382842490861E-002           6      146591           0
</event>
<event>
      5   9999  3.19816E-02  8.17561E+01 -1.00000E+00  1.27895E-01
      21    -1     0     0   502   501  0.000000000E+00  0.000000000E+00  3.172554110E+03  3.172554110E+03  0.000000000E+00  0.00000E+00  9.000E+00
      21    -1     0     0   511   502  0.000000000E+00  0.000000000E+00 -1.088964554E+02  1.088964554E+02  0.000000000E+00  0.00000E+00  9.000E+00
      25     1     1     2     0     0  9.447698425E+01  1.087899873E+02  3.179727881E+01  1.933836312E+02  1.250000000E+02  0.00000E+00  9.000E+00
      25     1     1     2     0     0 -3.335233168E+01 -5.449594227E+01  2.995165332E+03  2.998453360E+03  1.250000000E+02  0.00000E+00  9.000E+00
      21     1     1     2   511   501 -6.112465257E+01 -5.429404499E+01  3.669504388E+01  8.961357441E+01  1.966049969E-06  0.00000E+00  9.000E+00
#rwgt            1           1   4.3776926839341257E-002           6      146656           0
</event>
<event>
      5   9999  3.19816E-02  9.25390E+01 -1.00000E+00  1.25362E-01
      21    -1     0     0   512   501  0.000000000E+00  0.000000000E+00  2.179358832E+02  2.179358832E+02  0.000000000E+00  0.00000E+00  9.000E+00
      21    -1     0     0   501   502  0.000000000E+00  0.000000000E+00 -1.554429281E+03  1.554429281E+03  0.000000000E+00  0.00000E+00  9.000E+00
      25     1     1     2     0     0  1.976036537E+02 -7.717457816E+01  9.212250444E+01  2.628967008E+02  1.250000000E+02  0.00000E+00  9.000E+00
      25     1     1     2     0     0 -2.869228190E+02  1.013726270E+02 -1.345331790E+03  1.384970663E+03  1.250000000E+02  0.00000E+00  9.000E+00
      21     1     1     2   512   502  8.931916528E+01 -2.419804883E+01 -8.328411268E+01  1.244978003E+02  2.523185073E-06  0.00000E+00  9.000E+00
#rwgt            1           1   3.4417617038290563E-002           6      146792           0
</event>
<event>
      5   9999  3.19816E-02  3.71208E+01 -1.00000E+00  1.46881E-01
      21    -1     0     0   511   501  0.000000000E+00  0.000000000E+00  1.511293276E+02  1.511293276E+02  0.000000000E+00  0.00000E+00  9.000E+00
      21    -1     0     0   501   502  0.000000000E+00  0.000000000E+00 -5.963303407E+02  5.963303407E+02  0.000000000E+00  0.00000E+00  9.000E+00
      25     1     1     2     0     0  1.548415180E+02  1.204846812E+02 -1.821313365E+02  2.954475890E+02  1.250000000E+02  0.00000E+00  9.000E+00
      25     1     1     2     0     0 -1.868653411E+02 -1.392577432E+02 -2.998139493E+02  3.997809136E+02  1.250000000E+02  0.00000E+00  9.000E+00
      21     1     1     2   511   502  3.202382309E+01  1.877306203E+01  3.674427261E+01  5.223116572E+01  1.066240300E-06  0.00000E+00  9.000E+00
#rwgt            1           1   3.0300488202091667E-002           6      146894           0
</event>
<event>
      5   9999  3.19816E-02  9.84169E+01 -1.00000E+00  1.24140E-01
       1    -1     0     0   502     0  0.000000000E+00  0.000000000E+00  9.327738967E+02  9.327738967E+02  0.000000000E+00  0.00000E+00  9.000E+00
      21    -1     0     0   501   502  0.000000000E+00  0.000000000E+00 -1.342784978E+02  1.342784978E+02  0.000000000E+00  0.00000E+00  9.000E+00
      25     1     1     2     0     0 -1.174017833E+01  6.110944021E+01  4.995690999E+02  5.187161854E+02  1.250000000E+02  0.00000E+00  9.000E+00
      25     1     1     2     0     0  1.499659706E+01  3.725361739E+01 -8.207068678E+01  1.548332250E+02  1.250000000E+02  0.00000E+00  9.000E+00
       1     1     1     2   501     0 -3.256418725E+00 -9.836305760E+01  3.809969858E+02  3.935029841E+02  0.000000000E+00  0.00000E+00  9.000E+00
#rwgt            1           1   3.3656337389369080E-002           6      147016           0
</event>
<event>
      5   9999  3.19816E-02  4.20611E+01 -1.00000E+00  1.43500E-01
      -1    -1     0     0     0   501  0.000000000E+00  0.000000000E+00  5.733914996E+02  5.733914996E+02  0.000000000E+00  0.00000E+00  9.000E+00
      21    -1     0     0   501   502  0.000000000E+00  0.000000000E+00 -3.225689912E+02  3.225689912E+02  0.000000000E+00  0.00000E+00  9.000E+00
      25     1     1     2     0     0 -1.604093296E+01 -1.127591464E+02 -2.201371270E+02  2.775919511E+02  1.250000000E+02  0.00000E+00  9.000E+00
      25     1     1     2     0     0 -1.652914599E+01  1.393734978E+02  4.887806377E+01  1.941964203E+02  1.250000000E+02  0.00000E+00  9.000E+00
      -1     1     1     2     0   502  3.257007895E+01 -2.661435139E+01  4.220815717E+02  4.241721194E+02  0.000000000E+00  0.00000E+00  9.000E+00
#rwgt            1           1   2.6565019253844181E-002           6      147099           0
</event>
<event>
      5   9999  3.19816E-02  3.13221E+01 -1.00000E+00  1.51750E-01
      21    -1     0     0   502   501  0.000000000E+00  0.000000000E+00  8.917422860E+02  8.917422860E+02  0.000000000E+00  0.00000E+00  9.000E+00
      21    -1     0     0   501   511  0.000000000E+00  0.000000000E+00 -1.037080969E+02  1.037080969E+02  0.000000000E+00  0.00000E+00  9.000E+00
      25     1     1     2     0     0  4.547244148E+01 -1.249356404E+02  4.723296179E+01  1.885009545E+02  1.250000000E+02  0.00000E+00  9.000E+00
      25     1     1     2     0     0 -5.249332754E+01  9.441058065E+01  7.547803036E+02  7.726494767E+02  1.250000000E+02  0.00000E+00  9.000E+00
      21     1     1     2   502   511  7.020886054E+00  3.052505971E+01 -1.397907636E+01  3.429995170E+01  7.152557373E-07  0.00000E+00  9.000E+00
#rwgt            1           1   2.9051811829564622E-002           6      147191           0
</event>
<event>
      5   9999  3.19816E-02  4.61792E+01 -1.00000E+00  1.41074E-01
      21    -1     0     0   502   501  0.000000000E+00  0.000000000E+00  7.904285134E+01  7.904285134E+01  0.000000000E+00  0.00000E+00  9.000E+00
       2    -1     0     0   501     0  0.000000000E+00  0.000000000E+00 -1.551268084E+03  1.551268084E+03  0.000000000E+00  0.00000E+00  9.000E+00
      25     1     1     2     0     0  1.557478447E+02  7.080901229E+01 -1.484362850E+02  2.587076304E+02  1.250000000E+02  0.00000E+00  9.000E+00
      25     1     1     2     0     0 -1.610678549E+02 -2.493726131E+01 -4.291412370E+02  4.757645659E+02  1.250000000E+02  0.00000E+00  9.000E+00
       2     1     1     2   502     0  5.320010176E+00 -4.587175098E+01 -8.946477106E+02  8.958387389E+02  0.000000000E+00  0.00000E+00  9.000E+00
#rwgt            1           1   2.5921707849076887E-002           6      147289           0
</event>
<event>
      5   9999  3.19816E-02  6.73842E+01 -1.00000E+00  1.32064E-01
      21    -1     0     0   502   501  0.000000000E+00  0.000000000E+00  5.118960369E+02  5.118960369E+02  0.000000000E+00  0.00000E+00  9.000E+00
      21    -1     0     0   511   502  0.000000000E+00  0.000000000E+00 -9.680842265E+01  9.680842265E+01  0.000000000E+00  0.00000E+00  9.000E+00
      25     1     1     2     0     0 -4.913141511E+01 -2.943556865E+01  3.319270339E+02  3.592783106E+02  1.250000000E+02  0.00000E+00  9.000E+00
      25     1     1     2     0     0  4.249245889E+01  9.649193756E+01  7.979603303E+01  1.819579896E+02  1.250000000E+02  0.00000E+00  9.000E+00
      21     1     1     2   511   501  6.638956220E+00 -6.705636890E+01  3.364547315E+00  6.746815937E+01  1.168767902E-06  0.00000E+00  9.000E+00
#rwgt            1           1   2.7056711223474594E-002           6      147396           0
</event>
<event>
      5   9999  3.19816E-02  4.10921E+01 -1.00000E+00  1.44118E-01
      21    -1     0     0   502   501  0.000000000E+00  0.000000000E+00  6.646952626E+01  6.646952626E+01  0.000000000E+00  0.00000E+00  9.000E+00
      21    -1     0     0   512   502  0.000000000E+00  0.000000000E+00 -1.238947043E+03  1.238947043E+03  0.000000000E+00  0.00000E+00  9.000E+00
      25     1     1     2     0     0  2.181102657E+02 -1.498764907E+00 -2.813951662E+02  3.773361550E+02  1.250000000E+02  0.00000E+00  9.000E+00
      25     1     1     2     0     0 -1.770794896E+02  3.743521635E+00 -7.081374664E+02  7.405773632E+02  1.250000000E+02  0.00000E+00  9.000E+00
      21     1     1     2   512   501 -4.103077614E+01 -2.244756728E+00 -1.829448842E+02  1.875030511E+02  0.000000000E+00  0.00000E+00  9.000E+00
#rwgt            1           1   3.3836261700696764E-002           6      147464           0
</event>
<event>
      5   9999  3.19816E-02  2.36653E+01 -1.00000E+00  1.60557E-01
      -2    -1     0     0     0   501  0.000000000E+00  0.000000000E+00  1.122057068E+03  1.122057068E+03  0.000000000E+00  0.00000E+00  9.000E+00
      21    -1     0     0   501   502  0.000000000E+00  0.000000000E+00 -1.188769997E+02  1.188769997E+02  0.000000000E+00  0.00000E+00  9.000E+00
      25     1     1     2     0     0 -3.300831992E+01  1.649467620E+02  2.774588519E+02  3.477145352E+02  1.250000000E+02  0.00000E+00  9.000E+00
      25     1     1     2     0     0  5.335441895E+01 -1.770332339E+02  6.553563603E+01  2.326099300E+02  1.250000000E+02  0.00000E+00  9.000E+00
      -2     1     1     2     0   502 -2.034609902E+01  1.208647189E+01  6.601855803E+02  6.606096026E+02  7.629394531E-06  0.00000E+00  9.000E+00
#rwgt            1           1   3.1233068691284494E-002           6      147561           0
</event>
<event>
      5   9999  3.19816E-02  3.90801E+01 -1.00000E+00  1.45470E-01
      21    -1     0     0   502   501  0.000000000E+00  0.000000000E+00  6.899699270E+02  6.899699270E+02  0.000000000E+00  0.00000E+00  9.000E+00
      21    -1     0     0   511   502  0.000000000E+00  0.000000000E+00 -3.142798235E+02  3.142798235E+02  0.000000000E+00  0.00000E+00  9.000E+00
      25     1     1     2     0     0 -1.985559917E+02  1.054472171E+02  5.140248765E+02  5.747957647E+02  1.250000000E+02  0.00000E+00  9.000E+00
      25     1     1     2     0     0  2.219364133E+02 -1.367618999E+02 -3.564541535E+00  2.891319678E+02  1.250000000E+02  0.00000E+00  9.000E+00
      21     1     1     2   511   501 -2.338042167E+01  3.131468281E+01 -1.347702315E+02  1.403220181E+02  1.907348633E-06  0.00000E+00  9.000E+00
#rwgt            1           1   2.8003780991546091E-002           6      147682           0
</event>
<event>
      5   9999  3.19816E-02  5.28934E+01 -1.00000E+00  1.37696E-01
      21    -1     0     0   502   512  0.000000000E+00  0.000000000E+00  1.733389259E+03  1.733389259E+03  0.000000000E+00  0.00000E+00  9.000E+00
      21    -1     0     0   501   502  0.000000000E+00  0.000000000E+00 -9.530710401E+02  9.530710401E+02  0.000000000E+00  0.00000E+00  9.000E+00
      25     1     1     2     0     0  8.278792749E+02  9.201333752E+02  3.370368481E+02  1.288894239E+03  1.250000000E+02  0.00000E+00  9.000E+00
      25     1     1     2     0     0 -7.756456424E+02 -9.118048685E+02  2.937030511E+02  1.238911120E+03  1.250000000E+02  0.00000E+00  9.000E+00
      21     1     1     2   501   512 -5.223363250E+01 -8.328506755E+00  1.495783200E+02  1.586549407E+02  0.000000000E+00  0.00000E+00  9.000E+00
#rwgt            2          11   5.8493662806257127E-003           6      147783           0
</event>
<event>
      5   9999  3.19816E-02  1.38587E+02 -1.00000E+00  1.17772E-01
      21    -1     0     0   511   501  0.000000000E+00  0.000000000E+00  2.326706624E+03  2.326706624E+03  0.000000000E+00  0.00000E+00  9.000E+00
      21    -1     0     0   501   502  0.000000000E+00  0.000000000E+00 -6.343629582E+01  6.343629582E+01  0.000000000E+00  0.00000E+00  9.000E+00
      25     1     1     2     0     0 -2.102383603E+02  9.879387353E+01  3.862078302E+02  4.676984987E+02  1.250000000E+02  0.00000E+00  9.000E+00
      25     1     1     2     0     0  1.211159857E+02 -2.049237688E+02  1.403463961E+03  1.428985277E+03  1.250000000E+02  0.00000E+00  9.000E+00
      21     1     1     2   511   502  8.912237467E+01  1.061298953E+02  4.735985374E+02  4.934591442E+02  7.629394531E-06  0.00000E+00  9.000E+00
#rwgt            1           1   3.0753888292162884E-002           6      147803           0
</event>
<event>
      5   9999  3.19816E-02  5.06820E+02 -1.00000E+00  9.86851E-02
       2    -1     0     0   502     0  0.000000000E+00  0.000000000E+00  2.941892037E+03  2.941892037E+03  0.000000000E+00  0.00000E+00  9.000E+00
      21    -1     0     0   501   502  0.000000000E+00  0.000000000E+00 -2.309023139E+02  2.309023139E+02  0.000000000E+00  0.00000E+00  9.000E+00
      25     1     1     2     0     0  2.170776364E+02  3.882480352E+02  9.480907947E+02  1.054684973E+03  1.250000000E+02  0.00000E+00  9.000E+00
      25     1     1     2     0     0  1.846401911E+02 -7.923501031E+01 -4.468678568E+01  2.408154809E+02  1.250000000E+02  0.00000E+00  9.000E+00
       2     1     1     2   501     0 -4.017178275E+02 -3.090130249E+02  1.807585714E+03  1.877293897E+03  0.000000000E+00  0.00000E+00  9.000E+00
#rwgt            2          18   1.4353307778089892E-003           6      148068           0
</event>
<event>
      5   9999  3.19816E-02  1.38719E+02 -1.00000E+00  1.17755E-01
       1    -1     0     0   502     0  0.000000000E+00  0.000000000E+00  1.517309238E+03  1.517309238E+03  0.000000000E+00  0.00000E+00  9.000E+00
      21    -1     0     0   501   502  0.000000000E+00  0.000000000E+00 -4.657417114E+02  4.657417114E+02  0.000000000E+00  0.00000E+00  9.000E+00
      25     1     1     2     0     0 -9.069908699E+01  4.259440988E+02 -1.024499358E+01  4.531938432E+02  1.250000000E+02  0.00000E+00  9.000E+00
      25     1     1     2     0     0  1.956992925E+02 -5.165964294E+02  1.213789523E+02  5.792477311E+02  1.250000000E+02  0.00000E+00  9.000E+00
       1     1     1     2   501     0 -1.050002055E+02  9.065233065E+01  9.404335675E+02  9.506093746E+02  1.078959322E-05  0.00000E+00  9.000E+00
#rwgt            1           1   3.0169196847045752E-002           6      148087           0
</event>
<event>
      5   9999  3.19816E-02  3.87230E+00 -1.00000E+00  2.66835E-01
      21    -1     0     0   511   501  0.000000000E+00  0.000000000E+00  9.397075575E+02  9.397075575E+02  0.000000000E+00  0.00000E+00  9.000E+00
      21    -1     0     0   501   502  0.000000000E+00  0.000000000E+00 -1.438594844E+02  1.438594844E+02  0.000000000E+00  0.00000E+00  9.000E+00
      25     1     1     2     0     0  1.334072399E+02 -2.945214077E+02  3.043280126E+02  4.612817908E+02  1.250000000E+02  0.00000E+00  9.000E+00
      25     1     1     2     0     0 -1.353906186E+02  2.978472066E+02  4.040089798E+02  5.346885391E+02  1.250000000E+02  0.00000E+00  9.000E+00
      21     1     1     2   511   502  1.983378689E+00 -3.325798894E+00  8.751108063E+01  8.759671206E+01  2.132480600E-06  0.00000E+00  9.000E+00
#rwgt            1           1   2.9066585315539701E-002           6      148160           0
</event>
<event>
      5   9999  3.19816E-02  8.56365E+01 -1.00000E+00  1.26934E-01
      21    -1     0     0   502   501  0.000000000E+00  0.000000000E+00  9.029700475E+01  9.029700475E+01  0.000000000E+00  0.00000E+00  9.000E+00
       2    -1     0     0   501     0  0.000000000E+00  0.000000000E+00 -3.106185516E+03  3.106185516E+03  0.000000000E+00  0.00000E+00  9.000E+00
      25     1     1     2     0     0 -2.603532447E+01 -1.915405438E+02 -1.203219764E+02  2.597460222E+02  1.250000000E+02  0.00000E+00  9.000E+00
      25     1     1     2     0     0  9.341592035E+01  2.443937641E+02 -1.053388688E+03  1.092569254E+03  1.250000000E+02  0.00000E+00  9.000E+00
       2     1     1     2   502     0 -6.738059587E+01 -5.285322021E+01 -1.842177847E+03  1.844167245E+03  0.000000000E+00  0.00000E+00  9.000E+00
#rwgt            1           1   2.6749679694762274E-002           6      148506           0
</event>
<event>
      5   9999  3.30620E-02  8.42633E+01 -1.00000E+00  1.27268E-01
      21    -1     0     0   502   511  0.000000000E+00  0.000000000E+00  5.206440192E+02  5.206440192E+02  0.000000000E+00  0.00000E+00  9.000E+00
      21    -1     0     0   501   502  0.000000000E+00  0.000000000E+00 -2.697711458E+02  2.697711458E+02  0.000000000E+00  0.00000E+00  9.000E+00
      25     1     1     2     0     0 -6.962561579E+01 -6.761303985E+01  1.516474064E+00  1.582610161E+02  1.250000000E+02  0.00000E+00  9.000E+00
      25     1     1     2     0     0 -6.768535091E+00  3.205687099E+01 -1.648514140E+02  2.094622752E+02  1.250000000E+02  0.00000E+00  9.000E+00
      21     1     1     2   501   511  7.639415088E+01  3.555616886E+01  4.142078133E+02  4.226918737E+02  0.000000000E+00  0.00000E+00  9.000E+00
#rwgt            1           1   8.8135285757953818E-002           6      148580           0
</event>
<event>
      5   9999  3.19816E-02  1.18742E+02 -1.00000E+00  1.20563E-01
      -3    -1     0     0     0   501  0.000000000E+00  0.000000000E+00  1.827844651E+02  1.827844651E+02  0.000000000E+00  0.00000E+00  9.000E+00
      21    -1     0     0   501   502  0.000000000E+00  0.000000000E+00 -3.598207713E+03  3.598207713E+03  0.000000000E+00  0.00000E+00  9.000E+00
      25     1     1     2     0     0  3.165161547E+01 -3.416757403E+02 -7.993046865E+02  8.787816100E+02  1.250000000E+02  0.00000E+00  9.000E+00
      25     1     1     2     0     0 -1.039409954E+02  4.358766719E+02 -2.710746417E+03  2.750375127E+03  1.250000000E+02  0.00000E+00  9.000E+00
      -3     1     1     2     0   502  7.228937991E+01 -9.420093157E+01  9.462785573E+01  1.518354406E+02  4.473129043E-06  0.00000E+00  9.000E+00
#rwgt            1           1   1.9081500141245634E-002           6      148649           0
</event>
<event>
      5   9999  3.19816E-02  3.14286E+02 -1.00000E+00  1.04940E-01
      21    -1     0     0   502   501  0.000000000E+00  0.000000000E+00  2.686948185E+02  2.686948185E+02  0.000000000E+00  0.00000E+00  9.000E+00
      21    -1     0     0   511   502  0.000000000E+00  0.000000000E+00 -1.264017218E+03  1.264017218E+03  0.000000000E+00  0.00000E+00  9.000E+00
      25     1     1     2     0     0  1.247216518E+02 -3.764699010E+02  1.407020595E+01  4.160625523E+02  1.250000000E+02  0.00000E+00  9.000E+00
      25     1     1     2     0     0 -5.473816698E+01  7.007437017E+01 -2.319897376E+02  2.781203384E+02  1.250000000E+02  0.00000E+00  9.000E+00
      21     1     1     2   511   501 -6.998348477E+01  3.063955308E+02 -7.774028673E+02  8.385291453E+02  1.525878906E-05  0.00000E+00  9.000E+00
#rwgt            1           1   2.4456238778150608E-002           6      148729           0
</event>
<event>
      5   9999  3.19816E-02  1.73201E+02 -1.00000E+00  1.13971E-01
      21    -1     0     0   512   501  0.000000000E+00  0.000000000E+00  6.475558706E+02  6.475558706E+02  0.000000000E+00  0.00000E+00  9.000E+00
      21    -1     0     0   501   502  0.000000000E+00  0.000000000E+00 -6.248795789E+02  6.248795789E+02  0.000000000E+00  0.00000E+00  9.000E+00
      25     1     1     2     0     0 -4.320296016E+02 -2.685546524E+02 -2.231055651E+02  5.693612835E+02  1.250000000E+02  0.00000E+00  9.000E+00
      25     1     1     2     0     0  2.693820344E+02  3.280897367E+02  5.587350028E+01  4.460452935E+02  1.250000000E+02  0.00000E+00  9.000E+00
      21     1     1     2   512   502  1.626475672E+02 -5.953508431E+01  1.899083565E+02  2.570288724E+02  0.000000000E+00  0.00000E+00  9.000E+00
#rwgt            1           1   2.4194507778473619E-002           6      148765           0
</event>
<event>
      5   9999  3.19816E-02  2.86073E+02 -1.00000E+00  1.06267E-01
      21    -1     0     0   502   501  0.000000000E+00  0.000000000E+00  3.950418036E+02  3.950418036E+02  0.000000000E+00  0.00000E+00  9.000E+00
      21    -1     0     0   511   502  0.000000000E+00  0.000000000E+00 -1.134419782E+03  1.134419782E+03  0.000000000E+00  0.00000E+00  9.000E+00
      25     1     1     2     0     0  7.185297895E+01 -4.854407349E+02  7.548481774E+01  5.119946439E+02  1.250000000E+02  0.00000E+00  9.000E+00
      25     1     1     2     0     0  1.194964175E+02  2.727829234E+02 -4.178127912E+02  5.280932167E+02  1.250000000E+02  0.00000E+00  9.000E+00
      21     1     1     2   511   501 -1.913493964E+02  2.126578115E+02 -3.970500053E+02  4.893737253E+02  0.000000000E+00  0.00000E+00  9.000E+00
#rwgt            2          11   2.8785512378333169E-003           6      148859           0
</event>
<event>
      5   9999  3.19816E-02  1.86223E+01 -1.00000E+00  1.68968E-01
      21    -1     0     0   512   501  0.000000000E+00  0.000000000E+00  5.521692196E+02  5.521692196E+02  0.000000000E+00  0.00000E+00  9.000E+00
      21    -1     0     0   501   502  0.000000000E+00  0.000000000E+00 -6.388023333E+02  6.388023333E+02  0.000000000E+00  0.00000E+00  9.000E+00
      25     1     1     2     0     0 -5.088002929E+02  2.566283310E+02 -1.479131027E+02  6.018630444E+02  1.250000000E+02  0.00000E+00  9.000E+00
      25     1     1     2     0     0  4.905076367E+02 -2.531402158E+02  5.209839495E+01  5.683458043E+02  1.250000000E+02  0.00000E+00  9.000E+00
      21     1     1     2   512   502  1.829265620E+01 -3.488115214E+00  9.181593979E+00  2.076270422E+01  1.192092896E-07  0.00000E+00  9.000E+00
#rwgt            1           1   2.6543394713015558E-002           6      148879           0
</event>
<event>
      5   9999  3.19816E-02  8.53271E+01 -1.00000E+00  1.27009E-01
      21    -1     0     0   511   501  0.000000000E+00  0.000000000E+00  4.040325128E+02  4.040325128E+02  0.000000000E+00  0.00000E+00  9.000E+00
      21    -1     0     0   501   502  0.000000000E+00  0.000000000E+00 -5.785202112E+02  5.785202112E+02  0.000000000E+00  0.00000E+00  9.000E+00
      25     1     1     2     0     0  8.955811197E+01 -3.667274546E+02  1.203392095E+02  4.154710660E+02  1.250000000E+02  0.00000E+00  9.000E+00
      25     1     1     2     0     0 -4.458511443E+00  3.605005145E+02 -2.940726563E+02  4.817512080E+02  1.250000000E+02  0.00000E+00  9.000E+00
      21     1     1     2   511   502 -8.509960052E+01  6.226940060E+00 -7.542516600E-01  8.533044994E+01  1.230586935E-06  0.00000E+00  9.000E+00
#rwgt            1           1   3.0278173033699340E-002           6      149057           0
</event>
<event>
      5   9999  3.19816E-02  1.87073E+02 -1.00000E+00  1.12715E-01
      21    -1     0     0   512   501  0.000000000E+00  0.000000000E+00  1.769184370E+02  1.769184370E+02  0.000000000E+00  0.00000E+00  9.000E+00
      21    -1     0     0   501   502  0.000000000E+00  0.000000000E+00 -9.167054033E+02  9.167054033E+02  0.000000000E+00  0.00000E+00  9.000E+00
      25     1     1     2     0     0  1.688898773E+02  1.114565467E+02 -7.122053666E+02  7.508713849E+02  1.250000000E+02  0.00000E+00  9.000E+00
      25     1     1     2     0     0  1.509941742E+01 -7.762755419E+01  2.119063334E+01  1.494258094E+02  1.250000000E+02  0.00000E+00  9.000E+00
      21     1     1     2   512   502 -1.839892947E+02 -3.382899256E+01 -4.877223313E+01  1.933266460E+02  4.156969970E-06  0.00000E+00  9.000E+00
#rwgt            2          11   3.9519226364867436E-003           6      149277           0
</event>
<event>
      5   9999  3.53000E-02  1.07668E+01 -1.00000E+00  1.92119E-01
      21    -1     0     0   502   511  0.000000000E+00  0.000000000E+00  2.527502035E+03  2.527502035E+03  0.000000000E+00  0.00000E+00  9.000E+00
      21    -1     0     0   501   502  0.000000000E+00  0.000000000E+00 -2.875645820E+01  2.875645820E+01  0.000000000E+00  0.00000E+00  9.000E+00
      25     1     1     2     0     0 -9.962998000E+01  1.457055107E+02  5.967819167E+02  6.347675833E+02  1.250000000E+02  0.00000E+00  9.000E+00
      25     1     1     2     0     0  9.253991889E+01 -1.538083538E+02  1.220739510E+03  1.240181679E+03  1.250000000E+02  0.00000E+00  9.000E+00
      21     1     1     2   501   511  7.090061107E+00  8.102843089E+00  6.812241502E+02  6.813092307E+02  7.629394531E-06  0.00000E+00  9.000E+00
#rwgt            1           1   9.7030730565190002E-002           6      149312           0
</event>
<event>
      5   9999  3.19816E-02  6.30760E+01 -1.00000E+00  1.33553E-01
      21    -1     0     0   502   501  0.000000000E+00  0.000000000E+00  1.491222073E+03  1.491222073E+03  0.000000000E+00  0.00000E+00  9.000E+00
      21    -1     0     0   512   502  0.000000000E+00  0.000000000E+00 -2.813636144E+02  2.813636144E+02  0.000000000E+00  0.00000E+00  9.000E+00
      25     1     1     2     0     0  5.696329748E+01 -7.282455050E+01  1.377356536E+03  1.386103986E+03  1.250000000E+02  0.00000E+00  9.000E+00
      25     1     1     2     0     0 -1.089783558E+02  1.085038304E+02  9.676937654E+00  1.984137252E+02  1.250000000E+02  0.00000E+00  9.000E+00
      21     1     1     2   512   501  5.201505832E+01 -3.567927990E+01 -1.771750156E+02  1.880679756E+02  4.264961200E-06  0.00000E+00  9.000E+00
#rwgt            1           1   3.3711525862938033E-002           6      149520           0
</event>
<event>
      5   9999  3.19816E-02  4.92217E+01 -1.00000E+00  1.39465E-01
       2    -1     0     0   502     0  0.000000000E+00  0.000000000E+00  1.983290675E+03  1.983290675E+03  0.000000000E+00  0.00000E+00  9.000E+00
      21    -1     0     0   501   502  0.000000000E+00  0.000000000E+00 -8.909517874E+01  8.909517874E+01  0.000000000E+00  0.00000E+00  9.000E+00
      25     1     1     2     0     0  7.222143178E+01  1.483487295E+02  1.639394509E+02  2.640538285E+02  1.250000000E+02  0.00000E+00  9.000E+00
      25     1     1     2     0     0 -3.644778378E+01 -1.145401906E+02  1.558503332E+02  2.331570771E+02  1.250000000E+02  0.00000E+00  9.000E+00
       2     1     1     2   501     0 -3.577364800E+01 -3.380853891E+01  1.574405712E+03  1.575174949E+03  2.157918644E-05  0.00000E+00  9.000E+00
#rwgt            1           1   2.9195059913841102E-002           6      149635           0
</event>
<event>
      5   9999  3.19816E-02  2.37772E+02 -1.00000E+00  1.08980E-01
      21    -1     0     0   502   501  0.000000000E+00  0.000000000E+00  1.051899741E+02  1.051899741E+02  0.000000000E+00  0.00000E+00  9.000E+00
      21    -1     0     0   511   502  0.000000000E+00  0.000000000E+00 -9.809851162E+02  9.809851162E+02  0.000000000E+00  0.00000E+00  9.000E+00
      25     1     1     2     0     0 -3.249964952E+00  7.754780348E+01 -6.943887733E+01  1.626990528E+02  1.250000000E+02  0.00000E+00  9.000E+00
      25     1     1     2     0     0  3.045539756E+01  1.586630368E+02 -4.604841195E+02  5.037579923E+02  1.250000000E+02  0.00000E+00  9.000E+00
      21     1     1     2   511   501 -2.720543261E+01 -2.362108403E+02 -3.458721452E+02  4.197180452E+02  3.814697266E-06  0.00000E+00  9.000E+00
#rwgt            2          11   8.2097777884564353E-003           6      149919           0
</event>
<event>
      5   9999  3.19816E-02  4.86517E+01 -1.00000E+00  1.39756E-01
      21    -1     0     0   502   501  0.000000000E+00  0.000000000E+00  1.477555887E+02  1.477555887E+02  0.000000000E+00  0.00000E+00  9.000E+00
       2    -1     0     0   501     0  0.000000000E+00  0.000000000E+00 -3.315765466E+03  3.315765466E+03  0.000000000E+00  0.00000E+00  9.000E+00
      25     1     1     2     0     0  1.495890073E+02 -4.493301896E+02 -7.763161420E+02  9.179140716E+02  1.250000000E+02  0.00000E+00  9.000E+00
      25     1     1     2     0     0 -1.356480619E+02  4.027186537E+02 -5.634557328E+02  7.167217546E+02  1.250000000E+02  0.00000E+00  9.000E+00
       2     1     1     2   502     0 -1.394094546E+01  4.661153588E+01 -1.828238002E+03  1.828885228E+03  0.000000000E+00  0.00000E+00  9.000E+00
#rwgt            1           1   2.7821473829745601E-002           6      149939           0
</event>
<event>
      5   9999  3.19816E-02  2.28787E+02 -1.00000E+00  1.09562E-01
      21    -1     0     0   502   511  0.000000000E+00  0.000000000E+00  3.466197924E+02  3.466197924E+02  0.000000000E+00  0.00000E+00  9.000E+00
      21    -1     0     0   501   502  0.000000000E+00  0.000000000E+00 -5.503583067E+02  5.503583067E+02  0.000000000E+00  0.00000E+00  9.000E+00
      25     1     1     2     0     0 -1.426891991E+02 -1.351148068E+02 -6.138216927E+01  2.408505538E+02  1.250000000E+02  0.00000E+00  9.000E+00
      25     1     1     2     0     0  6.983219932E+01  3.519914107E+02 -1.862169286E+02  4.231739994E+02  1.250000000E+02  0.00000E+00  9.000E+00
      21     1     1     2   501   511  7.285699979E+01 -2.168766039E+02  4.386058362E+01  2.329535458E+02  1.907348633E-06  0.00000E+00  9.000E+00
#rwgt            2          11   3.7205888350723198E-003           6      150072           0
</event>
<event>
      5   9999  3.19816E-02  2.18460E+02 -1.00000E+00  1.10270E-01
      21    -1     0     0   502   501  0.000000000E+00  0.000000000E+00  2.403673467E+03  2.403673467E+03  0.000000000E+00  0.00000E+00  9.000E+00
      21    -1     0     0   501   512  0.000000000E+00  0.000000000E+00 -1.148085464E+02  1.148085464E+02  0.000000000E+00  0.00000E+00  9.000E+00
      25     1     1     2     0     0 -1.053029394E+00  1.140805023E+02  7.020828433E+02  7.221916565E+02  1.250000000E+02  0.00000E+00  9.000E+00
      25     1     1     2     0     0  1.245565463E+02 -2.942793731E+02  1.533508384E+03  1.571428536E+03  1.250000000E+02  0.00000E+00  9.000E+00
      21     1     1     2   502   512 -1.235035169E+02  1.801988708E+02  5.327369323E+01  2.248618200E+02  3.693564745E-06  0.00000E+00  9.000E+00
#rwgt            1           1   8.1443982531420323E-002           6      150107           0
</event>
<event>
      5   9999  3.19816E-02  1.15262E+01 -1.00000E+00  1.88887E-01
       2    -1     0     0   502     0  0.000000000E+00  0.000000000E+00  1.976644615E+03  1.976644615E+03  0.000000000E+00  0.00000E+00  9.000E+00
      21    -1     0     0   501   502  0.000000000E+00  0.000000000E+00 -2.042392711E+02  2.042392711E+02  0.000000000E+00  0.00000E+00  9.000E+00
      25     1     1     2     0     0 -2.518288353E+01 -2.202812370E+02  1.744250172E+02  3.085564578E+02  1.250000000E+02  0.00000E+00  9.000E+00
      25     1     1     2     0     0  3.178478226E+01  2.297294042E+02 -1.063193805E+01  2.636738699E+02  1.250000000E+02  0.00000E+00  9.000E+00
       2     1     1     2   501     0 -6.601898732E+00 -9.448167246E+00  1.608612264E+03  1.608653558E+03  3.051757812E-05  0.00000E+00  9.000E+00
#rwgt            1           1   2.8739686685773862E-002           6      150162           0
</event>
<event>
      5   9999  3.19816E-02  8.83773E+01 -1.00000E+00  1.26290E-01
      21    -1     0     0   502   511  0.000000000E+00  0.000000000E+00  8.962753338E+02  8.962753338E+02  0.000000000E+00  0.00000E+00  9.000E+00
      21    -1     0     0   501   502  0.000000000E+00  0.000000000E+00 -1.376555522E+03  1.376555522E+03  0.000000000E+00  0.00000E+00  9.000E+00
      25     1     1     2     0     0  3.657462074E+02  2.010000575E+02  7.089265464E+02  8.320896343E+02  1.250000000E+02  0.00000E+00  9.000E+00
      25     1     1     2     0     0 -3.163833095E+02 -1.276935220E+02 -1.270025555E+03  1.320982190E+03  1.250000000E+02  0.00000E+00  9.000E+00
      21     1     1     2   501   511 -4.936289794E+01 -7.330653551E+01  8.081882103E+01  1.197590317E+02  1.907348633E-06  0.00000E+00  9.000E+00
#rwgt            2          11   1.1208029803426124E-002           6      150389           0
</event>
<event>
      5   9999  3.19816E-02  4.25524E+01 -1.00000E+00  1.43194E-01
      21    -1     0     0   502   501  0.000000000E+00  0.000000000E+00  1.365894030E+03  1.365894030E+03  0.000000000E+00  0.00000E+00  9.000E+00
      21    -1     0     0   512   502  0.000000000E+00  0.000000000E+00 -6.748070800E+01  6.748070800E+01  0.000000000E+00  0.00000E+00  9.000E+00
      25     1     1     2     0     0 -1.973507668E+01 -2.131449834E+02  7.678554585E+02  8.068749980E+02  1.250000000E+02  0.00000E+00  9.000E+00
      25     1     1     2     0     0 -9.106423556E+00  2.444319346E+02  5.099339082E+02  5.792128179E+02  1.250000000E+02  0.00000E+00  9.000E+00
      21     1     1     2   512   501  2.884150024E+01 -3.128695128E+01  2.062395489E+01  4.728692178E+01  1.369610464E-06  0.00000E+00  9.000E+00
#rwgt            1           1   2.7926020720909366E-002           6      150409           0
</event>
<event>
      5   9999  3.19816E-02  1.88297E+02 -1.00000E+00  1.12610E-01
      21    -1     0     0   511   501  0.000000000E+00  0.000000000E+00  5.918564072E+02  5.918564072E+02  0.000000000E+00  0.00000E+00  9.000E+00
      21    -1     0     0   501   502  0.000000000E+00  0.000000000E+00 -7.177773819E+02  7.177773819E+02  0.000000000E+00  0.00000E+00  9.000E+00
      25     1     1     2     0     0  2.163582261E+02  1.538058430E+02  2.548439459E+02  3.886355055E+02  1.250000000E+02  0.00000E+00  9.000E+00
      25     1     1     2     0     0 -1.367464141E+02 -3.244454693E+02 -5.519539460E+02  6.665152683E+02  1.250000000E+02  0.00000E+00  9.000E+00
      21     1     1     2   511   502 -7.961181197E+01  1.706396263E+02  1.711890253E+02  2.544830153E+02  1.907348633E-06  0.00000E+00  9.000E+00
#rwgt            1           1   2.4058523680484677E-002           6      150524           0
</event>
<event>
      5   9999  3.19816E-02  6.06905E+02 -1.00000E+00  9.65187E-02
      21    -1     0     0   502   501  0.000000000E+00  0.000000000E+00  2.059245485E+02  2.059245485E+02  0.000000000E+00  0.00000E+00  9.000E+00
       1    -1     0     0   501     0  0.000000000E+00  0.000000000E+00 -2.198649279E+03  2.198649279E+03  0.000000000E+00  0.00000E+00  9.000E+00
      25     1     1     2     0     0 -4.984892998E+02 -2.903591187E+02 -9.018970248E+02  1.077888326E+03  1.250000000E+02  0.00000E+00  9.000E+00
      25     1     1     2     0     0 -4.142906767E+01  1.319082129E+01 -1.046504559E+02  1.687219112E+02  1.250000000E+02  0.00000E+00  9.000E+00
       1     1     1     2   502     0  5.399183675E+02  2.771682974E+02 -9.861772494E+02  1.157963590E+03  2.412626389E-05  0.00000E+00  9.000E+00
#rwgt            2          12   6.3375077796578531E-004           6      150783           0
</event>
<event>
      5   9999  3.19816E-02  2.33111E+01 -1.00000E+00  1.61060E-01
      21    -1     0     0   502   511  0.000000000E+00  0.000000000E+00  5.388821424E+01  5.388821424E+01  0.000000000E+00  0.00000E+00  9.000E+00
      21    -1     0     0   501   502  0.000000000E+00  0.000000000E+00 -9.917693590E+02  9.917693590E+02  0.000000000E+00  0.00000E+00  9.000E+00
      25     1     1     2     0     0 -6.632318057E+01  8.030800838E+01 -1.642668588E+02  2.312071396E+02  1.250000000E+02  0.00000E+00  9.000E+00
      25     1     1     2     0     0  8.876193299E+01 -7.399061120E+01 -7.725847584E+02  7.911166160E+02  1.250000000E+02  0.00000E+00  9.000E+00
      21     1     1     2   501   511 -2.243875242E+01 -6.317397180E+00 -1.029527551E+00  2.333381761E+01  6.240723011E-07  0.00000E+00  9.000E+00
#rwgt            1           1   2.8780435705343936E-002           6      150847           0
</event>
<event>
      5   9999  3.19816E-02  2.89711E+01 -1.00000E+00  1.54100E-01
      21    -1     0     0   502   501  0.000000000E+00  0.000000000E+00  2.195053114E+03  2.195053114E+03  0.000000000E+00  0.00000E+00  9.000E+00
       2    -1     0     0   501     0  0.000000000E+00  0.000000000E+00 -7.046517202E+01  7.046517202E+01  0.000000000E+00  0.00000E+00  9.000E+00
      25     1     1     2     0     0  5.275588507E-01 -1.477194579E+01  2.097023583E+03  2.100797800E+03  1.250000000E+02  0.00000E+00  9.000E+00
      25     1     1     2     0     0  1.172622505E+01  4.102394935E+01  1.428673227E+01  1.328517199E+02  1.250000000E+02  0.00000E+00  9.000E+00
       2     1     1     2   502     0 -1.225378390E+01 -2.625200355E+01  1.327762748E+01  3.186876687E+01  2.384185791E-07  0.00000E+00  9.000E+00
#rwgt            1           1   2.5650620631711196E-002           6      150974           0
</event>
<event>
      5   9999  3.19816E-02  4.33888E+02 -1.00000E+00  1.00634E-01
       1    -1     0     0   502     0  0.000000000E+00  0.000000000E+00  2.400329610E+03  2.400329610E+03  0.000000000E+00  0.00000E+00  9.000E+00
      21    -1     0     0   501   502  0.000000000E+00  0.000000000E+00 -7.464300126E+02  7.464300126E+02  0.000000000E+00  0.00000E+00  9.000E+00
      25     1     1     2     0     0  7.955964348E+02  5.003328397E+02  1.661176769E+02  9.625625799E+02  1.250000000E+02  0.00000E+00  9.000E+00
      25     1     1     2     0     0 -1.083510038E+03 -1.757332149E+02  7.741089745E+02  1.348979566E+03  1.250000000E+02  0.00000E+00  9.000E+00
       1     1     1     2   501     0  2.879136032E+02 -3.245996248E+02  7.136729456E+02  8.352174762E+02  7.629394531E-06  0.00000E+00  9.000E+00
#rwgt            2          17   6.0178097327628758E-004           6      151112           0
</event>
<event>
      5   9999  3.19816E-02  2.27293E+01 -1.00000E+00  1.61912E-01
      21    -1     0     0   502   511  0.000000000E+00  0.000000000E+00  1.953818323E+02  1.953818323E+02  0.000000000E+00  0.00000E+00  9.000E+00
      21    -1     0     0   501   502  0.000000000E+00  0.000000000E+00 -1.218841875E+03  1.218841875E+03  0.000000000E+00  0.00000E+00  9.000E+00
      25     1     1     2     0     0  3.637562780E+02 -8.460169111E+01 -7.978344501E+02  8.897420333E+02  1.250000000E+02  0.00000E+00  9.000E+00
      25     1     1     2     0     0 -3.557058960E+02  1.058575336E+02 -2.692851801E+02  4.752599395E+02  1.250000000E+02  0.00000E+00  9.000E+00
      21     1     1     2   501   511 -8.050381986E+00 -2.125584254E+01  4.365958797E+01  4.922173416E+01  1.066240300E-06  0.00000E+00  9.000E+00
#rwgt            1           1   3.2445308486217891E-002           6      151146           0
</event>
<event>
      5   9999  3.19816E-02  2.89756E+02 -1.00000E+00  1.06085E-01
      21    -1     0     0   502   512  0.000000000E+00  0.000000000E+00  7.420363109E+02  7.420363109E+02  0.000000000E+00  0.00000E+00  9.000E+00
      21    -1     0     0   501   502  0.000000000E+00  0.000000000E+00 -8.571120015E+02  8.571120015E+02  0.000000000E+00  0.00000E+00  9.000E+00
      25     1     1     2     0     0 -1.514658671E+02 -7.034662850E+02 -2.476140197E+02  7.711967491E+02  1.250000000E+02  0.00000E+00  9.000E+00
      25     1     1     2     0     0  2.612708922E+02  4.353218542E+02  1.273235684E+02  5.381485733E+02  1.250000000E+02  0.00000E+00  9.000E+00
      21     1     1     2   501   512 -1.098050251E+02  2.681444308E+02  5.214760741E+00  2.898029900E+02  8.441583440E-06  0.00000E+00  9.000E+00
#rwgt            1           1   3.1008503447479276E-002           6      151349           0
</event>
<event>
      5   9999  3.19816E-02  3.57248E+01 -1.00000E+00  1.47952E-01
      21    -1     0     0   511   501  0.000000000E+00  0.000000000E+00  1.384890863E+02  1.384890863E+02  0.000000000E+00  0.00000E+00  9.000E+00
      21    -1     0     0   501   502  0.000000000E+00  0.000000000E+00 -6.167800483E+02  6.167800483E+02  0.000000000E+00  0.00000E+00  9.000E+00
      25     1     1     2     0     0  1.013516716E+02  1.286710640E+02 -4.465173737E+02  4.917633263E+02  1.250000000E+02  0.00000E+00  9.000E+00
      25     1     1     2     0     0 -1.362008502E+02 -1.208098783E+02 -4.505872173E+01  2.253907423E+02  1.250000000E+02  0.00000E+00  9.000E+00
      21     1     1     2   511   502  3.484917858E+01 -7.861185689E+00  1.328513340E+01  3.811506602E+01  6.078504936E-07  0.00000E+00  9.000E+00
#rwgt            1           1   2.2679500144981435E-002           6      151430           0
</event>
<event>
      5   9999  3.19816E-02  4.38368E+01 -1.00000E+00  1.42416E-01
      21    -1     0     0   502   501  0.000000000E+00  0.000000000E+00  2.772747224E+03  2.772747224E+03  0.000000000E+00  0.00000E+00  9.000E+00
      21    -1     0     0   501   512  0.000000000E+00  0.000000000E+00 -8.677627648E+02  8.677627648E+02  0.000000000E+00  0.00000E+00  9.000E+00
      25     1     1     2     0     0  9.209909051E+02 -1.382091611E+02  8.711889125E+02  1.281374707E+03  1.250000000E+02  0.00000E+00  9.000E+00
      25     1     1     2     0     0 -9.204920777E+02  1.820431019E+02  1.563439783E+03  1.827680035E+03  1.250000000E+02  0.00000E+00  9.000E+00
      21     1     1     2   502   512 -4.988274506E-01 -4.383394081E+01 -5.296442356E+02  5.314552469E+02  1.078959322E-05  0.00000E+00  9.000E+00
#rwgt            1           1   3.4570024182964509E-002           6      151532           0
</event>
<event>
      5   9999  3.19816E-02  1.75880E+01 -1.00000E+00  1.71110E-01
      21    -1     0     0   502   501  0.000000000E+00  0.000000000E+00  4.209503723E+02  4.209503723E+02  0.000000000E+00  0.00000E+00  9.000E+00
      21    -1     0     0   501   511  0.000000000E+00  0.000000000E+00 -9.719457915E+02  9.719457915E+02  0.000000000E+00  0.00000E+00  9.000E+00
      25     1     1     2     0     0  3.144841288E+02 -8.270023444E+01  1.637184809E+02  3.849264047E+02  1.250000000E+02  0.00000E+00  9.000E+00
      25     1     1     2     0     0 -3.311710051E+02  8.825777751E+01 -8.059847910E+01  3.736104719E+02  1.250000000E+02  0.00000E+00  9.000E+00
      21     1     1     2   502   511  1.668687634E+01 -5.557543076E+00 -6.341154210E+02  6.343592872E+02  7.629394531E-06  0.00000E+00  9.000E+00
#rwgt            1           1   2.6268318416722947E-002           6      151701           0
</event>
<event>
      5   9999  3.19816E-02  3.60616E+01 -1.00000E+00  1.47688E-01
      21    -1     0     0   512   501  0.000000000E+00  0.000000000E+00  1.148045913E+02  1.148045913E+02  0.000000000E+00  0.00000E+00  9.000E+00
      21    -1     0     0   501   502  0.000000000E+00  0.000000000E+00 -5.256646846E+02  5.256646846E+02  0.000000000E+00  0.00000E+00  9.000E+00
      25     1     1     2     0     0  1.399060790E+00 -1.216990615E+02  2.882737618E+00  1.744876188E+02  1.250000000E+02  0.00000E+00  9.000E+00
      25     1     1     2     0     0  2.330483539E+01  9.542820657E+01 -3.940087588E+02  4.248735811E+02  1.250000000E+02  0.00000E+00  9.000E+00
      21     1     1     2   512   502 -2.470389618E+01  2.627085494E+01 -1.973407208E+01  4.110807593E+01  2.384185791E-07  0.00000E+00  9.000E+00
#rwgt            1           1   2.6655400897094908E-002           6      151904           0
</event>
<event>
      5   9999  3.19816E-02  9.92480E+01 -1.00000E+00  1.23976E-01
       3    -1     0     0   502     0  0.000000000E+00  0.000000000E+00  3.721297308E+02  3.721297308E+02  0.000000000E+00  0.00000E+00  9.000E+00
      21    -1     0     0   501   502  0.000000000E+00  0.000000000E+00 -4.873202042E+02  4.873202042E+02  0.000000000E+00  0.00000E+00  9.000E+00
      25     1     1     2     0     0 -1.357434854E+02 -1.037767429E+02 -4.102999510E+02  4.617000714E+02  1.250000000E+02  0.00000E+00  9.000E+00
      25     1     1     2     0     0  6.091451391E+01  3.857868616E+01  9.048719691E+01  1.703285820E+02  1.250000000E+02  0.00000E+00  9.000E+00
       3     1     1     2   501     0  7.482897148E+01  6.519805672E+01  2.046222806E+02  2.274212816E+02  2.697398305E-06  0.00000E+00  9.000E+00
#rwgt            1           1   2.8373669051024522E-002           6      152011           0
</event>
<event>
      5   9999  3.19816E-02  2.17699E+01 -1.00000E+00  1.63387E-01
      21    -1     0     0   502   501  0.000000000E+00  0.000000000E+00  5.610989953E+01  5.610989953E+01  0.000000000E+00  0.00000E+00  9.000E+00
      21    -1     0     0   501   511  0.000000000E+00  0.000000000E+00 -1.669556615E+03  1.669556615E+03  0.000000000E+00  0.00000E+00  9.000E+00
      25     1     1     2     0     0 -1.614206909E+02 -3.293999184E+01 -2.098804350E+02  2.946463635E+02  1.250000000E+02  0.00000E+00  9.000E+00
      25     1     1     2     0     0  1.411899639E+02  2.489976089E+01 -6.530111885E+02  6.801494073E+02  1.250000000E+02  0.00000E+00  9.000E+00
      21     1     1     2   502   511  2.023072706E+01  8.040230947E+00 -7.505550922E+02  7.508707440E+02  1.525878906E-05  0.00000E+00  9.000E+00
#rwgt            1           1   2.7226562909221166E-002           6      152062           0
</event>
<event>
      5   9999  3.19816E-02  8.47005E+01 -1.00000E+00  1.27161E-01
      21    -1     0     0   502   501  0.000000000E+00  0.000000000E+00  1.793809635E+02  1.793809635E+02  0.000000000E+00  0.00000E+00  9.000E+00
       1    -1     0     0   501     0  0.000000000E+00  0.000000000E+00 -1.257725688E+03  1.257725688E+03  0.000000000E+00  0.00000E+00  9.000E+00
      25     1     1     2     0     0 -2.027747677E+02 -1.943546135E+02 -9.300392119E+02  9.795352254E+02  1.250000000E+02  0.00000E+00  9.000E+00
      25     1     1     2     0     0  2.811149415E+02  1.621521788E+02 -1.269876534E+02  3.702293932E+02  1.250000000E+02  0.00000E+00  9.000E+00
       1     1     1     2   502     0 -7.834017388E+01  3.220243473E+01 -2.131785971E+01  8.734203334E+01  3.371747881E-07  0.00000E+00  9.000E+00
#rwgt            1           1   2.9522583791301980E-002           6      152188           0
</event>
<event>
      5   9999  3.19816E-02  6.19369E+01 -1.00000E+00  1.33970E-01
      21    -1     0     0   502   501  0.000000000E+00  0.000000000E+00  9.730012830E+01  9.730012830E+01  0.000000000E+00  0.00000E+00  9.000E+00
       4    -1     0     0   501     0  0.000000000E+00  0.000000000E+00 -6.211678258E+02  6.211678258E+02  0.000000000E+00  0.00000E+00  9.000E+00
      25     1     1     2     0     0 -7.283241525E+01  6.888152496E+01 -7.566974607E+01  1.772008343E+02  1.250000000E+02  0.00000E+00  9.000E+00
      25     1     1     2     0     0  1.165954398E+01 -7.857992524E+01 -8.085704807E+01  1.687412571E+02  1.250000000E+02  0.00000E+00  9.000E+00
       4     1     1     2   502     0  6.117287127E+01  9.698400283E+00 -3.673409034E+02  3.725258628E+02  5.394796609E-06  0.00000E+00  9.000E+00
#rwgt            1           1   5.9598790295446687E-002           6      152244           0
</event>
<event>
      5   9999  3.19816E-02  6.88121E+01 -1.00000E+00  1.31598E-01
      21    -1     0     0   502   501  0.000000000E+00  0.000000000E+00  9.446558629E+01  9.446558629E+01  0.000000000E+00  0.00000E+00  9.000E+00
       2    -1     0     0   501     0  0.000000000E+00  0.000000000E+00 -2.298922655E+03  2.298922655E+03  0.000000000E+00  0.00000E+00  9.000E+00
      25     1     1     2     0     0 -3.590299797E+02 -1.323313384E+01 -1.283046957E+03  1.338249653E+03  1.250000000E+02  0.00000E+00  9.000E+00
      25     1     1     2     0     0  4.273043558E+02  4.647352660E+00 -7.919272422E+02  9.085066688E+02  1.250000000E+02  0.00000E+00  9.000E+00
       2     1     1     2   502     0 -6.827437605E+01  8.585781184E+00 -1.294828696E+02  1.466319187E+02  1.907348633E-06  0.00000E+00  9.000E+00
#rwgt            1           1   3.1778041075076216E-002           6      152295           0
</event>
<event>
      5   9999  3.19816E-02  1.33106E+01 -1.00000E+00  1.82416E-01
      21    -1     0     0   502   511  0.000000000E+00  0.000000000E+00  2.853253197E+02  2.853253197E+02  0.000000000E+00  0.00000E+00  9.000E+00
      21    -1     0     0   501   502  0.000000000E+00  0.000000000E+00 -1.253311403E+02  1.253311403E+02  0.000000000E+00  0.00000E+00  9.000E+00
      25     1     1     2     0     0  1.443728498E+01 -9.733507940E+01  1.619104566E+02  2.269857900E+02  1.250000000E+02  0.00000E+00  9.000E+00
      25     1     1     2     0     0 -8.121633894E+00  1.090519317E+02 -1.266162300E+01  1.665641061E+02  1.250000000E+02  0.00000E+00  9.000E+00
      21     1     1     2   501   511 -6.315651081E+00 -1.171685226E+01  1.074534579E+01  1.710656399E+01  3.953724850E-07  0.00000E+00  9.000E+00
#rwgt            1           1   2.9384141186247055E-002           6      152360           0
</event>
<event>
      5   9999  3.19816E-02  4.06590E+01 -1.00000E+00  1.44401E-01
       1    -1     0     0   502     0  0.000000000E+00  0.000000000E+00  9.027031898E+01  9.027031898E+01  0.000000000E+00  0.00000E+00  9.000E+00
      21    -1     0     0   501   502  0.000000000E+00  0.000000000E+00 -4.795662822E+02  4.795662822E+02  0.000000000E+00  0.00000E+00  9.000E+00
      25     1     1     2     0     0  1.175958506E+01  1.226659693E+02 -1.315783616E+02  2.193697634E+02  1.250000000E+02  0.00000E+00  9.000E+00
      25     1     1     2     0     0  1.392967784E+01 -9.115059258E+01 -2.668766650E+02  3.087889583E+02  1.250000000E+02  0.00000E+00  9.000E+00
       1     1     1     2   501     0 -2.568926290E+01 -3.151537674E+01  9.159063291E+00  4.167787950E+01  5.057621821E-07  0.00000E+00  9.000E+00
#rwgt            1           1   2.1765952693086225E-002           6      152590           0
</event>
<event>
      5   9999  3.19816E-02  4.37340E+01 -1.00000E+00  1.42477E-01
      21    -1     0     0   502   501  0.000000000E+00  0.000000000E+00  1.116301956E+02  1.116301956E+02  0.000000000E+00  0.00000E+00  9.000E+00
      21    -1     0     0   501   511  0.000000000E+00  0.000000000E+00 -1.000757390E+03  1.000757390E+03  0.000000000E+00  0.00000E+00  9.000E+00
      25     1     1     2     0     0 -2.152536806E+02 -1.128264242E+01 -1.499783386E+02  2.908263177E+02  1.250000000E+02  0.00000E+00  9.000E+00
      25     1     1     2     0     0  2.450657527E+02  4.328109142E+01 -4.505711692E+02  5.296884504E+02  1.250000000E+02  0.00000E+00  9.000E+00
      21     1     1     2   502   511 -2.981207207E+01 -3.199844901E+01 -2.885776871E+02  2.918728179E+02  3.814697266E-06  0.00000E+00  9.000E+00
#rwgt            1           1   3.1606776344686859E-002           6      152671           0
</event>
<event>
      5   9999  3.19816E-02  5.90766E+01 -1.00000E+00  1.35064E-01
      21    -1     0     0   512   501  0.000000000E+00  0.000000000E+00  3.073613942E+02  3.073613942E+02  0.000000000E+00  0.00000E+00  9.000E+00
      21    -1     0     0   501   502  0.000000000E+00  0.000000000E+00 -1.064507073E+03  1.064507073E+03  0.000000000E+00  0.00000E+00  9.000E+00
      25     1     1     2     0     0 -3.138416147E+02 -3.274338375E+02 -3.384732129E+02  5.795675914E+02  1.250000000E+02  0.00000E+00  9.000E+00
      25     1     1     2     0     0  3.011211556E+02  3.851246572E+02 -4.874811499E+02  7.016108775E+02  1.250000000E+02  0.00000E+00  9.000E+00
      21     1     1     2   512   502  1.272045916E+01 -5.769081968E+01  6.880868419E+01  9.068999822E+01  9.536743164E-07  0.00000E+00  9.000E+00
#rwgt            1           1   3.2907388849378522E-002           6      152741           0
</event>
<event>
      5   9999  3.19816E-02  6.69526E+01 -1.00000E+00  1.32207E-01
      21    -1     0     0   502   501  0.000000000E+00  0.000000000E+00  1.542524767E+03  1.542524767E+03  0.000000000E+00  0.00000E+00  9.000E+00
      21    -1     0     0   511   502  0.000000000E+00  0.000000000E+00 -1.440209275E+03  1.440209275E+03  0.000000000E+00  0.00000E+00  9.000E+00
      25     1     1     2     0     0 -1.047158370E+03 -7.110359875E+02  8.119284879E+02  1.508961795E+03  1.250000000E+02  0.00000E+00  9.000E+00
      25     1     1     2     0     0  9.932111754E+02  6.713831509E+02 -6.027017992E+02  1.347626889E+03  1.250000000E+02  0.00000E+00  9.000E+00
      21     1     1     2   511   501  5.394719501E+01  3.965283660E+01 -1.069111965E+02  1.261453576E+02  2.336015456E-06  0.00000E+00  9.000E+00
#rwgt            1           1   2.3013757083537093E-002           6      152963           0
</event>
<event>
      5   9999  3.19816E-02  1.79534E+02 -1.00000E+00  1.13382E-01
      21    -1     0     0   502   501  0.000000000E+00  0.000000000E+00  5.536518902E+02  5.536518902E+02  0.000000000E+00  0.00000E+00  9.000E+00
      21    -1     0     0   512   502  0.000000000E+00  0.000000000E+00 -3.581816815E+02  3.581816815E+02  0.000000000E+00  0.00000E+00  9.000E+00
      25     1     1     2     0     0  2.718910097E+01  3.106996608E+02  1.493136113E+02  3.676861175E+02  1.250000000E+02  0.00000E+00  9.000E+00
      25     1     1     2     0     0 -2.028089960E+02 -2.734178415E+02  2.982902998E+01  3.638730217E+02  1.250000000E+02  0.00000E+00  9.000E+00
      21     1     1     2   512   501  1.756198950E+02 -3.728181938E+01  1.632756736E+01  1.802744326E+02  3.099441528E-06  0.00000E+00  9.000E+00
#rwgt            1           1   2.5410208855773959E-002           6      153115           0
</event>
<event>
      5   9999  3.19816E-02  6.67337E+01 -1.00000E+00  1.32280E-01
      21    -1     0     0   502   511  0.000000000E+00  0.000000000E+00  7.430867789E+02  7.430867789E+02  0.000000000E+00  0.00000E+00  9.000E+00
      21    -1     0     0   501   502  0.000000000E+00  0.000000000E+00 -5.046647730E+02  5.046647730E+02  0.000000000E+00  0.00000E+00  9.000E+00
      25     1     1     2     0     0  1.875736390E+02  1.694464769E+02 -3.928990176E+02  4.836223905E+02  1.250000000E+02  0.00000E+00  9.000E+00
      25     1     1     2     0     0 -2.452220577E+02 -2.030626037E+02  5.994642655E+02  6.901816313E+02  1.250000000E+02  0.00000E+00  9.000E+00
      21     1     1     2   501   511  5.764841867E+01  3.361612683E+01  3.185675804E+01  7.394752999E+01  1.261592536E-06  0.00000E+00  9.000E+00
#rwgt            1           1   2.9876751809055066E-002           6      153143           0
</event>
<event>
      5   9999  3.19816E-02  1.29822E+01 -1.00000E+00  1.83506E-01
      21    -1     0     0   502   501  0.000000000E+00  0.000000000E+00  1.077675777E+03  1.077675777E+03  0.000000000E+00  0.00000E+00  9.000E+00
      21    -1     0     0   512   502  0.000000000E+00  0.000000000E+00 -5.495777941E+01  5.495777941E+01  0.000000000E+00  0.00000E+00  9.000E+00
      25     1     1     2     0     0  8.662445536E+00  1.602954715E+02  2.557062705E+02  3.267726624E+02  1.250000000E+02  0.00000E+00  9.000E+00
      25     1     1     2     0     0 -7.777109260E+00 -1.732474168E+02  7.628354787E+02  7.922235280E+02  1.250000000E+02  0.00000E+00  9.000E+00
      21     1     1     2   512   501 -8.853362762E-01  1.295194532E+01  4.176248963E+00  1.363736643E+01  1.192092896E-07  0.00000E+00  9.000E+00
#rwgt            1           1   2.9553719726830716E-002           6      153277           0
</event>
<event>
      5   9999  3.19816E-02  1.72790E+02 -1.00000E+00  1.14010E-01
      21    -1     0     0   502   511  0.000000000E+00  0.000000000E+00  7.161577802E+02  7.161577802E+02  0.000000000E+00  0.00000E+00  9.000E+00
      21    -1     0     0   501   502  0.000000000E+00  0.000000000E+00 -3.759958770E+02  3.759958770E+02  0.000000000E+00  0.00000E+00  9.000E+00
      25     1     1     2     0     0  4.250979703E+02 -5.517581230E+01  1.737752658E+02  4.791403736E+02  1.250000000E+02  0.00000E+00  9.000E+00
      25     1     1     2     0     0 -2.895442999E+02  1.623287656E+02 -2.449039921E+01  3.555436814E+02  1.250000000E+02  0.00000E+00  9.000E+00
      21     1     1     2   501   511 -1.355536705E+02 -1.071529533E+02  1.908770365E+02  2.574696022E+02  2.697398305E-06  0.00000E+00  9.000E+00
#rwgt            1           1   2.7004527894502962E-002           6      153419           0
</event>
<event>
      5   9999  3.19816E-02  6.21997E+01 -1.00000E+00  1.33873E-01
      21    -1     0     0   512   501  0.000000000E+00  0.000000000E+00  3.054817431E+02  3.054817431E+02  0.000000000E+00  0.00000E+00  9.000E+00
      21    -1     0     0   501   502  0.000000000E+00  0.000000000E+00 -1.519235452E+02  1.519235452E+02  0.000000000E+00  0.00000E+00  9.000E+00
      25     1     1     2     0     0  1.210269632E+01 -9.225591009E+01  1.679872607E+02  2.291339084E+02  1.250000000E+02  0.00000E+00  9.000E+00
      25     1     1     2     0     0  1.988469176E+01  3.891160147E+01 -6.555489918E+01  1.477564161E+02  1.250000000E+02  0.00000E+00  9.000E+00
      21     1     1     2   512   502 -3.198738809E+01  5.334430862E+01  5.112583637E+01  8.051496385E+01  1.348699152E-06  0.00000E+00  9.000E+00
#rwgt            2          11   2.1206220470142948E-003           6      153578           0
</event>
<event>
      5   9999  3.19816E-02  2.76577E+02 -1.00000E+00  1.06752E-01
       3    -1     0     0   502     0  0.000000000E+00  0.000000000E+00  6.043027670E+02  6.043027670E+02  0.000000000E+00  0.00000E+00  9.000E+00
      21    -1     0     0   501   502  0.000000000E+00  0.000000000E+00 -1.624842732E+03  1.624842732E+03  0.000000000E+00  0.00000E+00  9.000E+00
      25     1     1     2     0     0  2.672356864E+02 -1.755943637E+02 -1.084749149E+02  3.600556899E+02  1.250000000E+02  0.00000E+00  9.000E+00
      25     1     1     2     0     0 -1.099315506E+02  4.030806796E+02 -1.312144513E+03  1.382717326E+03  1.250000000E+02  0.00000E+00  9.000E+00
       3     1     1     2   501     0 -1.573041358E+02 -2.274863159E+02  4.000794634E+02  4.863724828E+02  7.629394531E-06  0.00000E+00  9.000E+00
#rwgt            1           1   2.5088839857561399E-002           6      153613           0
</event>
<event>
      5   9999  3.19816E-02  3.89395E+01 -1.00000E+00  1.45568E-01
      21    -1     0     0   502   511  0.000000000E+00  0.000000000E+00  1.317058360E+02  1.317058360E+02  0.000000000E+00  0.00000E+00  9.000E+00
      21    -1     0     0   501   502  0.000000000E+00  0.000000000E+00 -6.835482147E+02  6.835482147E+02  0.000000000E+00  0.00000E+00  9.000E+00
      25     1     1     2     0     0  5.839801400E+01  1.370858870E+02 -5.728994089E+02  6.050137198E+02  1.250000000E+02  0.00000E+00  9.000E+00
      25     1     1     2     0     0 -3.679041498E+01 -1.046915099E+02  3.112026281E+01  1.700215211E+02  1.250000000E+02  0.00000E+00  9.000E+00
      21     1     1     2   501   511 -2.160759902E+01 -3.239437711E+01 -1.006323261E+01  4.021880970E+01  7.251217997E-07  0.00000E+00  9.000E+00
#rwgt            1           1   2.8891162684633643E-002           6      153672           0
</event>
<event>
      5   9999  3.19816E-02  2.42247E+02 -1.00000E+00  1.08700E-01
       1    -1     0     0   502     0  0.000000000E+00  0.000000000E+00  1.700727121E+03  1.700727121E+03  0.000000000E+00  0.00000E+00  9.000E+00
      21    -1     0     0   501   502  0.000000000E+00  0.000000000E+00 -2.728096824E+02  2.728096824E+02  0.000000000E+00  0.00000E+00  9.000E+00
      25     1     1     2     0     0  2.670829289E+02 -2.533491068E+02  6.947778847E+02  7.961534839E+02  1.250000000E+02  0.00000E+00  9.000E+00
      25     1     1     2     0     0 -4.838572182E+02  1.452180075E+02  7.730209493E+02  9.318757779E+02  1.250000000E+02  0.00000E+00  9.000E+00
       1     1     1     2   501     0  2.167742893E+02  1.081310993E+02 -3.988139567E+01  2.455075414E+02  9.536743164E-07  0.00000E+00  9.000E+00
#rwgt            1           1   2.9188666746083426E-002           6      153813           0
</event>
<event>
      5   9999  3.19816E-02  1.52251E+01 -1.00000E+00  1.76776E-01
       1    -1     0     0   502     0  0.000000000E+00  0.000000000E+00  1.120543222E+03  1.120543222E+03  0.000000000E+00  0.00000E+00  9.000E+00
      21    -1     0     0   501   502  0.000000000E+00  0.000000000E+00 -2.232513906E+03  2.232513906E+03  0.000000000E+00  0.00000E+00  9.000E+00
      25     1     1     2     0     0 -2.788802790E+02  5.274226763E+02  5.608764780E+02  8.283455276E+02  1.250000000E+02  0.00000E+00  9.000E+00
      25     1     1     2     0     0  2.762792551E+02 -5.124213802E+02 -2.056394703E+03  2.140861993E+03  1.250000000E+02  0.00000E+00  9.000E+00
       1     1     1     2   501     0  2.601023926E+00 -1.500129607E+01  3.835475416E+02  3.838496071E+02  7.629394531E-06  0.00000E+00  9.000E+00
#rwgt            1           1   4.9843202083077992E-002           6      153880           0
</event>
<event>
      5   9999  3.19816E-02  8.82625E+01 -1.00000E+00  1.26317E-01
      21    -1     0     0   502   511  0.000000000E+00  0.000000000E+00  6.172136360E+02  6.172136360E+02  0.000000000E+00  0.00000E+00  9.000E+00
      21    -1     0     0   501   502  0.000000000E+00  0.000000000E+00 -1.001075709E+03  1.001075709E+03  0.000000000E+00  0.00000E+00  9.000E+00
      25     1     1     2     0     0  5.732664586E+02 -1.869636072E+02 -5.544293288E+02  8.286173445E+02  1.250000000E+02  0.00000E+00  9.000E+00
      25     1     1     2     0     0 -6.155308510E+02  2.644490643E+02  1.652771356E+02  7.012510732E+02  1.250000000E+02  0.00000E+00  9.000E+00
      21     1     1     2   501   511  4.226439241E+01 -7.748545705E+01  5.290120672E+00  8.842092680E+01  1.704734522E-06  0.00000E+00  9.000E+00
#rwgt            1           1   2.6995596473712222E-002           6      154253           0
</event>
<event>
      5   9999  3.19816E-02  2.69137E+01 -1.00000E+00  1.56388E-01
      21    -1     0     0   502   512  0.000000000E+00  0.000000000E+00  1.996541228E+02  1.996541228E+02  0.000000000E+00  0.00000E+00  9.000E+00
      21    -1     0     0   501   502  0.000000000E+00  0.000000000E+00 -2.653706076E+02  2.653706076E+02  0.000000000E+00  0.00000E+00  9.000E+00
      25     1     1     2     0     0 -8.953968599E+01  8.158917071E+01  9.791915239E+01  1.997180727E+02  1.250000000E+02  0.00000E+00  9.000E+00
      25     1     1     2     0     0  6.272879001E+01 -7.923889698E+01 -1.736146359E+02  2.366025057E+02  1.250000000E+02  0.00000E+00  9.000E+00
      21     1     1     2   501   512  2.681089597E+01 -2.350273738E+00  9.978998697E+00  2.870415204E+01  6.419616708E-07  0.00000E+00  9.000E+00
#rwgt            1           1   2.8167923655703572E-002           6      154383           0
</event>
<event>
      5   9999  3.19816E-02  2.17758E+01 -1.00000E+00  1.63377E-01
      21    -1     0     0   502   511  0.000000000E+00  0.000000000E+00  6.326807823E+02  6.326807823E+02  0.000000000E+00  0.00000E+00  9.000E+00
      21    -1     0     0   501   502  0.000000000E+00  0.000000000E+00 -4.495189011E+02  4.495189011E+02  0.000000000E+00  0.00000E+00  9.000E+00
      25     1     1     2     0     0 -3.085527174E+02 -1.535190939E+02  2.153236522E+02  4.251613420E+02  1.250000000E+02  0.00000E+00  9.000E+00
      25     1     1     2     0     0  3.169842370E+02  1.735963675E+02 -2.377539364E+02  4.502961688E+02  1.250000000E+02  0.00000E+00  9.000E+00
      21     1     1     2   501   511 -8.431519687E+00 -2.007727357E+01  2.055921655E+02  2.067421726E+02  2.697398305E-06  0.00000E+00  9.000E+00
#rwgt            1           1   3.0322588109515998E-002           6      154499           0
</event>
<event>
      5   9999  3.19816E-02  1.32504E+01 -1.00000E+00  1.82613E-01
      21    -1     0     0   502   501  0.000000000E+00  0.000000000E+00  1.237388051E+02  1.237388051E+02  0.000000000E+00  0.00000E+00  9.000E+00
      21    -1     0     0   501   512  0.000000000E+00  0.000000000E+00 -3.168399114E+03  3.168399114E+03  0.000000000E+00  0.00000E+00  9.000E+00
      25     1     1     2     0     0 -1.074955163E+02  6.988151296E+00 -2.932804279E+03  2.937442775E+03  1.250000000E+02  0.00000E+00  9.000E+00
      25     1     1     2     0     0  1.131827614E+02  4.979676517E+00  6.244774389E+01  1.798884526E+02  1.250000000E+02  0.00000E+00  9.000E+00
      21     1     1     2   502   512 -5.687245068E+00 -1.196782781E+01 -1.743037740E+02  1.748066912E+02  3.303624740E-06  0.00000E+00  9.000E+00
#rwgt            1           1   6.3098465604594700E-002           6      154737           0
</event>
<event>
      5   9999  3.19816E-02  1.06969E+02 -1.00000E+00  1.22526E-01
      21    -1     0     0   511   501  0.000000000E+00  0.000000000E+00  3.738163780E+02  3.738163780E+02  0.000000000E+00  0.00000E+00  9.000E+00
      21    -1     0     0   501   502  0.000000000E+00  0.000000000E+00 -6.796212493E+02  6.796212493E+02  0.000000000E+00  0.00000E+00  9.000E+00
      25     1     1     2     0     0 -2.230629506E+02 -2.481346457E+02  1.466285233E+02  3.852957386E+02  1.250000000E+02  0.00000E+00  9.000E+00
      25     1     1     2     0     0  2.940594789E+02  1.681228618E+02 -4.250963860E+02  5.577348933E+02  1.250000000E+02  0.00000E+00  9.000E+00
      21     1     1     2   511   502 -7.099652828E+01  8.001178395E+01 -2.733700856E+01  1.104069954E+02  1.719260824E-06  0.00000E+00  9.000E+00
#rwgt            1           1   2.7513519305830219E-002           6      154983           0
</event>
<event>
      5   9999  3.19816E-02  7.97410E+01 -1.00000E+00  1.28418E-01
      21    -1     0     0   502   501  0.000000000E+00  0.000000000E+00  4.564854972E+02  4.564854972E+02  0.000000000E+00  0.00000E+00  9.000E+00
      21    -1     0     0   512   502  0.000000000E+00  0.000000000E+00 -3.835408808E+02  3.835408808E+02  0.000000000E+00  0.00000E+00  9.000E+00
      25     1     1     2     0     0  1.986686006E+02  2.039285353E+02  2.420718740E+01  3.118766555E+02  1.250000000E+02  0.00000E+00  9.000E+00
      25     1     1     2     0     0 -2.664470345E+02 -1.619201358E+02  1.750390198E+02  3.787820099E+02  1.250000000E+02  0.00000E+00  9.000E+00
      21     1     1     2   512   501  6.777843399E+01 -4.200839948E+01 -1.263015908E+02  1.493677126E+02  2.697398305E-06  0.00000E+00  9.000E+00
#rwgt            1           1   2.5365149807674656E-002           6      155047           0
</event>
<event>
      5   9999  3.19816E-02  1.09697E+02 -1.00000E+00  1.22047E-01
      21    -1     0     0   502   501  0.000000000E+00  0.000000000E+00  1.101275797E+03  1.101275797E+03  0.000000000E+00  0.00000E+00  9.000E+00
      21    -1     0     0   511   502  0.000000000E+00  0.000000000E+00 -2.124462259E+02  2.124462259E+02  0.000000000E+00  0.00000E+00  9.000E+00
      25     1     1     2     0     0 -2.919364565E+02 -9.807243960E+01  9.462230882E+01  3.455770238E+02  1.250000000E+02  0.00000E+00  9.000E+00
      25     1     1     2     0     0  3.833223596E+02  1.587525914E+02  7.014047665E+02  8.244586485E+02  1.250000000E+02  0.00000E+00  9.000E+00
      21     1     1     2   511   501 -9.138590313E+01 -6.068015178E+01  9.280249557E+01  1.436863504E+02  1.907348633E-06  0.00000E+00  9.000E+00
#rwgt            1           1   2.9241597635017571E-002           6      155141           0
</event>
<event>
      5   9999  3.19816E-02  7.35572E+01 -1.00000E+00  1.30140E-01
      21    -1     0     0   502   501  0.000000000E+00  0.000000000E+00  1.186492996E+03  1.186492996E+03  0.000000000E+00  0.00000E+00  9.000E+00
      21    -1     0     0   512   502  0.000000000E+00  0.000000000E+00 -1.953781940E+02  1.953781940E+02  0.000000000E+00  0.00000E+00  9.000E+00
      25     1     1     2     0     0  3.021782975E+02  1.810210010E+00  3.540892980E+02  4.819950532E+02  1.250000000E+02  0.00000E+00  9.000E+00
      25     1     1     2     0     0 -3.685757422E+02 -3.346526691E+01  7.009335677E+02  8.024343388E+02  1.250000000E+02  0.00000E+00  9.000E+00
      21     1     1     2   512   501  6.639744471E+01  3.165505690E+01 -6.390806397E+01  9.744179766E+01  2.023048729E-06  0.00000E+00  9.000E+00
#rwgt            1           1   2.9010677949974160E-002           6      155244           0
</event>
<event>
      5   9999  3.19816E-02  1.21034E+02 -1.00000E+00  1.20210E-01
      21    -1     0     0   502   511  0.000000000E+00  0.000000000E+00  2.677066379E+02  2.677066379E+02  0.000000000E+00  0.00000E+00  9.000E+00
      21    -1     0     0   501   502  0.000000000E+00  0.000000000E+00 -1.752444490E+03  1.752444490E+03  0.000000000E+00  0.00000E+00  9.000E+00
      25     1     1     2     0     0 -3.923090828E+02  1.079417564E+02 -7.177791672E+02  8.344997137E+02  1.250000000E+02  0.00000E+00  9.000E+00
      25     1     1     2     0     0  4.512449845E+02 -2.136568413E+02 -8.803752030E+02  1.019782712E+03  1.250000000E+02  0.00000E+00  9.000E+00
      21     1     1     2   501   511 -5.893590172E+01  1.057150849E+02  1.134165183E+02  1.658687020E+02  5.722045898E-06  0.00000E+00  9.000E+00
#rwgt            1           1   1.7073502036153945E-002           6      155323           0
</event>
<event>
      5   9999  3.19816E-02  1.70991E+02 -1.00000E+00  1.14183E-01
      21    -1     0     0   512   501  0.000000000E+00  0.000000000E+00  1.680422994E+03  1.680422994E+03  0.000000000E+00  0.00000E+00  9.000E+00
      21    -1     0     0   501   502  0.000000000E+00  0.000000000E+00 -3.479094683E+02  3.479094683E+02  0.000000000E+00  0.00000E+00  9.000E+00
      25     1     1     2     0     0  3.457951144E+02  8.848894440E+01  2.820944936E+02  4.718123120E+02  1.250000000E+02  0.00000E+00  9.000E+00
      25     1     1     2     0     0 -4.510730600E+02 -2.232270906E+02  2.739025678E+01  5.192999765E+02  1.250000000E+02  0.00000E+00  9.000E+00
      21     1     1     2   512   502  1.052779457E+02  1.347381462E+02  1.023028775E+03  1.037220174E+03  0.000000000E+00  0.00000E+00  9.000E+00
#rwgt            1           1   3.0316406226612629E-002           6      155375           0
</event>
<event>
      5   9999  3.19816E-02  9.03776E+01 -1.00000E+00  1.25837E-01
      21    -1     0     0   502   501  0.000000000E+00  0.000000000E+00  5.056180837E+02  5.056180837E+02  0.000000000E+00  0.00000E+00  9.000E+00
      21    -1     0     0   511   502  0.000000000E+00  0.000000000E+00 -2.739395143E+02  2.739395143E+02  0.000000000E+00  0.00000E+00  9.000E+00
      25     1     1     2     0     0  1.321476663E+02  2.261708558E+02  1.396968386E+01  2.905794449E+02  1.250000000E+02  0.00000E+00  9.000E+00
      25     1     1     2     0     0 -4.845584420E+01 -1.920564331E+02  2.903374148E+02  3.730341227E+02  1.250000000E+02  0.00000E+00  9.000E+00
      21     1     1     2   511   501 -8.369182215E+01 -3.411442275E+01 -7.262852922E+01  1.159440304E+02  1.348699152E-06  0.00000E+00  9.000E+00
#rwgt            1           1   2.8610977346732805E-002           6      155474           0
</event>
<event>
      5   9999  3.19816E-02  1.37002E+02 -1.00000E+00  1.17975E-01
      21    -1     0     0   502   512  0.000000000E+00  0.000000000E+00  9.900197281E+02  9.900197281E+02  0.000000000E+00  0.00000E+00  9.000E+00
      21    -1     0     0   501   502  0.000000000E+00  0.000000000E+00 -2.976478819E+02  2.976478819E+02  0.000000000E+00  0.00000E+00  9.000E+00
      25     1     1     2     0     0  1.888954910E+02  2.495434073E+02  2.465434668E+02  4.175668804E+02  1.250000000E+02  0.00000E+00  9.000E+00
      25     1     1     2     0     0 -2.676999488E+02 -1.374749556E+02 -7.261831494E+01  3.338578225E+02  1.250000000E+02  0.00000E+00  9.000E+00
      21     1     1     2   501   512  7.880445780E+01 -1.120684516E+02  5.184466944E+02  5.362429071E+02  7.629394531E-06  0.00000E+00  9.000E+00
#rwgt            1           1   2.8420386898738041E-002           6      155526           0
</event>
<event>
      5   9999  3.19816E-02  2.11193E+02 -1.00000E+00  1.10794E-01
      21    -1     0     0   502   501  0.000000000E+00  0.000000000E+00  2.059895999E+02  2.059895999E+02  0.000000000E+00  0.00000E+00  9.000E+00
       2    -1     0     0   501     0  0.000000000E+00  0.000000000E+00 -2.293433602E+03  2.293433602E+03  0.000000000E+00  0.00000E+00  9.000E+00
      25     1     1     2     0     0  3.424451574E+01 -2.183668901E+02 -5.265591170E+02  5.845907024E+02  1.250000000E+02  0.00000E+00  9.000E+00
      25     1     1     2     0     0 -2.448748369E+02  2.029580575E+02 -2.031432746E+00  3.417378902E+02  1.250000000E+02  0.00000E+00  9.000E+00
       2     1     1     2   502     0  2.106303212E+02  1.540883255E+01 -1.558853453E+03  1.573094610E+03  0.000000000E+00  0.00000E+00  9.000E+00
#rwgt            2          13   1.7540482061859384E-003           6      155731           0
</event>
<event>
      5   9999  3.19816E-02  1.33719E+01 -1.00000E+00  1.82217E-01
      21    -1     0     0   502   501  0.000000000E+00  0.000000000E+00  2.309495350E+03  2.309495350E+03  0.000000000E+00  0.00000E+00  9.000E+00
      -2    -1     0     0     0   502  0.000000000E+00  0.000000000E+00 -6.154489212E+01  6.154489212E+01  0.000000000E+00  0.00000E+00  9.000E+00
      25     1     1     2     0     0  1.126081715E+02  7.003925291E+01  9.282152791E+02  9.459358866E+02  1.250000000E+02  0.00000E+00  9.000E+00
      25     1     1     2     0     0 -1.171249602E+02 -8.262516066E+01  1.364856497E+03  1.378043334E+03  1.250000000E+02  0.00000E+00  9.000E+00
      -2     1     1     2     0   501  4.516788724E+00  1.258590775E+01 -4.512131777E+01  4.706102178E+01  2.567846683E-06  0.00000E+00  9.000E+00
#rwgt            1           1   4.4161048902228398E-002           6      155765           0
</event>
<event>
      5   9999  3.19816E-02  2.69018E+01 -1.00000E+00  1.56402E-01
      21    -1     0     0   502   501  0.000000000E+00  0.000000000E+00  1.710958014E+02  1.710958014E+02  0.000000000E+00  0.00000E+00  9.000E+00
      21    -1     0     0   511   502  0.000000000E+00  0.000000000E+00 -1.258276176E+03  1.258276176E+03  0.000000000E+00  0.00000E+00  9.000E+00
      25     1     1     2     0     0  2.622411024E+02 -2.232706607E+02 -2.777771122E+02  4.597883293E+02  1.250000000E+02  0.00000E+00  9.000E+00
      25     1     1     2     0     0 -2.436574099E+02  2.038194129E+02 -2.855953355E+02  4.450853650E+02  1.250000000E+02  0.00000E+00  9.000E+00
      21     1     1     2   511   501 -1.858369243E+01  1.945124779E+01 -5.238079269E+02  5.244982830E+02  7.629394531E-06  0.00000E+00  9.000E+00
#rwgt            1           1   2.7473513295468571E-002           6      155869           0
</event>
<event>
      5   9999  3.19816E-02  1.16934E+02 -1.00000E+00  1.20847E-01
       2    -1     0     0   502     0  0.000000000E+00  0.000000000E+00  1.944350277E+02  1.944350277E+02  0.000000000E+00  0.00000E+00  9.000E+00
      21    -1     0     0   501   502  0.000000000E+00  0.000000000E+00 -7.591189955E+02  7.591189955E+02  0.000000000E+00  0.00000E+00  9.000E+00
      25     1     1     2     0     0 -6.080535840E+01  1.137327376E+02 -5.295334845E+02  5.591628908E+02  1.250000000E+02  0.00000E+00  9.000E+00
      25     1     1     2     0     0  1.270745553E+02 -2.100750389E+02 -1.672484700E+01  2.760148276E+02  1.250000000E+02  0.00000E+00  9.000E+00
       2     1     1     2   501     0 -6.626919693E+01  9.634230121E+01 -1.842563627E+01  1.183763048E+02  1.450243599E-06  0.00000E+00  9.000E+00
#rwgt            1           1   2.8626010908243155E-002           6      156018           0
</event>
<event>
      5   9999  3.19816E-02  6.42963E+00 -1.00000E+00  2.20906E-01
      21    -1     0     0   502   511  0.000000000E+00  0.000000000E+00  8.744706626E+02  8.744706626E+02  0.000000000E+00  0.00000E+00  9.000E+00
      21    -1     0     0   501   502  0.000000000E+00  0.000000000E+00 -4.265161524E+01  4.265161524E+01  0.000000000E+00  0.00000E+00  9.000E+00
      25     1     1     2     0     0  7.997061887E+01  5.095863526E+01  6.537278740E+02  6.722925075E+02  1.250000000E+02  0.00000E+00  9.000E+00
      25     1     1     2     0     0 -7.559552256E+01 -5.567017607E+01  1.523118702E+02  2.182607554E+02  1.250000000E+02  0.00000E+00  9.000E+00
      21     1     1     2   501   511 -4.375096312E+00  4.711540805E+00  2.577930317E+01  2.656901497E+01  3.371747881E-07  0.00000E+00  9.000E+00
#rwgt            1           1   2.7483055325982358E-002           6      156068           0
</event>
<event>
      5   9999  3.19816E-02  1.01460E+03 -1.00000E+00  9.08404E-02
      21    -1     0     0   502   501  0.000000000E+00  0.000000000E+00  1.410769487E+03  1.410769487E+03  0.000000000E+00  0.00000E+00  9.000E+00
      21    -1     0     0   512   502  0.000000000E+00  0.000000000E+00 -1.142175850E+03  1.142175850E+03  0.000000000E+00  0.00000E+00  9.000E+00
      25     1     1     2     0     0 -5.055355458E+02 -2.711921633E+02  7.785635540E+02  9.751397772E+02  1.250000000E+02  0.00000E+00  9.000E+00
      25     1     1     2     0     0 -3.499326872E+02 -2.743161625E+02 -5.251358963E+01  4.648493516E+02  1.250000000E+02  0.00000E+00  9.000E+00
      21     1     1     2   512   501  8.554682330E+02  5.455083258E+02 -4.574563275E+02  1.112956209E+03  9.344061824E-06  0.00000E+00  9.000E+00
#rwgt            2          11   1.6572440328972461E-003           6      156445           0
</event>
<event>
      5   9999  3.19816E-02  1.10535E+01 -1.00000E+00  1.90859E-01
      21    -1     0     0   502   511  0.000000000E+00  0.000000000E+00  9.555095555E+01  9.555095555E+01  0.000000000E+00  0.00000E+00  9.000E+00
      21    -1     0     0   501   502  0.000000000E+00  0.000000000E+00 -4.367749257E+02  4.367749257E+02  0.000000000E+00  0.00000E+00  9.000E+00
      25     1     1     2     0     0 -6.066972902E+01 -1.085089609E+02 -1.568558103E+02  2.359740575E+02  1.250000000E+02  0.00000E+00  9.000E+00
      25     1     1     2     0     0  5.898314948E+01  9.758488535E+01 -2.092675957E+02  2.691091756E+02  1.250000000E+02  0.00000E+00  9.000E+00
      21     1     1     2   501   511  1.686579547E+00  1.092407551E+01  2.489943580E+01  2.724264817E+01  5.840038640E-07  0.00000E+00  9.000E+00
#rwgt            1           1   2.6479694640187523E-002           6      156465           0
</event>
<event>
      5   9999  3.19816E-02  7.23104E+01 -1.00000E+00  1.30510E-01
      21    -1     0     0   502   501  0.000000000E+00  0.000000000E+00  1.200154186E+03  1.200154186E+03  0.000000000E+00  0.00000E+00  9.000E+00
      21    -1     0     0   501   512  0.000000000E+00  0.000000000E+00 -7.963081219E+01  7.963081219E+01  0.000000000E+00  0.00000E+00  9.000E+00
      25     1     1     2     0     0 -9.717206376E+00 -1.774897540E+02  2.139629242E+02  3.049625712E+02  1.250000000E+02  0.00000E+00  9.000E+00
      25     1     1     2     0     0 -5.499864621E+01  2.097490091E+02  8.401639238E+02  8.766526774E+02  1.250000000E+02  0.00000E+00  9.000E+00
      21     1     1     2   502   512  6.471585259E+01 -3.225925509E+01  6.639652597E+01  9.816974980E+01  1.348699152E-06  0.00000E+00  9.000E+00
#rwgt            1           1   2.5538095343186601E-002           6      156603           0
</event>
<event>
      5   9999  3.19816E-02  7.06025E+01 -1.00000E+00  1.31032E-01
      21    -1     0     0   511   501  0.000000000E+00  0.000000000E+00  6.422839571E+01  6.422839571E+01  0.000000000E+00  0.00000E+00  9.000E+00
      21    -1     0     0   501   502  0.000000000E+00  0.000000000E+00 -9.505488862E+02  9.505488862E+02  0.000000000E+00  0.00000E+00  9.000E+00
      25     1     1     2     0     0 -1.503352302E+02 -8.033120163E+01 -3.524338966E+02  4.109603811E+02  1.250000000E+02  0.00000E+00  9.000E+00
      25     1     1     2     0     0  8.154423674E+01  9.622200804E+01 -4.887749572E+02  5.200327837E+02  1.250000000E+02  0.00000E+00  9.000E+00
      21     1     1     2   511   502  6.879099344E+01 -1.589080642E+01 -4.511163677E+01  8.378411711E+01  1.507891493E-06  0.00000E+00  9.000E+00
#rwgt            1           1   3.0097157762950286E-002           6      156684           0
</event>
<event>
      5   9999  3.19816E-02  3.38908E+02 -1.00000E+00  1.03899E-01
      21    -1     0     0   502   501  0.000000000E+00  0.000000000E+00  5.437833167E+02  5.437833167E+02  0.000000000E+00  0.00000E+00  9.000E+00
      21    -1     0     0   501   512  0.000000000E+00  0.000000000E+00 -1.380469303E+03  1.380469303E+03  0.000000000E+00  0.00000E+00  9.000E+00
      25     1     1     2     0     0  4.091378037E+02 -4.627068446E+01  3.600740550E+02  5.610820294E+02  1.250000000E+02  0.00000E+00  9.000E+00
      25     1     1     2     0     0 -1.291629460E+02 -1.447076278E+02 -8.399081389E+02  8.710304506E+02  1.250000000E+02  0.00000E+00  9.000E+00
      21     1     1     2   502   512 -2.799748577E+02  1.909783122E+02 -3.568519021E+02  4.921401393E+02  5.394796609E-06  0.00000E+00  9.000E+00
#rwgt            1           1   3.2283630937347166E-002           6      156722           0
</event>
<event>
      5   9999  3.19816E-02  1.20791E+02 -1.00000E+00  1.20247E-01
      21    -1     0     0   502   501  0.000000000E+00  0.000000000E+00  9.410639933E+01  9.410639933E+01  0.000000000E+00  0.00000E+00  9.000E+00
       2    -1     0     0   501     0  0.000000000E+00  0.000000000E+00 -1.268326971E+03  1.268326971E+03  0.000000000E+00  0.00000E+00  9.000E+00
      25     1     1     2     0     0  7.688372321E+01 -2.926688657E+01 -1.236445032E+02  1.941149678E+02  1.250000000E+02  0.00000E+00  9.000E+00
      25     1     1     2     0     0 -6.881748998E+01  1.497881617E+02 -1.400672725E+02  2.498323060E+02  1.250000000E+02  0.00000E+00  9.000E+00
       2     1     1     2   502     0 -8.066233231E+00 -1.205212752E+02 -9.105087956E+02  9.184860961E+02  1.525878906E-05  0.00000E+00  9.000E+00
#rwgt            1           1   3.1098749208930482E-002           6      156776           0
</event>
<event>
      5   9999  3.19816E-02  3.58796E+01 -1.00000E+00  1.47830E-01
      21    -1     0     0   511   501  0.000000000E+00  0.000000000E+00  1.706803916E+03  1.706803916E+03  0.000000000E+00  0.00000E+00  9.000E+00
      21    -1     0     0   501   502  0.000000000E+00  0.000000000E+00 -1.553452645E+02  1.553452645E+02  0.000000000E+00  0.00000E+00  9.000E+00
      25     1     1     2     0     0 -2.929395707E+02  3.201086141E+02  3.738427708E+02  5.862307857E+02  1.250000000E+02  0.00000E+00  9.000E+00
      25     1     1     2     0     0  2.675742739E+02 -3.454846647E+02  1.071948178E+03  1.164325359E+03  1.250000000E+02  0.00000E+00  9.000E+00
      21     1     1     2   511   502  2.536529680E+01  2.537605059E+01  1.056677030E+02  1.115930360E+02  1.348699152E-06  0.00000E+00  9.000E+00
#rwgt            1           1   3.5212335939780466E-002           6      156817           0
</event>
<event>
      5   9999  3.19816E-02  3.76554E+01 -1.00000E+00  1.46486E-01
      21    -1     0     0   502   501  0.000000000E+00  0.000000000E+00  2.405222211E+02  2.405222211E+02  0.000000000E+00  0.00000E+00  9.000E+00
       2    -1     0     0   501     0  0.000000000E+00  0.000000000E+00 -9.753361551E+02  9.753361551E+02  0.000000000E+00  0.00000E+00  9.000E+00
      25     1     1     2     0     0  7.130828129E+01 -1.662811436E+02 -5.367426087E+01  2.263630181E+02  1.250000000E+02  0.00000E+00  9.000E+00
      25     1     1     2     0     0 -3.691413933E+01  1.816100434E+02  7.243358241E+01  2.349818832E+02  1.250000000E+02  0.00000E+00  9.000E+00
       2     1     1     2   502     0 -3.439414196E+01 -1.532889985E+01 -7.535732556E+02  7.545134748E+02  1.078959322E-05  0.00000E+00  9.000E+00
#rwgt            1           1   2.3600669607150297E-002           6      156979           0
</event>
<event>
      5   9999  3.19816E-02  1.47558E+02 -1.00000E+00  1.16677E-01
      21    -1     0     0   502   501  0.000000000E+00  0.000000000E+00  1.380501694E+03  1.380501694E+03  0.000000000E+00  0.00000E+00  9.000E+00
      21    -1     0     0   501   511  0.000000000E+00  0.000000000E+00 -3.036223052E+03  3.036223052E+03  0.000000000E+00  0.00000E+00  9.000E+00
      25     1     1     2     0     0 -1.626326987E+03 -8.784049974E+02 -6.664775709E+02  1.968845388E+03  1.250000000E+02  0.00000E+00  9.000E+00
      25     1     1     2     0     0  1.652624998E+03  7.332097625E+02 -4.206716024E+02  1.860471858E+03  1.250000000E+02  0.00000E+00  9.000E+00
      21     1     1     2   502   511 -2.629801092E+01  1.451952348E+02 -5.685721852E+02  5.874075003E+02  1.078959322E-05  0.00000E+00  9.000E+00
#rwgt            1           1   2.6491155644210680E-002           6      157184           0
</event>
<event>
      5   9999  3.19816E-02  1.40951E+02 -1.00000E+00  1.17475E-01
      21    -1     0     0   502   501  0.000000000E+00  0.000000000E+00  9.477436483E+01  9.477436483E+01  0.000000000E+00  0.00000E+00  9.000E+00
       1    -1     0     0   501     0  0.000000000E+00  0.000000000E+00 -1.211906144E+03  1.211906144E+03  0.000000000E+00  0.00000E+00  9.000E+00
      25     1     1     2     0     0  1.041255615E+02 -1.936360456E+01 -9.845710305E+01  1.911436184E+02  1.250000000E+02  0.00000E+00  9.000E+00
      25     1     1     2     0     0 -2.168940595E+02  1.039241128E+02 -4.153606175E+02  4.959765084E+02  1.250000000E+02  0.00000E+00  9.000E+00
       1     1     1     2   502     0  1.127684980E+02 -8.456050821E+01 -6.033140588E+02  6.195603822E+02  0.000000000E+00  0.00000E+00  9.000E+00
#rwgt            1           1   2.2343399932479600E-002           6      157262           0
</event>
<event>
      5   9999  3.19816E-02  3.61571E+01 -1.00000E+00  1.47614E-01
      21    -1     0     0   511   501  0.000000000E+00  0.000000000E+00  9.251917036E+02  9.251917036E+02  0.000000000E+00  0.00000E+00  9.000E+00
      21    -1     0     0   501   502  0.000000000E+00  0.000000000E+00 -1.962481120E+02  1.962481120E+02  0.000000000E+00  0.00000E+00  9.000E+00
      25     1     1     2     0     0  3.208276237E+01 -1.512965413E+02  7.971722502E+02  8.216012071E+02  1.250000000E+02  0.00000E+00  9.000E+00
      25     1     1     2     0     0 -6.819418771E+01  1.531134383E+02 -1.166327915E+02  2.394209270E+02  1.250000000E+02  0.00000E+00  9.000E+00
      21     1     1     2   511   502  3.611142535E+01 -1.816897076E+00  4.840413280E+01  6.041768141E+01  9.536743164E-07  0.00000E+00  9.000E+00
#rwgt            1           1   3.1742945059355064E-002           6      157307           0
</event>
<event>
      5   9999  3.19816E-02  1.01017E+02 -1.00000E+00  1.23631E-01
      21    -1     0     0   512   501  0.000000000E+00  0.000000000E+00  7.563486826E+02  7.563486826E+02  0.000000000E+00  0.00000E+00  9.000E+00
      21    -1     0     0   501   502  0.000000000E+00  0.000000000E+00 -1.083308986E+03  1.083308986E+03  0.000000000E+00  0.00000E+00  9.000E+00
      25     1     1     2     0     0  1.358475603E+02 -7.980071952E+01  4.469355544E+02  4.901011164E+02  1.250000000E+02  0.00000E+00  9.000E+00
      25     1     1     2     0     0 -1.560805675E+02  1.787709914E+02 -1.035211044E+03  1.069395678E+03  1.250000000E+02  0.00000E+00  9.000E+00
      21     1     1     2   512   502  2.023300722E+01 -9.897027193E+01  2.613151857E+02  2.801608745E+02  3.814697266E-06  0.00000E+00  9.000E+00
#rwgt            1           1   3.2026186193363400E-002           6      157451           0
</event>
<event>
      5   9999  3.19816E-02  8.64055E+00 -1.00000E+00  2.03391E-01
      21    -1     0     0   502   511  0.000000000E+00  0.000000000E+00  4.295883317E+01  4.295883317E+01  0.000000000E+00  0.00000E+00  9.000E+00
      21    -1     0     0   501   502  0.000000000E+00  0.000000000E+00 -1.408987765E+03  1.408987765E+03  0.000000000E+00  0.00000E+00  9.000E+00
      25     1     1     2     0     0 -5.590873415E+00 -1.886531648E+02 -6.684912448E+02  7.057809992E+02  1.250000000E+02  0.00000E+00  9.000E+00
      25     1     1     2     0     0 -2.910864033E+00  1.901957282E+02 -7.008710159E+02  7.369043826E+02  1.250000000E+02  0.00000E+00  9.000E+00
      21     1     1     2   501   511  8.501737448E+00 -1.542563433E+00  3.333329122E+00  9.261216152E+00  2.920019320E-07  0.00000E+00  9.000E+00
#rwgt            1           1   3.5182604883848390E-002           6      157601           0
</event>
<event>
      5   9999  3.19816E-02  6.87724E+01 -1.00000E+00  1.31611E-01
      21    -1     0     0   502   501  0.000000000E+00  0.000000000E+00  6.646145226E+01  6.646145226E+01  0.000000000E+00  0.00000E+00  9.000E+00
      21    -1     0     0   512   502  0.000000000E+00  0.000000000E+00 -1.158604202E+03  1.158604202E+03  0.000000000E+00  0.00000E+00  9.000E+00
      25     1     1     2     0     0 -4.759255437E+01 -1.762216104E+02 -3.317471435E+02  3.987483849E+02  1.250000000E+02  0.00000E+00  9.000E+00
      25     1     1     2     0     0 -1.953993823E+01  1.911504811E+02 -4.146017158E+02  4.737508821E+02  1.250000000E+02  0.00000E+00  9.000E+00
      21     1     1     2   512   501  6.713249259E+01 -1.492887065E+01 -3.457938910E+02  3.525663878E+02  3.814697266E-06  0.00000E+00  9.000E+00
#rwgt            1           1   2.9409305808389311E-002           6      157787           0
</event>
<event>
      5   9999  3.19816E-02  1.88585E+01 -1.00000E+00  1.68503E-01
      21    -1     0     0   502   501  0.000000000E+00  0.000000000E+00  2.799810333E+02  2.799810333E+02  0.000000000E+00  0.00000E+00  9.000E+00
      21    -1     0     0   501   511  0.000000000E+00  0.000000000E+00 -4.594326022E+02  4.594326022E+02  0.000000000E+00  0.00000E+00  9.000E+00
      25     1     1     2     0     0  1.302938564E+02 -2.656023661E+02 -3.196231897E+01  3.227502064E+02  1.250000000E+02  0.00000E+00  9.000E+00
      25     1     1     2     0     0 -1.279296448E+02  2.468926832E+02 -3.994448906E+01  3.074777280E+02  1.250000000E+02  0.00000E+00  9.000E+00
      21     1     1     2   502   511 -2.364211649E+00  1.870968290E+01 -1.075447609E+02  1.091857011E+02  1.348699152E-06  0.00000E+00  9.000E+00
#rwgt            1           1   2.7857701793340902E-002           6      157934           0
</event>
<event>
      5   9999  3.19816E-02  2.72524E+01 -1.00000E+00  1.55995E-01
      21    -1     0     0   502   501  0.000000000E+00  0.000000000E+00  1.306790924E+02  1.306790924E+02  0.000000000E+00  0.00000E+00  9.000E+00
      21    -1     0     0   501   512  0.000000000E+00  0.000000000E+00 -1.057529199E+03  1.057529199E+03  0.000000000E+00  0.00000E+00  9.000E+00
      25     1     1     2     0     0 -1.793256821E+02  1.172117671E+01 -8.059594140E+01  2.332719272E+02  1.250000000E+02  0.00000E+00  9.000E+00
      25     1     1     2     0     0  1.991807606E+02  6.946080168E+00 -2.019279155E+02  3.100340409E+02  1.250000000E+02  0.00000E+00  9.000E+00
      21     1     1     2   502   512 -1.985507855E+01 -1.866725688E+01 -6.443262493E+02  6.449023230E+02  7.629394531E-06  0.00000E+00  9.000E+00
#rwgt            1           1   2.8682175049486478E-002           6      158093           0
</event>
<event>
      5   9999  3.19816E-02  4.18183E+01 -1.00000E+00  1.43653E-01
      21    -1     0     0   502   501  0.000000000E+00  0.000000000E+00  1.107424493E+03  1.107424493E+03  0.000000000E+00  0.00000E+00  9.000E+00
      21    -1     0     0   511   502  0.000000000E+00  0.000000000E+00 -1.462118544E+03  1.462118544E+03  0.000000000E+00  0.00000E+00  9.000E+00
      25     1     1     2     0     0 -5.463603938E+02  8.103312152E+02  6.066712669E+02  1.157074494E+03  1.250000000E+02  0.00000E+00  9.000E+00
      25     1     1     2     0     0  5.841985125E+02 -7.925254338E+02 -9.131970469E+02  1.348680211E+03  1.250000000E+02  0.00000E+00  9.000E+00
      21     1     1     2   511   501 -3.783811870E+01 -1.780578138E+01 -4.816827079E+01  6.378833270E+01  6.743495762E-07  0.00000E+00  9.000E+00
#rwgt            1           1   4.0816742907356846E-002           6      158204           0
</event>
<event>
      5   9999  3.19816E-02  1.90789E+01 -1.00000E+00  1.68076E-01
      21    -1     0     0   502   501  0.000000000E+00  0.000000000E+00  7.808412819E+02  7.808412819E+02  0.000000000E+00  0.00000E+00  9.000E+00
      21    -1     0     0   501   512  0.000000000E+00  0.000000000E+00 -7.021695077E+01  7.021695077E+01  0.000000000E+00  0.00000E+00  9.000E+00
      25     1     1     2     0     0 -3.891832861E+01  1.575587669E+02  5.254626565E+02  5.639817415E+02  1.250000000E+02  0.00000E+00  9.000E+00
      25     1     1     2     0     0  2.187039330E+01 -1.489929146E+02  1.828884058E+02  2.678625985E+02  1.250000000E+02  0.00000E+00  9.000E+00
      21     1     1     2   502   512  1.704793531E+01 -8.565852235E+00  2.273268907E+00  1.921389274E+01  1.074538015E-07  0.00000E+00  9.000E+00
#rwgt            1           1   2.6742261731300333E-002           6      158356           0
</event>
<event>
      5   9999  3.19816E-02  2.69596E+02 -1.00000E+00  1.07122E-01
      21    -1     0     0   511   501  0.000000000E+00  0.000000000E+00  1.677396136E+02  1.677396136E+02  0.000000000E+00  0.00000E+00  9.000E+00
      21    -1     0     0   501   502  0.000000000E+00  0.000000000E+00 -1.115842397E+03  1.115842397E+03  0.000000000E+00  0.00000E+00  9.000E+00
      25     1     1     2     0     0  7.808517934E+01  1.375241851E+02 -7.605806909E+02  7.868406345E+02  1.250000000E+02  0.00000E+00  9.000E+00
      25     1     1     2     0     0  1.623103116E+01  1.150360525E+02 -4.165586622E+00  1.707017629E+02  1.250000000E+02  0.00000E+00  9.000E+00
      21     1     1     2   511   502 -9.431621049E+01 -2.525602375E+02 -1.833565058E+02  3.260396132E+02  4.672030912E-06  0.00000E+00  9.000E+00
#rwgt            2          11   3.6271136904036305E-003           6      158789           0
</event>
<event>
      5   9999  3.19816E-02  1.91762E+02 -1.00000E+00  1.12317E-01
      21    -1     0     0   502   501  0.000000000E+00  0.000000000E+00  3.387703915E+02  3.387703915E+02  0.000000000E+00  0.00000E+00  9.000E+00
       2    -1     0     0   501     0  0.000000000E+00  0.000000000E+00 -3.755834525E+03  3.755834525E+03  0.000000000E+00  0.00000E+00  9.000E+00
      25     1     1     2     0     0 -2.613163848E+02  7.242273700E+01  2.450099875E+02  3.862462942E+02  1.250000000E+02  0.00000E+00  9.000E+00
      25     1     1     2     0     0  6.980954995E+01 -6.252707994E+01 -2.782861373E+02  3.191413217E+02  1.250000000E+02  0.00000E+00  9.000E+00
       2     1     1     2   502     0  1.915068348E+02 -9.895657066E+00 -3.383787984E+03  3.389217301E+03  4.315837288E-05  0.00000E+00  9.000E+00
#rwgt            1           1   2.8476516336261172E-002           6      158809           0
</event>
<event>
      5   9999  3.19816E-02  8.32685E+01 -1.00000E+00  1.27513E-01
      21    -1     0     0   502   501  0.000000000E+00  0.000000000E+00  2.007742148E+02  2.007742148E+02  0.000000000E+00  0.00000E+00  9.000E+00
      21    -1     0     0   501   511  0.000000000E+00  0.000000000E+00 -1.075791269E+03  1.075791269E+03  0.000000000E+00  0.00000E+00  9.000E+00
      25     1     1     2     0     0  2.900002217E+01  1.932682696E+02  9.255138971E+01  2.497686631E+02  1.250000000E+02  0.00000E+00  9.000E+00
      25     1     1     2     0     0  5.421998461E+01 -1.961097084E+02 -5.290995998E+02  5.804913531E+02  1.250000000E+02  0.00000E+00  9.000E+00
      21     1     1     2   502   511 -8.322000678E+01  2.841438787E+00 -4.384688442E+02  4.463054678E+02  0.000000000E+00  0.00000E+00  9.000E+00
#rwgt            1           1   2.8912669169789237E-002           6      158846           0
</event>
<event>
      5   9999  3.19816E-02  1.10781E+02 -1.00000E+00  1.21860E-01
       2    -1     0     0   502     0  0.000000000E+00  0.000000000E+00  7.636132740E+02  7.636132740E+02  0.000000000E+00  0.00000E+00  9.000E+00
      21    -1     0     0   501   502  0.000000000E+00  0.000000000E+00 -6.547382020E+02  6.547382020E+02  0.000000000E+00  0.00000E+00  9.000E+00
      25     1     1     2     0     0  2.209333492E+02  5.016815122E+02  2.133266263E+02  6.013560792E+02  1.250000000E+02  0.00000E+00  9.000E+00
      25     1     1     2     0     0 -2.256364065E+02 -6.123629624E+02  3.833533765E-01  6.644737261E+02  1.250000000E+02  0.00000E+00  9.000E+00
       2     1     1     2   501     0  4.703057289E+00  1.106814502E+02 -1.048349077E+02  1.525216707E+02  1.348699152E-06  0.00000E+00  9.000E+00
#rwgt            1           1   3.1140221501667953E-002           6      158902           0
</event>
<event>
      5   9999  3.19816E-02  3.00298E+01 -1.00000E+00  1.53010E-01
      21    -1     0     0   502   511  0.000000000E+00  0.000000000E+00  5.600544447E+02  5.600544447E+02  0.000000000E+00  0.00000E+00  9.000E+00
      21    -1     0     0   501   502  0.000000000E+00  0.000000000E+00 -5.411161288E+02  5.411161288E+02  0.000000000E+00  0.00000E+00  9.000E+00
      25     1     1     2     0     0 -1.838962019E+02 -1.035780754E+02 -4.740470631E+02  5.337526101E+02  1.250000000E+02  0.00000E+00  9.000E+00
      25     1     1     2     0     0  1.559042385E+02  9.270419913E+01  3.004377656E+02  3.725426836E+02  1.250000000E+02  0.00000E+00  9.000E+00
      21     1     1     2   501   511  2.799196337E+01  1.087387628E+01  1.925476134E+02  1.948752797E+02  0.000000000E+00  0.00000E+00  9.000E+00
#rwgt            1           1   2.6263338006132706E-002           6      159028           0
</event>
<event>
      5   9999  3.19816E-02  3.65251E+01 -1.00000E+00  1.47331E-01
      21    -1     0     0   502   501  0.000000000E+00  0.000000000E+00  5.333103380E+02  5.333103380E+02  0.000000000E+00  0.00000E+00  9.000E+00
       2    -1     0     0   501     0  0.000000000E+00  0.000000000E+00 -4.015383676E+03  4.015383676E+03  0.000000000E+00  0.00000E+00  9.000E+00
      25     1     1     2     0     0  8.254784730E+02 -1.086903707E+02 -9.510932695E+02  1.270209319E+03  1.250000000E+02  0.00000E+00  9.000E+00
      25     1     1     2     0     0 -8.619099857E+02  1.113035547E+02 -1.422305145E+02  8.894559145E+02  1.250000000E+02  0.00000E+00  9.000E+00
       2     1     1     2   502     0  3.643151269E+01 -2.613183999E+00 -2.388749554E+03  2.389028781E+03  3.051757812E-05  0.00000E+00  9.000E+00
#rwgt            1           1   2.9439404876892908E-002           6      159120           0
</event>
<event>
      5   9999  3.19816E-02  1.21814E+03 -1.00000E+00  8.89802E-02
       1    -1     0     0   502     0  0.000000000E+00  0.000000000E+00  6.393220134E+02  6.393220134E+02  0.000000000E+00  0.00000E+00  9.000E+00
      21    -1     0     0   501   502  0.000000000E+00  0.000000000E+00 -3.829050632E+03  3.829050632E+03  0.000000000E+00  0.00000E+00  9.000E+00
      25     1     1     2     0     0  1.022039785E+02 -1.199232558E+02 -1.227558208E+03  1.243925799E+03  1.250000000E+02  0.00000E+00  9.000E+00
      25     1     1     2     0     0  1.019103457E+03 -3.560273808E+02 -1.634881711E+03  1.963107373E+03  1.250000000E+02  0.00000E+00  9.000E+00
       1     1     1     2   501     0 -1.121307435E+03  4.759506365E+02 -3.272887006E+02  1.261339473E+03  2.191376742E-05  0.00000E+00  9.000E+00
#rwgt            2          17   6.2913812773832272E-005           6      159414           0
</event>
<event>
      5   9999  3.19816E-02  2.67660E+01 -1.00000E+00  1.56562E-01
      21    -1     0     0   502   511  0.000000000E+00  0.000000000E+00  1.239223278E+02  1.239223278E+02  0.000000000E+00  0.00000E+00  9.000E+00
      21    -1     0     0   501   502  0.000000000E+00  0.000000000E+00 -5.331752692E+02  5.331752692E+02  0.000000000E+00  0.00000E+00  9.000E+00
      25     1     1     2     0     0 -1.882227453E+02  4.138421660E+01 -8.259013616E+01  2.441036375E+02  1.250000000E+02  0.00000E+00  9.000E+00
      25     1     1     2     0     0  1.788658864E+02 -1.630700265E+01 -3.155798174E+02  3.840241461E+02  1.250000000E+02  0.00000E+00  9.000E+00
      21     1     1     2   501   511  9.356858933E+00 -2.507721395E+01 -1.108298792E+01  2.896981343E+01  2.665600750E-07  0.00000E+00  9.000E+00
#rwgt            1           1   2.5181537727305910E-002           6      159478           0
</event>
<event>
      5   9999  3.19816E-02  2.93064E+01 -1.00000E+00  1.53749E-01
      21    -1     0     0   502   501  0.000000000E+00  0.000000000E+00  4.769687335E+02  4.769687335E+02  0.000000000E+00  0.00000E+00  9.000E+00
      21    -1     0     0   501   512  0.000000000E+00  0.000000000E+00 -1.500358318E+03  1.500358318E+03  0.000000000E+00  0.00000E+00  9.000E+00
      25     1     1     2     0     0  4.305189014E+02 -4.258896409E+02 -1.087887821E+03  1.251340650E+03  1.250000000E+02  0.00000E+00  9.000E+00
      25     1     1     2     0     0 -4.093357686E+02  4.056377936E+02  1.722478109E+02  6.143224718E+02  1.250000000E+02  0.00000E+00  9.000E+00
      21     1     1     2   502   512 -2.118313280E+01  2.025184731E+01 -1.077495743E+02  1.116639297E+02  1.348699152E-06  0.00000E+00  9.000E+00
#rwgt            1           1   2.8692763771673672E-002           6      159576           0
</event>
<event>
      5   9999  3.19816E-02  1.51678E+01 -1.00000E+00  1.76930E-01
      21    -1     0     0   502   511  0.000000000E+00  0.000000000E+00  2.455368753E+02  2.455368753E+02  0.000000000E+00  0.00000E+00  9.000E+00
      21    -1     0     0   501   502  0.000000000E+00  0.000000000E+00 -4.329769918E+02  4.329769918E+02  0.000000000E+00  0.00000E+00  9.000E+00
      25     1     1     2     0     0  8.449167168E+01 -1.851858179E+02  8.224474028E+01  2.526298222E+02  1.250000000E+02  0.00000E+00  9.000E+00
      25     1     1     2     0     0 -8.458238918E+01  2.003532991E+02 -3.005623785E+02  3.914822709E+02  1.250000000E+02  0.00000E+00  9.000E+00
      21     1     1     2   501   511  9.071749468E-02 -1.516748119E+01  3.087752168E+01  3.440177409E+01  0.000000000E+00  0.00000E+00  9.000E+00
#rwgt            1           1   2.7545949778630324E-002           6      159750           0
</event>
<event>
      5   9999  3.19816E-02  1.20814E+02 -1.00000E+00  1.20244E-01
      21    -1     0     0   512   501  0.000000000E+00  0.000000000E+00  7.729423899E+02  7.729423899E+02  0.000000000E+00  0.00000E+00  9.000E+00
      21    -1     0     0   501   502  0.000000000E+00  0.000000000E+00 -1.592131359E+03  1.592131359E+03  0.000000000E+00  0.00000E+00  9.000E+00
      25     1     1     2     0     0 -6.028600469E+02 -2.897417548E+01 -1.342711300E+03  1.477422883E+03  1.250000000E+02  0.00000E+00  9.000E+00
      25     1     1     2     0     0  5.755633463E+02 -8.871617174E+01  4.460601814E+02  7.441360159E+02  1.250000000E+02  0.00000E+00  9.000E+00
      21     1     1     2   512   502  2.729670060E+01  1.176903472E+02  7.746214951E+01  1.435148504E+02  2.861022949E-06  0.00000E+00  9.000E+00
#rwgt            2          11   8.9984074954839038E-003           6      160032           0
</event>
<event>
      5   9999  3.19816E-02  1.57524E+02 -1.00000E+00  1.15557E-01
      21    -1     0     0   502   501  0.000000000E+00  0.000000000E+00  3.036270878E+02  3.036270878E+02  0.000000000E+00  0.00000E+00  9.000E+00
      21    -1     0     0   511   502  0.000000000E+00  0.000000000E+00 -5.274342734E+02  5.274342734E+02  0.000000000E+00  0.00000E+00  9.000E+00
      25     1     1     2     0     0  6.352625802E+01 -2.295962563E+02 -1.291618573E+02  2.984255548E+02  1.250000000E+02  0.00000E+00  9.000E+00
      25     1     1     2     0     0  8.908662144E+01  1.905699598E+02  1.150235824E+02  2.703863166E+02  1.250000000E+02  0.00000E+00  9.000E+00
      21     1     1     2   511   501 -1.526128795E+02  3.902629646E+01 -2.096689107E+02  2.622494898E+02  4.672030912E-06  0.00000E+00  9.000E+00
#rwgt            1           1   2.9624637894061168E-002           6      160052           0
</event>
<event>
      5   9999  3.19816E-02  3.23446E+01 -1.00000E+00  1.50804E-01
       1    -1     0     0   502     0  0.000000000E+00  0.000000000E+00  1.211294284E+03  1.211294284E+03  0.000000000E+00  0.00000E+00  9.000E+00
      21    -1     0     0   501   502  0.000000000E+00  0.000000000E+00 -4.787537798E+02  4.787537798E+02  0.000000000E+00  0.00000E+00  9.000E+00
      25     1     1     2     0     0  3.863604954E+01 -3.394890625E+02  8.864315809E+02  9.581917947E+02  1.250000000E+02  0.00000E+00  9.000E+00
      25     1     1     2     0     0 -3.274392434E+01  3.076856297E+02 -3.786849414E+02  5.047473588E+02  1.250000000E+02  0.00000E+00  9.000E+00
       1     1     1     2   501     0 -5.892125199E+00  3.180343285E+01  2.247938646E+02  2.271089101E+02  4.672030912E-06  0.00000E+00  9.000E+00
#rwgt            1           1   2.0395556319735005E-002           6      160106           0
</event>
<event>
      5   9999  3.19816E-02  1.02558E+01 -1.00000E+00  1.94498E-01
      21    -1     0     0   502   501  0.000000000E+00  0.000000000E+00  1.839457195E+02  1.839457195E+02  0.000000000E+00  0.00000E+00  9.000E+00
      21    -1     0     0   501   511  0.000000000E+00  0.000000000E+00 -3.761743154E+02  3.761743154E+02  0.000000000E+00  0.00000E+00  9.000E+00
      25     1     1     2     0     0 -3.483259201E+01 -1.245279330E+02  6.115803451E+01  1.899626825E+02  1.250000000E+02  0.00000E+00  9.000E+00
      25     1     1     2     0     0  3.818202938E+01  1.342213513E+02 -9.248629888E+01  2.089305004E+02  1.250000000E+02  0.00000E+00  9.000E+00
      21     1     1     2   502   511 -3.349437374E+00 -9.693418229E+00 -1.609003316E+02  1.612268519E+02  0.000000000E+00  0.00000E+00  9.000E+00
#rwgt            1           1   2.8347988300360238E-002           6      160266           0
</event>
<event>
      5   9999  3.19816E-02  8.78940E+01 -1.00000E+00  1.26402E-01
      21    -1     0     0   502   501  0.000000000E+00  0.000000000E+00  3.360452560E+02  3.360452560E+02  0.000000000E+00  0.00000E+00  9.000E+00
      21    -1     0     0   501   512  0.000000000E+00  0.000000000E+00 -3.027678484E+02  3.027678484E+02  0.000000000E+00  0.00000E+00  9.000E+00
      25     1     1     2     0     0  1.070562106E+02 -8.178552412E+01  1.813752792E+02  2.582090163E+02  1.250000000E+02  0.00000E+00  9.000E+00
      25     1     1     2     0     0 -1.942661282E+02  9.273056215E+01 -5.977734837E+01  2.560012053E+02  1.250000000E+02  0.00000E+00  9.000E+00
      21     1     1     2   502   512  8.720991760E+01 -1.094503803E+01 -8.832052325E+01  1.246028828E+02  2.336015456E-06  0.00000E+00  9.000E+00
#rwgt            1           1   2.8088083038741902E-002           6      160387           0
</event>
<event>
      5   9999  3.19816E-02  2.11042E+02 -1.00000E+00  1.10805E-01
      21    -1     0     0   502   501  0.000000000E+00  0.000000000E+00  1.387876246E+03  1.387876246E+03  0.000000000E+00  0.00000E+00  9.000E+00
      21    -1     0     0   511   502  0.000000000E+00  0.000000000E+00 -3.000165840E+02  3.000165840E+02  0.000000000E+00  0.00000E+00  9.000E+00
      25     1     1     2     0     0  3.959787423E+02 -1.899671926E+02  9.812428584E+02  1.082288892E+03  1.250000000E+02  0.00000E+00  9.000E+00
      25     1     1     2     0     0 -1.964456224E+02  1.212269023E+02  2.402146319E+02  3.558298944E+02  1.250000000E+02  0.00000E+00  9.000E+00
      21     1     1     2   511   501 -1.995331199E+02  6.874029036E+01 -1.335978278E+02  2.497740440E+02  4.672030912E-06  0.00000E+00  9.000E+00
#rwgt            1           1   2.8395276303310311E-002           6      160439           0
</event>
<event>
      5   9999  3.19816E-02  3.62573E+01 -1.00000E+00  1.47537E-01
      21    -1     0     0   502   501  0.000000000E+00  0.000000000E+00  2.058578840E+02  2.058578840E+02  0.000000000E+00  0.00000E+00  9.000E+00
      21    -1     0     0   501   512  0.000000000E+00  0.000000000E+00 -5.859467747E+02  5.859467747E+02  0.000000000E+00  0.00000E+00  9.000E+00
      25     1     1     2     0     0 -6.468440128E+01 -6.886357004E+01  6.003966713E-01  1.566895769E+02  1.250000000E+02  0.00000E+00  9.000E+00
      25     1     1     2     0     0  6.446777875E+01  1.051201890E+02  6.553529297E+01  1.874199116E+02  1.250000000E+02  0.00000E+00  9.000E+00
      21     1     1     2   502   512  2.166225351E-01 -3.625661894E+01 -4.462245803E+02  4.476951702E+02  0.000000000E+00  0.00000E+00  9.000E+00
#rwgt            1           1   2.7273384671781326E-002           6      160479           0
</event>
<event>
      5   9999  3.19816E-02  1.33687E+02 -1.00000E+00  1.18410E-01
      21    -1     0     0   511   501  0.000000000E+00  0.000000000E+00  9.202589388E+02  9.202589388E+02  0.000000000E+00  0.00000E+00  9.000E+00
      21    -1     0     0   501   502  0.000000000E+00  0.000000000E+00 -7.675510434E+02  7.675510434E+02  0.000000000E+00  0.00000E+00  9.000E+00
      25     1     1     2     0     0 -6.387311574E+02  2.455601921E+02 -8.717553056E+01  7.010719453E+02  1.250000000E+02  0.00000E+00  9.000E+00
      25     1     1     2     0     0  7.719613495E+02 -2.566072382E+02  1.963123796E+02  8.461295115E+02  1.250000000E+02  0.00000E+00  9.000E+00
      21     1     1     2   511   502 -1.332301921E+02  1.104704602E+01  4.357104639E+01  1.406085253E+02  3.198720900E-06  0.00000E+00  9.000E+00
#rwgt            1           1   3.1816171380988710E-002           6      160604           0
</event>
<event>
      5   9999  3.19816E-02  2.69075E+01 -1.00000E+00  1.56396E-01
      21    -1     0     0   502   501  0.000000000E+00  0.000000000E+00  8.829979099E+02  8.829979099E+02  0.000000000E+00  0.00000E+00  9.000E+00
      21    -1     0     0   512   502  0.000000000E+00  0.000000000E+00 -5.126786876E+02  5.126786876E+02  0.000000000E+00  0.00000E+00  9.000E+00
      25     1     1     2     0     0 -2.001185468E+02  3.597007021E+02  1.931068171E+02  4.715371361E+02  1.250000000E+02  0.00000E+00  9.000E+00
      25     1     1     2     0     0  2.210872491E+02 -3.765627356E+02  4.562591162E+02  6.437984519E+02  1.250000000E+02  0.00000E+00  9.000E+00
      21     1     1     2   512   501 -2.096870229E+01  1.686203343E+01 -2.790467110E+02  2.803410095E+02  3.814697266E-06  0.00000E+00  9.000E+00
#rwgt            1           1   3.3019259109657410E-002           6      160701           0
</event>
<event>
      5   9999  3.19816E-02  7.59563E+01 -1.00000E+00  1.29449E-01
      21    -1     0     0   502   511  0.000000000E+00  0.000000000E+00  1.575061827E+03  1.575061827E+03  0.000000000E+00  0.00000E+00  9.000E+00
      21    -1     0     0   501   502  0.000000000E+00  0.000000000E+00 -9.748774943E+01  9.748774943E+01  0.000000000E+00  0.00000E+00  9.000E+00
      25     1     1     2     0     0 -1.189413160E+02  5.432812768E+01  1.267092918E+03  1.279940641E+03  1.250000000E+02  0.00000E+00  9.000E+00
      25     1     1     2     0     0  5.069334032E+01 -8.766842668E+01 -8.228936329E+00  1.610847081E+02  1.250000000E+02  0.00000E+00  9.000E+00
      21     1     1     2   501   511  6.824797570E+01  3.334029900E+01  2.187100966E+02  2.315242279E+02  2.697398305E-06  0.00000E+00  9.000E+00
#rwgt            1           1   2.7897049325198986E-002           6      160835           0
</event>
<event>
      5   9999  3.19816E-02  1.12525E+02 -1.00000E+00  1.21566E-01
      21    -1     0     0   502   501  0.000000000E+00  0.000000000E+00  4.704060368E+02  4.704060368E+02  0.000000000E+00  0.00000E+00  9.000E+00
      21    -1     0     0   501   512  0.000000000E+00  0.000000000E+00 -2.241284553E+03  2.241284553E+03  0.000000000E+00  0.00000E+00  9.000E+00
      25     1     1     2     0     0  8.740795549E+01  2.246584300E+02 -6.649789664E+02  7.182851708E+02  1.250000000E+02  0.00000E+00  9.000E+00
      25     1     1     2     0     0 -1.563258484E+02 -3.136095059E+02  3.632424844E+02  5.199603788E+02  1.250000000E+02  0.00000E+00  9.000E+00
      21     1     1     2   502   512  6.891789293E+01  8.895107581E+01 -1.469142035E+03  1.473445041E+03  2.157918644E-05  0.00000E+00  9.000E+00
#rwgt            1           1   2.8886222331555113E-002           6      160927           0
</event>
<event>
      5   9999  3.19816E-02  4.30172E+01 -1.00000E+00  1.42908E-01
      21    -1     0     0   502   501  0.000000000E+00  0.000000000E+00  1.688514154E+02  1.688514154E+02  0.000000000E+00  0.00000E+00  9.000E+00
      21    -1     0     0   511   502  0.000000000E+00  0.000000000E+00 -1.526482009E+03  1.526482009E+03  0.000000000E+00  0.00000E+00  9.000E+00
      25     1     1     2     0     0 -2.795588376E+02  2.754364277E+02 -8.759632877E+02  9.679643851E+02  1.250000000E+02  0.00000E+00  9.000E+00
      25     1     1     2     0     0  3.218746622E+02 -2.831727329E+02 -2.935667768E+02  5.344123383E+02  1.250000000E+02  0.00000E+00  9.000E+00
      21     1     1     2   511   501 -4.231582454E+01  7.736305241E+00 -1.881005291E+02  1.929567010E+02  2.697398305E-06  0.00000E+00  9.000E+00
#rwgt            1           1   2.7883791637397064E-002           6      161050           0
</event>
<event>
      5   9999  3.19816E-02  2.36858E+01 -1.00000E+00  1.60528E-01
      21    -1     0     0   502   512  0.000000000E+00  0.000000000E+00  1.102571999E+03  1.102571999E+03  0.000000000E+00  0.00000E+00  9.000E+00
      21    -1     0     0   501   502  0.000000000E+00  0.000000000E+00 -1.562725578E+02  1.562725578E+02  0.000000000E+00  0.00000E+00  9.000E+00
      25     1     1     2     0     0  1.399911365E+02  1.338642827E+02 -1.302083640E+01  2.308932798E+02  1.250000000E+02  0.00000E+00  9.000E+00
      25     1     1     2     0     0 -1.382395683E+02 -1.574852635E+02  4.028901911E+02  4.710172954E+02  1.250000000E+02  0.00000E+00  9.000E+00
      21     1     1     2   501   512 -1.751568270E+00  2.362098077E+01  5.564300866E+02  5.569339817E+02  7.629394531E-06  0.00000E+00  9.000E+00
#rwgt            1           1   2.4195740985320107E-002           6      161227           0
</event>
<event>
      5   9999  3.19816E-02  6.62057E+00 -1.00000E+00  2.19032E-01
      21    -1     0     0   502   501  0.000000000E+00  0.000000000E+00  7.961337767E+02  7.961337767E+02  0.000000000E+00  0.00000E+00  9.000E+00
      21    -1     0     0   511   502  0.000000000E+00  0.000000000E+00 -8.076043558E+02  8.076043558E+02  0.000000000E+00  0.00000E+00  9.000E+00
      25     1     1     2     0     0  5.941284102E+01  8.962829681E+00  7.248416862E+02  7.379909810E+02  1.250000000E+02  0.00000E+00  9.000E+00
      25     1     1     2     0     0 -5.362152648E+01 -1.217104478E+01 -7.352100420E+00  1.367569224E+02  1.250000000E+02  0.00000E+00  9.000E+00
      21     1     1     2   511   501 -5.791314541E+00  3.208215102E+00 -7.289601649E+02  7.289902290E+02  0.000000000E+00  0.00000E+00  9.000E+00
#rwgt            1           1   3.3209910669319179E-002           6      161373           0
</event>
<event>
      5   9999  3.19816E-02  4.91839E+01 -1.00000E+00  1.39485E-01
      21    -1     0     0   502   512  0.000000000E+00  0.000000000E+00  1.083574639E+03  1.083574639E+03  0.000000000E+00  0.00000E+00  9.000E+00
      21    -1     0     0   501   502  0.000000000E+00  0.000000000E+00 -1.791973175E+02  1.791973175E+02  0.000000000E+00  0.00000E+00  9.000E+00
      25     1     1     2     0     0  3.074803101E+02  3.093253883E+01  7.629231715E+02  8.325729570E+02  1.250000000E+02  0.00000E+00  9.000E+00
      25     1     1     2     0     0 -3.233095411E+02  1.563448766E+01  8.884271850E+01  3.581780635E+02  1.250000000E+02  0.00000E+00  9.000E+00
      21     1     1     2   501   512  1.582923100E+01 -4.656702650E+01  5.261143150E+01  7.202093609E+01  0.000000000E+00  0.00000E+00  9.000E+00
#rwgt            1           1   2.7235790834622079E-002           6      161641           0
</event>
<event>
      5   9999  3.19816E-02  6.90909E+00 -1.00000E+00  2.16359E-01
      21    -1     0     0   502   501  0.000000000E+00  0.000000000E+00  4.089747069E+02  4.089747069E+02  0.000000000E+00  0.00000E+00  9.000E+00
      21    -1     0     0   501   511  0.000000000E+00  0.000000000E+00 -2.896108782E+03  2.896108782E+03  0.000000000E+00  0.00000E+00  9.000E+00
      25     1     1     2     0     0  3.182129394E+01 -2.131036877E+01  3.388816063E+02  3.632250950E+02  1.250000000E+02  0.00000E+00  9.000E+00
      25     1     1     2     0     0 -3.702138102E+01  1.676122804E+01 -1.665723544E+01  1.324914522E+02  1.250000000E+02  0.00000E+00  9.000E+00
      21     1     1     2   502   511  5.200087077E+00  4.549140722E+00 -2.809358446E+03  2.809366941E+03  3.051757812E-05  0.00000E+00  9.000E+00
#rwgt            1           1   2.6485625365121345E-002           6      161809           0
</event>
<event>
      5   9999  3.19816E-02  8.20918E+01 -1.00000E+00  1.27809E-01
      21    -1     0     0   502   501  0.000000000E+00  0.000000000E+00  1.066928048E+03  1.066928048E+03  0.000000000E+00  0.00000E+00  9.000E+00
      21    -1     0     0   501   512  0.000000000E+00  0.000000000E+00 -1.332815632E+03  1.332815632E+03  0.000000000E+00  0.00000E+00  9.000E+00
      25     1     1     2     0     0  7.944515305E+02 -3.967477300E+02 -8.004870662E+02  1.202067610E+03  1.250000000E+02  0.00000E+00  9.000E+00
      25     1     1     2     0     0 -7.493054928E+02  4.653107891E+02  6.152071847E+02  1.082625389E+03  1.250000000E+02  0.00000E+00  9.000E+00
      21     1     1     2   502   512 -4.514603770E+01 -6.856305911E+01 -8.060770208E+01  1.150506820E+02  1.651812370E-06  0.00000E+00  9.000E+00
#rwgt            1           1   2.6251017921947447E-002           6      162057           0
</event>
<event>
      5   9999  3.19816E-02  3.81983E+01 -1.00000E+00  1.46093E-01
      21    -1     0     0   502   511  0.000000000E+00  0.000000000E+00  8.392176740E+02  8.392176740E+02  0.000000000E+00  0.00000E+00  9.000E+00
      21    -1     0     0   501   502  0.000000000E+00  0.000000000E+00 -4.013044417E+02  4.013044417E+02  0.000000000E+00  0.00000E+00  9.000E+00
      25     1     1     2     0     0 -5.289978481E+01  5.398190008E+02  1.650167355E+02  5.805673637E+02  1.250000000E+02  0.00000E+00  9.000E+00
      25     1     1     2     0     0  1.538770097E+01 -5.470269224E+02  2.440860250E+02  6.121096493E+02  1.250000000E+02  0.00000E+00  9.000E+00
      21     1     1     2   501   511  3.751208384E+01  7.207921623E+00  2.881047172E+01  4.784510267E+01  9.536743164E-07  0.00000E+00  9.000E+00
#rwgt            1           1   2.5605373890298561E-002           6      162224           0
</event>
<event>
      5   9999  3.19816E-02  1.09576E+02 -1.00000E+00  1.22068E-01
      21    -1     0     0   502   512  0.000000000E+00  0.000000000E+00  1.025678131E+03  1.025678131E+03  0.000000000E+00  0.00000E+00  9.000E+00
      21    -1     0     0   501   502  0.000000000E+00  0.000000000E+00 -5.300662669E+02  5.300662669E+02  0.000000000E+00  0.00000E+00  9.000E+00
      25     1     1     2     0     0 -3.068422935E+02  4.485033576E+02 -1.139012140E+02  5.691273507E+02  1.250000000E+02  0.00000E+00  9.000E+00
      25     1     1     2     0     0  3.423528946E+02 -5.521661757E+02  4.824175276E+02  8.188068520E+02  1.250000000E+02  0.00000E+00  9.000E+00
      21     1     1     2   501   512 -3.551060113E+01  1.036628181E+02  1.270955503E+02  1.678101951E+02  3.015782986E-06  0.00000E+00  9.000E+00
#rwgt            1           1   3.0873751205799733E-002           6      162330           0
</event>
<event>
      5   9999  3.19816E-02  2.60248E+01 -1.00000E+00  1.57455E-01
      21    -1     0     0   502   511  0.000000000E+00  0.000000000E+00  1.190241928E+03  1.190241928E+03  0.000000000E+00  0.00000E+00  9.000E+00
      21    -1     0     0   501   502  0.000000000E+00  0.000000000E+00 -3.821580159E+01  3.821580159E+01  0.000000000E+00  0.00000E+00  9.000E+00
      25     1     1     2     0     0  1.017503094E+02 -8.253969932E+01  7.372957112E+02  7.592074112E+02  1.250000000E+02  0.00000E+00  9.000E+00
      25     1     1     2     0     0 -8.374269466E+01  6.375097895E+01  2.268519912E+02  2.795779894E+02  1.250000000E+02  0.00000E+00  9.000E+00
      21     1     1     2   501   511 -1.800761474E+01  1.878872038E+01  1.878784241E+02  1.896723292E+02  2.697398305E-06  0.00000E+00  9.000E+00
#rwgt            1           1   2.9244581490370326E-002           6      162406           0
</event>
<event>
      5   9999  3.19816E-02  1.13150E+02 -1.00000E+00  1.21462E-01
      21    -1     0     0   512   501  0.000000000E+00  0.000000000E+00  1.157074631E+03  1.157074631E+03  0.000000000E+00  0.00000E+00  9.000E+00
      21    -1     0     0   501   502  0.000000000E+00  0.000000000E+00 -1.128064341E+03  1.128064341E+03  0.000000000E+00  0.00000E+00  9.000E+00
      25     1     1     2     0     0 -1.104303751E+03  9.274829366E+01 -1.338477905E+02  1.123222708E+03  1.250000000E+02  0.00000E+00  9.000E+00
      25     1     1     2     0     0  1.028677888E+03 -8.583567670E+00  1.321450572E+02  1.044671810E+03  1.250000000E+02  0.00000E+00  9.000E+00
      21     1     1     2   512   502  7.562586349E+01 -8.416472599E+01  3.071302307E+01  1.172444545E+02  5.840038640E-07  0.00000E+00  9.000E+00
#rwgt            1           1   2.4875842902008307E-002           6      162519           0
</event>
<event>
      5   9999  3.19816E-02  6.75910E+01 -1.00000E+00  1.31996E-01
      21    -1     0     0   502   511  0.000000000E+00  0.000000000E+00  3.625334838E+02  3.625334838E+02  0.000000000E+00  0.00000E+00  9.000E+00
      21    -1     0     0   501   502  0.000000000E+00  0.000000000E+00 -6.950032034E+02  6.950032034E+02  0.000000000E+00  0.00000E+00  9.000E+00
      25     1     1     2     0     0  1.737435419E+02  3.296852096E+02 -2.593481261E+02  4.709199574E+02  1.250000000E+02  0.00000E+00  9.000E+00
      25     1     1     2     0     0 -1.123680086E+02 -3.579974320E+02 -1.997538554E+02  4.430748621E+02  1.250000000E+02  0.00000E+00  9.000E+00
      21     1     1     2   501   511 -6.137553334E+01  2.831222240E+01  1.266322619E+02  1.435418677E+02  1.907348633E-06  0.00000E+00  9.000E+00
#rwgt            1           1   2.7848012361704439E-002           6      162708           0
</event>
<event>
      5   9999  3.19816E-02  9.75983E+00 -1.00000E+00  1.96986E-01
      21    -1     0     0   502   512  0.000000000E+00  0.000000000E+00  9.487677742E+02  9.487677742E+02  0.000000000E+00  0.00000E+00  9.000E+00
      21    -1     0     0   501   502  0.000000000E+00  0.000000000E+00 -1.264169405E+02  1.264169405E+02  0.000000000E+00  0.00000E+00  9.000E+00
      25     1     1     2     0     0 -4.928704970E+00 -6.049238060E+01  1.815435278E+02  2.286190559E+02  1.250000000E+02  0.00000E+00  9.000E+00
      25     1     1     2     0     0 -4.767345296E+00  5.937844928E+01 -5.623719416E+01  1.494528348E+02  1.250000000E+02  0.00000E+00  9.000E+00
      21     1     1     2   501   512  9.696050266E+00  1.113931312E+00  6.970445002E+02  6.971128240E+02  7.629394531E-06  0.00000E+00  9.000E+00
#rwgt            1           1   2.9589975204142138E-002           6      162817           0
</event>
<event>
      5   9999  3.19816E-02  1.13997E+02 -1.00000E+00  1.21322E-01
       1    -1     0     0   502     0  0.000000000E+00  0.000000000E+00  1.719882253E+03  1.719882253E+03  0.000000000E+00  0.00000E+00  9.000E+00
      21    -1     0     0   501   502  0.000000000E+00  0.000000000E+00 -4.312689373E+02  4.312689373E+02  0.000000000E+00  0.00000E+00  9.000E+00
      25     1     1     2     0     0 -1.898350309E+02  2.771689689E+02  3.047544451E+02  4.704893708E+02  1.250000000E+02  0.00000E+00  9.000E+00
      25     1     1     2     0     0  8.247966216E+01 -3.155121212E+02 -2.576037025E+02  4.339763367E+02  1.250000000E+02  0.00000E+00  9.000E+00
       1     1     1     2   501     0  1.073553688E+02  3.834315233E+01  1.241462574E+03  1.246685483E+03  0.000000000E+00  0.00000E+00  9.000E+00
#rwgt            1           1   2.9427561771288545E-002           6      163031           0
</event>
<event>
      5   9999  3.19816E-02  6.06777E+01 -1.00000E+00  1.34443E-01
      21    -1     0     0   502   511  0.000000000E+00  0.000000000E+00  7.243282678E+02  7.243282678E+02  0.000000000E+00  0.00000E+00  9.000E+00
      21    -1     0     0   501   502  0.000000000E+00  0.000000000E+00 -2.154699383E+03  2.154699383E+03  0.000000000E+00  0.00000E+00  9.000E+00
      25     1     1     2     0     0  2.703036653E+02  3.502375587E+01 -2.098167512E+03  2.119486410E+03  1.250000000E+02  0.00000E+00  9.000E+00
      25     1     1     2     0     0 -2.102154250E+02 -4.346125232E+01  6.506986107E+02  6.965006011E+02  1.250000000E+02  0.00000E+00  9.000E+00
      21     1     1     2   501   511 -6.008824031E+01  8.437496445E+00  1.709778584E+01  6.304063967E+01  1.118282261E-06  0.00000E+00  9.000E+00
#rwgt            2          11   3.5299218104841872E-002           6      163162           0
</event>
<event>
      5   9999  3.19816E-02  2.16358E+01 -1.00000E+00  1.63600E-01
      -2    -1     0     0     0   501  0.000000000E+00  0.000000000E+00  2.425876256E+02  2.425876256E+02  0.000000000E+00  0.00000E+00  9.000E+00
      21    -1     0     0   501   502  0.000000000E+00  0.000000000E+00 -8.597372075E+02  8.597372075E+02  0.000000000E+00  0.00000E+00  9.000E+00
      25     1     1     2     0     0  4.523164657E+01 -8.874200542E+00 -6.052926248E+02  6.197812637E+02  1.250000000E+02  0.00000E+00  9.000E+00
      25     1     1     2     0     0 -2.815894413E+01 -4.416075997E+00 -2.300054599E+02  2.633247794E+02  1.250000000E+02  0.00000E+00  9.000E+00
      -2     1     1     2     0   502 -1.707270244E+01  1.329027654E+01  2.181485027E+02  2.192187899E+02  6.031565972E-06  0.00000E+00  9.000E+00
#rwgt            1           1   2.8837634137389597E-002           6      163182           0
</event>
<event>
      5   9999  3.19816E-02  9.51178E+01 -1.00000E+00  1.24814E-01
      21    -1     0     0   502   501  0.000000000E+00  0.000000000E+00  6.943894477E+02  6.943894477E+02  0.000000000E+00  0.00000E+00  9.000E+00
      21    -1     0     0   501   511  0.000000000E+00  0.000000000E+00 -8.835167302E+02  8.835167302E+02  0.000000000E+00  0.00000E+00  9.000E+00
      25     1     1     2     0     0 -5.558455069E+02  3.185765571E+02 -2.729335181E+02  7.075118060E+02  1.250000000E+02  0.00000E+00  9.000E+00
      25     1     1     2     0     0  4.884260855E+02 -3.856736260E+02  2.473046864E+02  6.812406291E+02  1.250000000E+02  0.00000E+00  9.000E+00
      21     1     1     2   502   511  6.741942144E+01  6.709706891E+01 -1.634984508E+02  1.891537429E+02  1.907348633E-06  0.00000E+00  9.000E+00
#rwgt            1           1   3.0228523902079071E-002           6      163277           0
</event>
<event>
      5   9999  3.19816E-02  1.35332E+02 -1.00000E+00  1.18193E-01
      21    -1     0     0   512   501  0.000000000E+00  0.000000000E+00  7.226225233E+02  7.226225233E+02  0.000000000E+00  0.00000E+00  9.000E+00
      21    -1     0     0   501   502  0.000000000E+00  0.000000000E+00 -3.707437556E+02  3.707437556E+02  0.000000000E+00  0.00000E+00  9.000E+00
      25     1     1     2     0     0 -3.475601784E+02  5.792451034E+01 -1.254344776E+02  3.943502690E+02  1.250000000E+02  0.00000E+00  9.000E+00
      25     1     1     2     0     0  2.891300873E+02  6.414340583E+01  1.709358484E+02  3.640805518E+02  1.250000000E+02  0.00000E+00  9.000E+00
      21     1     1     2   512   502  5.843009104E+01 -1.220679162E+02  3.063773970E+02  3.349354581E+02  0.000000000E+00  0.00000E+00  9.000E+00
#rwgt            1           1   2.7146572342506059E-002           6      163378           0
</event>
<event>
      5   9999  3.19816E-02  1.99818E+02 -1.00000E+00  1.11662E-01
       2    -1     0     0   502     0  0.000000000E+00  0.000000000E+00  1.894391372E+03  1.894391372E+03  0.000000000E+00  0.00000E+00  9.000E+00
      21    -1     0     0   501   502  0.000000000E+00  0.000000000E+00 -1.565179660E+02  1.565179660E+02  0.000000000E+00  0.00000E+00  9.000E+00
      25     1     1     2     0     0 -1.482190006E+02 -1.024985705E+02  9.322689863E+02  9.577187959E+02  1.250000000E+02  0.00000E+00  9.000E+00
      25     1     1     2     0     0 -2.071614004E+01  2.092140356E+02 -1.842165124E+01  2.452835673E+02  1.250000000E+02  0.00000E+00  9.000E+00
       2     1     1     2   501     0  1.689351407E+02 -1.067154651E+02  8.240260710E+02  8.479069748E+02  1.078959322E-05  0.00000E+00  9.000E+00
#rwgt            1           1   2.7100335275958398E-002           6      163434           0
</event>
<event>
      5   9999  3.19816E-02  2.59604E+01 -1.00000E+00  1.57534E-01
      21    -1     0     0   502   511  0.000000000E+00  0.000000000E+00  6.736116526E+02  6.736116526E+02  0.000000000E+00  0.00000E+00  9.000E+00
      21    -1     0     0   501   502  0.000000000E+00  0.000000000E+00 -6.899065140E+02  6.899065140E+02  0.000000000E+00  0.00000E+00  9.000E+00
      25     1     1     2     0     0  1.678714032E+02  5.041653130E+02  1.884316318E+02  5.774902170E+02  1.250000000E+02  0.00000E+00  9.000E+00
      25     1     1     2     0     0 -1.662826847E+02 -4.782536123E+02 -3.567010157E+02  6.318520899E+02  1.250000000E+02  0.00000E+00  9.000E+00
      21     1     1     2   501   511 -1.588718504E+00 -2.591170069E+01  1.519745224E+02  1.541758597E+02  1.907348633E-06  0.00000E+00  9.000E+00
#rwgt            1           1   2.8428319460687780E-002           6      163487           0
</event>
<event>
      5   9999  3.19816E-02  5.90113E+01 -1.00000E+00  1.35090E-01
      21    -1     0     0   502   501  0.000000000E+00  0.000000000E+00  1.877898650E+03  1.877898650E+03  0.000000000E+00  0.00000E+00  9.000E+00
      21    -1     0     0   501   512  0.000000000E+00  0.000000000E+00 -6.772379534E+01  6.772379534E+01  0.000000000E+00  0.00000E+00  9.000E+00
      25     1     1     2     0     0  1.180836912E+02 -2.778773211E+02  6.315482307E+02  7.110820848E+02  1.250000000E+02  0.00000E+00  9.000E+00
      25     1     1     2     0     0 -1.261201635E+02  2.194157581E+02  1.103387697E+03  1.138920094E+03  1.250000000E+02  0.00000E+00  9.000E+00
      21     1     1     2   502   512  8.036472295E+00  5.846156298E+01  7.523892668E+01  9.562026627E+01  2.336015456E-06  0.00000E+00  9.000E+00
#rwgt            1           1   4.0516102977649168E-002           6      163697           0
</event>
<event>
      5   9999  3.19816E-02  2.66853E+02 -1.00000E+00  1.07271E-01
      -2    -1     0     0     0   501  0.000000000E+00  0.000000000E+00  8.535725324E+02  8.535725324E+02  0.000000000E+00  0.00000E+00  9.000E+00
      21    -1     0     0   501   502  0.000000000E+00  0.000000000E+00 -5.192575847E+02  5.192575847E+02  0.000000000E+00  0.00000E+00  9.000E+00
      25     1     1     2     0     0  8.841439962E+01 -5.496451917E+01 -4.279616423E+02  4.578366212E+02  1.250000000E+02  0.00000E+00  9.000E+00
      25     1     1     2     0     0  1.756506295E+02  9.343809851E+01  4.166618058E+02  4.783470313E+02  1.250000000E+02  0.00000E+00  9.000E+00
      -2     1     1     2     0   502 -2.640650291E+02 -3.847357934E+01  3.456147843E+02  4.366464646E+02  5.394796609E-06  0.00000E+00  9.000E+00
#rwgt            2           4   8.1388677132653971E-005           6      163887           0
</event>
<event>
      5   9999  3.19816E-02  1.24029E+02 -1.00000E+00  1.19763E-01
       2    -1     0     0   502     0  0.000000000E+00  0.000000000E+00  1.266940451E+03  1.266940451E+03  0.000000000E+00  0.00000E+00  9.000E+00
      21    -1     0     0   501   502  0.000000000E+00  0.000000000E+00 -2.127820003E+02  2.127820003E+02  0.000000000E+00  0.00000E+00  9.000E+00
      25     1     1     2     0     0 -3.877462150E+02  1.716530070E+02  4.449032071E+02  6.271967361E+02  1.250000000E+02  0.00000E+00  9.000E+00
      25     1     1     2     0     0  3.452526403E+02 -2.881750589E+02  5.255041613E+02  7.028683189E+02  1.250000000E+02  0.00000E+00  9.000E+00
       2     1     1     2   501     0  4.249357469E+01  1.165220519E+02  8.375108238E+01  1.496573963E+02  3.438521648E-06  0.00000E+00  9.000E+00
#rwgt            1           1   3.0025471214171071E-002           6      163906           0
</event>
<event>
      5   9999  3.19816E-02  1.89866E+02 -1.00000E+00  1.12476E-01
      21    -1     0     0   511   501  0.000000000E+00  0.000000000E+00  3.257377221E+02  3.257377221E+02  0.000000000E+00  0.00000E+00  9.000E+00
      21    -1     0     0   501   502  0.000000000E+00  0.000000000E+00 -1.838796400E+03  1.838796400E+03  0.000000000E+00  0.00000E+00  9.000E+00
      25     1     1     2     0     0 -2.048105577E+02  1.970311949E+02  1.114769507E+02  3.298799279E+02  1.250000000E+02  0.00000E+00  9.000E+00
      25     1     1     2     0     0  3.891677757E+02 -2.424358765E+02 -1.565161790E+03  1.635720985E+03  1.250000000E+02  0.00000E+00  9.000E+00
      21     1     1     2   511   502 -1.843572180E+02  4.540468156E+01 -5.937383828E+01  1.989332089E+02  1.507891493E-06  0.00000E+00  9.000E+00
#rwgt            1           1   2.5706209363753313E-002           6      163997           0
</event>
<event>
      5   9999  3.21336E-02  5.67831E+01 -1.00000E+00  1.35995E-01
      21    -1     0     0   512   501  0.000000000E+00  0.000000000E+00  2.292656101E+03  2.292656101E+03  0.000000000E+00  0.00000E+00  9.000E+00
      21    -1     0     0   501   502  0.000000000E+00  0.000000000E+00 -8.517484709E+02  8.517484709E+02  0.000000000E+00  0.00000E+00  9.000E+00
      25     1     1     2     0     0 -1.441597245E+02  6.247476290E+02 -4.393336138E+02  7.872297316E+02  1.250000000E+02  0.00000E+00  9.000E+00
      25     1     1     2     0     0  1.491370068E+02 -6.813121744E+02  2.894946411E+02  7.654150985E+02  1.250000000E+02  0.00000E+00  9.000E+00
      21     1     1     2   512   502 -4.977282327E+00  5.656454535E+01  1.590746603E+03  1.591759742E+03  3.051757812E-05  0.00000E+00  9.000E+00
#rwgt            1           1   3.7062250778888479E-002           6      164059           0
</event>
<event>
      5   9999  3.19816E-02  3.10053E+02 -1.00000E+00  1.05129E-01
       3    -1     0     0   502     0  0.000000000E+00  0.000000000E+00  2.628635431E+03  2.628635431E+03  0.000000000E+00  0.00000E+00  9.000E+00
      21    -1     0     0   501   502  0.000000000E+00  0.000000000E+00 -3.560489170E+02  3.560489170E+02  0.000000000E+00  0.00000E+00  9.000E+00
      25     1     1     2     0     0  4.922891737E+02 -2.394880857E+02  1.314001333E+02  5.767097786E+02  1.250000000E+02  0.00000E+00  9.000E+00
      25     1     1     2     0     0 -2.648199147E+02  4.501785415E+02  4.869689172E+02  7.249510554E+02  1.250000000E+02  0.00000E+00  9.000E+00
       3     1     1     2   501     0 -2.274692590E+02 -2.106904558E+02  1.654217464E+03  1.683023514E+03  3.051757812E-05  0.00000E+00  9.000E+00
#rwgt            1           1   3.4756686933735195E-002           6      164204           0
</event>
<event>
      5   9999  3.19816E-02  2.74107E+01 -1.00000E+00  1.55813E-01
      21    -1     0     0   511   501  0.000000000E+00  0.000000000E+00  5.858548494E+02  5.858548494E+02  0.000000000E+00  0.00000E+00  9.000E+00
      21    -1     0     0   501   502  0.000000000E+00  0.000000000E+00 -1.884140064E+03  1.884140064E+03  0.000000000E+00  0.00000E+00  9.000E+00
      25     1     1     2     0     0 -6.877409466E+02  2.588982201E+02 -1.571205954E+02  7.617924779E+02  1.250000000E+02  0.00000E+00  9.000E+00
      25     1     1     2     0     0  6.739287526E+02 -2.352219046E+02 -1.331488824E+03  1.515914508E+03  1.250000000E+02  0.00000E+00  9.000E+00
      21     1     1     2   511   502  1.381219401E+01 -2.367631557E+01  1.903242039E+02  1.922879279E+02  6.031565972E-06  0.00000E+00  9.000E+00
#rwgt            1           1   1.8545379315330086E-002           6      164324           0
</event>
<event>
      5   9999  3.19816E-02  1.49213E+01 -1.00000E+00  1.77599E-01
      21    -1     0     0   512   501  0.000000000E+00  0.000000000E+00  5.919786124E+02  5.919786124E+02  0.000000000E+00  0.00000E+00  9.000E+00
      21    -1     0     0   501   502  0.000000000E+00  0.000000000E+00 -9.179658677E+02  9.179658677E+02  0.000000000E+00  0.00000E+00  9.000E+00
      25     1     1     2     0     0 -8.848827360E+01 -6.721634519E+02 -2.128463401E+02  7.215001352E+02  1.250000000E+02  0.00000E+00  9.000E+00
      25     1     1     2     0     0  7.558300340E+01  6.796534287E+02 -1.814991616E+02  7.184765265E+02  1.250000000E+02  0.00000E+00  9.000E+00
      21     1     1     2   512   502  1.290527019E+01 -7.489976795E+00  6.835824639E+01  6.996781832E+01  9.536743164E-07  0.00000E+00  9.000E+00
#rwgt            1           1   2.8320997164431660E-002           6      164496           0
</event>
<event>
      5   9999  3.19816E-02  5.25077E+01 -1.00000E+00  1.37874E-01
      21    -1     0     0   511   501  0.000000000E+00  0.000000000E+00  2.866517122E+01  2.866517122E+01  0.000000000E+00  0.00000E+00  9.000E+00
      21    -1     0     0   501   502  0.000000000E+00  0.000000000E+00 -1.542619959E+03  1.542619959E+03  0.000000000E+00  0.00000E+00  9.000E+00
      25     1     1     2     0     0  4.254127256E+01 -1.956936492E+01 -1.178123930E+03  1.185661720E+03  1.250000000E+02  0.00000E+00  9.000E+00
      25     1     1     2     0     0 -2.719036931E+01 -3.064430316E+01 -2.777596246E+02  3.073333672E+02  1.250000000E+02  0.00000E+00  9.000E+00
      21     1     1     2   511   502 -1.535090325E+01  5.021366808E+01 -5.807123254E+01  7.829004241E+01  1.348699152E-06  0.00000E+00  9.000E+00
#rwgt            1           1   2.4795071760647783E-002           6      164736           0
</event>
<event>
      5   9999  3.19816E-02  2.99020E+01 -1.00000E+00  1.53139E-01
      21    -1     0     0   502   501  0.000000000E+00  0.000000000E+00  6.388997237E+02  6.388997237E+02  0.000000000E+00  0.00000E+00  9.000E+00
      21    -1     0     0   501   512  0.000000000E+00  0.000000000E+00 -6.612599618E+01  6.612599618E+01  0.000000000E+00  0.00000E+00  9.000E+00
      25     1     1     2     0     0 -7.732775094E+01  9.253136046E+01  1.811263772E+02  2.509450104E+02  1.250000000E+02  0.00000E+00  9.000E+00
      25     1     1     2     0     0  5.468748319E+01 -7.299809302E+01  3.947721094E+02  4.240158732E+02  1.250000000E+02  0.00000E+00  9.000E+00
      21     1     1     2   502   512  2.264026775E+01 -1.953326744E+01 -3.124759035E+00  3.006483626E+01  7.226679118E-07  0.00000E+00  9.000E+00
#rwgt            1           1   2.4578844649994061E-002           6      164812           0
</event>
<event>
      5   9999  3.19816E-02  5.18071E+01 -1.00000E+00  1.38201E-01
      21    -1     0     0   502   501  0.000000000E+00  0.000000000E+00  2.496047000E+02  2.496047000E+02  0.000000000E+00  0.00000E+00  9.000E+00
      21    -1     0     0   511   502  0.000000000E+00  0.000000000E+00 -1.550270382E+03  1.550270382E+03  0.000000000E+00  0.00000E+00  9.000E+00
      25     1     1     2     0     0  4.352479208E+02  2.110678953E+01 -6.331525960E+02  7.787126934E+02  1.250000000E+02  0.00000E+00  9.000E+00
      25     1     1     2     0     0 -4.602796390E+02  2.425169121E+01 -1.492924742E+02  5.003586049E+02  1.250000000E+02  0.00000E+00  9.000E+00
      21     1     1     2   511   501  2.503171825E+01 -4.535848074E+01 -5.182206118E+02  5.208037837E+02  1.078959322E-05  0.00000E+00  9.000E+00
#rwgt            1           1   2.8030255220271832E-002           6      164906           0
</event>
<event>
      5   9999  3.19816E-02  2.68003E+02 -1.00000E+00  1.07208E-01
      21    -1     0     0   502   512  0.000000000E+00  0.000000000E+00  5.023421337E+02  5.023421337E+02  0.000000000E+00  0.00000E+00  9.000E+00
      21    -1     0     0   501   502  0.000000000E+00  0.000000000E+00 -9.975159951E+02  9.975159951E+02  0.000000000E+00  0.00000E+00  9.000E+00
      25     1     1     2     0     0  2.182248238E+02  1.443653147E+02  7.742033002E+00  2.900833619E+02  1.250000000E+02  0.00000E+00  9.000E+00
      25     1     1     2     0     0  4.702151691E+01 -1.827080496E+02 -7.871957324E+02  8.190820323E+02  1.250000000E+02  0.00000E+00  9.000E+00
      21     1     1     2   501   512 -2.652463407E+02  3.834273488E+01  2.842798381E+02  3.906927346E+02  1.009274029E-05  0.00000E+00  9.000E+00
#rwgt            1           1   2.8929276908760432E-002           6      164978           0
</event>
<event>
      5   9999  3.19816E-02  1.72095E+02 -1.00000E+00  1.14077E-01
      21    -1     0     0   502   511  0.000000000E+00  0.000000000E+00  1.188871059E+03  1.188871059E+03  0.000000000E+00  0.00000E+00  9.000E+00
      21    -1     0     0   501   502  0.000000000E+00  0.000000000E+00 -2.115050295E+02  2.115050295E+02  0.000000000E+00  0.00000E+00  9.000E+00
      25     1     1     2     0     0  1.971724878E+02  1.903616796E+02  4.515411237E+01  3.045955562E+02  1.250000000E+02  0.00000E+00  9.000E+00
      25     1     1     2     0     0 -1.406469127E+02 -3.529087298E+02  5.906798236E+02  7.133398766E+02  1.250000000E+02  0.00000E+00  9.000E+00
      21     1     1     2   501   511 -5.652557510E+01  1.625470501E+02  3.415320935E+02  3.824406556E+02  0.000000000E+00  0.00000E+00  9.000E+00
#rwgt            2          11   3.0217769990198281E-003           6      165037           0
</event>
<event>
      5   9999  3.19816E-02  2.11697E+02 -1.00000E+00  1.10757E-01
      21    -1     0     0   502   501  0.000000000E+00  0.000000000E+00  3.843409688E+02  3.843409688E+02  0.000000000E+00  0.00000E+00  9.000E+00
      -4    -1     0     0     0   502  0.000000000E+00  0.000000000E+00 -1.611072737E+03  1.611072737E+03  0.000000000E+00  0.00000E+00  9.000E+00
      25     1     1     2     0     0 -5.488708690E+01 -1.070419703E+02 -1.162930088E+02  2.088531532E+02  1.250000000E+02  0.00000E+00  9.000E+00
      25     1     1     2     0     0  2.595525809E+02  5.293502146E+01  2.649593505E+02  3.949659683E+02  1.250000000E+02  0.00000E+00  9.000E+00
      -4     1     1     2     0   501 -2.046654940E+02  5.410694889E+01 -1.375398110E+03  1.391594584E+03  0.000000000E+00  0.00000E+00  9.000E+00
#rwgt            2           7   4.9475232019066106E-005           6      165162           0
</event>
<event>
      5   9999  3.19816E-02  1.39815E+02 -1.00000E+00  1.17617E-01
      21    -1     0     0   511   501  0.000000000E+00  0.000000000E+00  9.622669206E+02  9.622669206E+02  0.000000000E+00  0.00000E+00  9.000E+00
      21    -1     0     0   501   502  0.000000000E+00  0.000000000E+00 -5.704636447E+02  5.704636447E+02  0.000000000E+00  0.00000E+00  9.000E+00
      25     1     1     2     0     0 -5.510071158E+02  2.708989738E+02 -5.940297250E+01  6.294035342E+02  1.250000000E+02  0.00000E+00  9.000E+00
      25     1     1     2     0     0  4.525674518E+02 -1.716126415E+02  7.947444795E+01  5.061713001E+02  1.250000000E+02  0.00000E+00  9.000E+00
      21     1     1     2   511   502  9.843966400E+01 -9.928633231E+01  3.717318004E+02  3.971557310E+02  5.394796609E-06  0.00000E+00  9.000E+00
#rwgt            2          11   2.7599797014013780E-003           6      165226           0
</event>
<event>
      5   9999  3.19816E-02  5.61702E+02 -1.00000E+00  9.74372E-02
       2    -1     0     0   502     0  0.000000000E+00  0.000000000E+00  2.222817447E+03  2.222817447E+03  0.000000000E+00  0.00000E+00  9.000E+00
      21    -1     0     0   501   502  0.000000000E+00  0.000000000E+00 -4.801954366E+02  4.801954366E+02  0.000000000E+00  0.00000E+00  9.000E+00
      25     1     1     2     0     0  4.395728964E+02  2.618121336E+02  4.145782512E+02  6.702761005E+02  1.250000000E+02  0.00000E+00  9.000E+00
      25     1     1     2     0     0 -4.749195725E+01 -6.640326246E+02  1.031210511E+02  6.851669604E+02  1.250000000E+02  0.00000E+00  9.000E+00
       2     1     1     2   501     0 -3.920809391E+02  4.022204910E+02  1.224922708E+03  1.347569822E+03  1.525878906E-05  0.00000E+00  9.000E+00
#rwgt            2          18   1.4654873242088752E-003           6      165336           0
</event>
<event>
      5   9999  3.19816E-02  1.14930E+01 -1.00000E+00  1.89021E-01
      21    -1     0     0   502   511  0.000000000E+00  0.000000000E+00  1.113121328E+02  1.113121328E+02  0.000000000E+00  0.00000E+00  9.000E+00
      21    -1     0     0   501   502  0.000000000E+00  0.000000000E+00 -1.288597046E+03  1.288597046E+03  0.000000000E+00  0.00000E+00  9.000E+00
      25     1     1     2     0     0  2.157665631E+02 -1.099161853E+02 -2.053344053E+02  3.412096065E+02  1.250000000E+02  0.00000E+00  9.000E+00
      25     1     1     2     0     0 -2.088342574E+02  1.190831090E+02 -9.959178207E+02  1.032119101E+03  1.250000000E+02  0.00000E+00  9.000E+00
      21     1     1     2   501   511 -6.932305676E+00 -9.166923649E+00  2.396731275E+01  2.658047087E+01  7.539457465E-07  0.00000E+00  9.000E+00
#rwgt            1           1   3.0921676666304979E-002           6      165355           0
</event>
<event>
      5   9999  3.19816E-02  2.23997E+02 -1.00000E+00  1.09885E-01
      21    -1     0     0   502   501  0.000000000E+00  0.000000000E+00  1.566878961E+03  1.566878961E+03  0.000000000E+00  0.00000E+00  9.000E+00
      21    -1     0     0   512   502  0.000000000E+00  0.000000000E+00 -2.039855968E+03  2.039855968E+03  0.000000000E+00  0.00000E+00  9.000E+00
      25     1     1     2     0     0  6.172969233E+02 -1.419762356E+03  5.951616439E+02  1.663316874E+03  1.250000000E+02  0.00000E+00  9.000E+00
      25     1     1     2     0     0 -4.285438472E+02  1.299151006E+03 -7.842771637E+02  1.581821366E+03  1.250000000E+02  0.00000E+00  9.000E+00
      21     1     1     2   512   501 -1.887530761E+02  1.206113508E+02 -2.838614871E+02  3.615966890E+02  5.394796609E-06  0.00000E+00  9.000E+00
#rwgt            1           1   4.2184068545478785E-002           6      165630           0
</event>
<event>
      5   9999  3.19816E-02  9.21901E+01 -1.00000E+00  1.25437E-01
       2    -1     0     0   502     0  0.000000000E+00  0.000000000E+00  1.524486078E+03  1.524486078E+03  0.000000000E+00  0.00000E+00  9.000E+00
      21    -1     0     0   501   502  0.000000000E+00  0.000000000E+00 -3.267940998E+02  3.267940998E+02  0.000000000E+00  0.00000E+00  9.000E+00
      25     1     1     2     0     0  2.681270314E+02  2.179049357E+02 -6.542968824E+01  3.732033093E+02  1.250000000E+02  0.00000E+00  9.000E+00
      25     1     1     2     0     0 -2.160705671E+02 -1.418185974E+02  8.933269962E+01  3.006731377E+02  1.250000000E+02  0.00000E+00  9.000E+00
       2     1     1     2   501     0 -5.205646431E+01 -7.608633835E+01  1.173788967E+03  1.177403731E+03  2.157918644E-05  0.00000E+00  9.000E+00
#rwgt            1           1   2.6990514254428232E-002           6      165686           0
</event>
<event>
      5   9999  3.19816E-02  3.71982E+01 -1.00000E+00  1.46824E-01
      21    -1     0     0   502   501  0.000000000E+00  0.000000000E+00  1.071693544E+03  1.071693544E+03  0.000000000E+00  0.00000E+00  9.000E+00
      21    -1     0     0   511   502  0.000000000E+00  0.000000000E+00 -2.198797369E+02  2.198797369E+02  0.000000000E+00  0.00000E+00  9.000E+00
      25     1     1     2     0     0 -5.272087372E+01  1.390582760E+02  1.003741641E+03  1.022369295E+03  1.250000000E+02  0.00000E+00  9.000E+00
      25     1     1     2     0     0  5.192462334E+01 -1.018686486E+02 -7.811636165E+01  1.865490660E+02  1.250000000E+02  0.00000E+00  9.000E+00
      21     1     1     2   511   501  7.962503809E-01 -3.718962741E+01 -7.381147176E+01  8.265491979E+01  1.907348633E-06  0.00000E+00  9.000E+00
#rwgt            1           1   3.0234486961522825E-002           6      165786           0
</event>
<event>
      5   9999  3.19816E-02  1.45202E+00 -1.00000E+00  4.56040E-01
      21    -1     0     0   512   501  0.000000000E+00  0.000000000E+00  6.336658329E+01  6.336658329E+01  0.000000000E+00  0.00000E+00  9.000E+00
      21    -1     0     0   501   502  0.000000000E+00  0.000000000E+00 -9.743292936E+02  9.743292936E+02  0.000000000E+00  0.00000E+00  9.000E+00
      25     1     1     2     0     0 -1.708680766E+02 -5.281662800E+01 -2.114070349E+02  3.038147959E+02  1.250000000E+02  0.00000E+00  9.000E+00
      25     1     1     2     0     0  1.697070309E+02  5.194465594E+01 -6.995198043E+02  7.324286178E+02  1.250000000E+02  0.00000E+00  9.000E+00
      21     1     1     2   512   502  1.161045722E+00  8.719720641E-01 -3.587112222E-02  1.452463145E+00  2.326909033E-08  0.00000E+00  9.000E+00
#rwgt            1           1   2.9603060257140643E-002           6      165920           0
</event>
<event>
      5   9999  3.19816E-02  1.04595E+02 -1.00000E+00  1.22957E-01
      21    -1     0     0   502   511  0.000000000E+00  0.000000000E+00  5.914193051E+02  5.914193051E+02  0.000000000E+00  0.00000E+00  9.000E+00
      21    -1     0     0   501   502  0.000000000E+00  0.000000000E+00 -9.057830665E+02  9.057830665E+02  0.000000000E+00  0.00000E+00  9.000E+00
      25     1     1     2     0     0  4.375088602E+02 -2.415228110E+01 -7.159069242E+02  8.486136102E+02  1.250000000E+02  0.00000E+00  9.000E+00
      25     1     1     2     0     0 -3.675218230E+02  1.018824014E+02  3.473809972E+02  5.308021018E+02  1.250000000E+02  0.00000E+00  9.000E+00
      21     1     1     2   501   511 -6.998703718E+01 -7.773012034E+01  5.416216563E+01  1.177866595E+02  9.536743164E-07  0.00000E+00  9.000E+00
#rwgt            1           1   3.0030848986685604E-002           6      166522           0
</event>
<event>
      5   9999  3.19816E-02  7.22858E+01 -1.00000E+00  1.30518E-01
      21    -1     0     0   502   501  0.000000000E+00  0.000000000E+00  9.160451112E+02  9.160451112E+02  0.000000000E+00  0.00000E+00  9.000E+00
      21    -1     0     0   512   502  0.000000000E+00  0.000000000E+00 -3.645893490E+02  3.645893490E+02  0.000000000E+00  0.00000E+00  9.000E+00
      25     1     1     2     0     0 -5.503722784E+01  1.710400285E+02 -2.266478346E+02  3.150841614E+02  1.250000000E+02  0.00000E+00  9.000E+00
      25     1     1     2     0     0  2.687775103E+00 -2.208875240E+02  8.355288407E+02  8.732307633E+02  1.250000000E+02  0.00000E+00  9.000E+00
      21     1     1     2   512   501  5.234945274E+01  4.984749547E+01 -5.742524379E+01  9.231953548E+01  1.348699152E-06  0.00000E+00  9.000E+00
#rwgt            1           1   2.9752800859051368E-002           6      166700           0
</event>
<event>
      5   9999  3.19816E-02  3.70664E+01 -1.00000E+00  1.46922E-01
      21    -1     0     0   502   501  0.000000000E+00  0.000000000E+00  2.066027351E+02  2.066027351E+02  0.000000000E+00  0.00000E+00  9.000E+00
      21    -1     0     0   501   511  0.000000000E+00  0.000000000E+00 -5.088101606E+02  5.088101606E+02  0.000000000E+00  0.00000E+00  9.000E+00
      25     1     1     2     0     0 -1.383193438E+02  9.983414401E+01  9.453264472E+01  2.316474004E+02  1.250000000E+02  0.00000E+00  9.000E+00
      25     1     1     2     0     0  1.532439230E+02 -1.337631396E+02 -3.564399378E+02  4.290113130E+02  1.250000000E+02  0.00000E+00  9.000E+00
      21     1     1     2   502   511 -1.492457919E+01  3.392899559E+01 -4.030013241E+01  5.475418229E+01  6.743495762E-07  0.00000E+00  9.000E+00
#rwgt            1           1   2.8799037471395960E-002           6      166821           0
</event>
<event>
      5   9999  3.19816E-02  2.15374E+01 -1.00000E+00  1.63758E-01
      21    -1     0     0   502   512  0.000000000E+00  0.000000000E+00  2.605568451E+02  2.605568451E+02  0.000000000E+00  0.00000E+00  9.000E+00
      21    -1     0     0   501   502  0.000000000E+00  0.000000000E+00 -1.447988963E+03  1.447988963E+03  0.000000000E+00  0.00000E+00  9.000E+00
      25     1     1     2     0     0  3.811059034E+02  8.857820561E+01 -9.386148309E+02  1.024553858E+03  1.250000000E+02  0.00000E+00  9.000E+00
      25     1     1     2     0     0 -3.978069661E+02 -1.021772096E+02 -3.664231669E+02  5.644302452E+02  1.250000000E+02  0.00000E+00  9.000E+00
      21     1     1     2   501   512  1.670106276E+01  1.359900402E+01  1.176058794E+02  1.195617049E+02  3.568322551E-06  0.00000E+00  9.000E+00
#rwgt            1           1   3.4483552274298786E-002           6      166963           0
</event>
<event>
      5   9999  3.19816E-02  2.52696E+01 -1.00000E+00  1.58403E-01
      21    -1     0     0   511   501  0.000000000E+00  0.000000000E+00  7.476873685E+02  7.476873685E+02  0.000000000E+00  0.00000E+00  9.000E+00
      21    -1     0     0   501   502  0.000000000E+00  0.000000000E+00 -2.190096270E+02  2.190096270E+02  0.000000000E+00  0.00000E+00  9.000E+00
      25     1     1     2     0     0 -2.450122341E+02  2.577778350E+02  3.520691514E+02  5.158081954E+02  1.250000000E+02  0.00000E+00  9.000E+00
      25     1     1     2     0     0  2.617357736E+02 -2.388337740E+02  1.294803229E+02  3.974133123E+02  1.250000000E+02  0.00000E+00  9.000E+00
      21     1     1     2   511   502 -1.672353948E+01 -1.894406103E+01  4.712826717E+01  5.347548773E+01  6.743495762E-07  0.00000E+00  9.000E+00
#rwgt            1           1   2.7431441743609494E-002           6      167161           0
</event>
<event>
      5   9999  3.19816E-02  2.24069E+01 -1.00000E+00  1.62398E-01
      21    -1     0     0   512   501  0.000000000E+00  0.000000000E+00  2.205455945E+02  2.205455945E+02  0.000000000E+00  0.00000E+00  9.000E+00
      21    -1     0     0   501   502  0.000000000E+00  0.000000000E+00 -2.463611370E+02  2.463611370E+02  0.000000000E+00  0.00000E+00  9.000E+00
      25     1     1     2     0     0  5.977109234E+01 -1.401454931E+02 -8.452409384E+01  2.144356901E+02  1.250000000E+02  0.00000E+00  9.000E+00
      25     1     1     2     0     0 -7.338286135E+01  1.223469901E+02  5.244814686E-02  1.896808717E+02  1.250000000E+02  0.00000E+00  9.000E+00
      21     1     1     2   512   502  1.361176901E+01  1.779850304E+01  5.865610320E+01  6.279016968E+01  0.000000000E+00  0.00000E+00  9.000E+00
#rwgt            1           1   2.6658955688285593E-002           6      167260           0
</event>
<event>
      5   9999  3.19816E-02  3.58390E+01 -1.00000E+00  1.47862E-01
      21    -1     0     0   511   501  0.000000000E+00  0.000000000E+00  5.424220046E+02  5.424220046E+02  0.000000000E+00  0.00000E+00  9.000E+00
      21    -1     0     0   501   502  0.000000000E+00  0.000000000E+00 -8.580519582E+02  8.580519582E+02  0.000000000E+00  0.00000E+00  9.000E+00
      25     1     1     2     0     0 -4.231146828E+01  3.093825667E+02  2.545298735E+02  4.218036147E+02  1.250000000E+02  0.00000E+00  9.000E+00
      25     1     1     2     0     0  2.297051478E+01 -2.792103437E+02 -7.421135322E+02  8.030215160E+02  1.250000000E+02  0.00000E+00  9.000E+00
      21     1     1     2   511   502  1.934095350E+01 -3.017222301E+01  1.719537050E+02  1.756488320E+02  2.697398305E-06  0.00000E+00  9.000E+00
#rwgt            1           1   3.1921727115838926E-002           6      167409           0
</event>
<event>
      5   9999  3.19816E-02  1.45463E+02 -1.00000E+00  1.16925E-01
      21    -1     0     0   512   501  0.000000000E+00  0.000000000E+00  2.067400580E+03  2.067400580E+03  0.000000000E+00  0.00000E+00  9.000E+00
      21    -1     0     0   501   502  0.000000000E+00  0.000000000E+00 -6.101953572E+02  6.101953572E+02  0.000000000E+00  0.00000E+00  9.000E+00
      25     1     1     2     0     0 -3.533888929E+02  5.348552511E+02  4.418924193E+02  7.885732429E+02  1.250000000E+02  0.00000E+00  9.000E+00
      25     1     1     2     0     0  4.610357388E+02 -6.326895863E+02 -6.828997515E+01  7.957000601E+02  1.250000000E+02  0.00000E+00  9.000E+00
      21     1     1     2   512   502 -1.076468459E+02  9.783433518E+01  1.083602779E+03  1.093322635E+03  0.000000000E+00  0.00000E+00  9.000E+00
#rwgt            2          11   1.8038603728003193E-003           6      167615           0
</event>
<event>
      5   9999  3.19816E-02  6.98138E+01 -1.00000E+00  1.31279E-01
      21    -1     0     0   502   511  0.000000000E+00  0.000000000E+00  7.397270368E+02  7.397270368E+02  0.000000000E+00  0.00000E+00  9.000E+00
      21    -1     0     0   501   502  0.000000000E+00  0.000000000E+00 -4.566579255E+02  4.566579255E+02  0.000000000E+00  0.00000E+00  9.000E+00
      25     1     1     2     0     0 -3.346885511E+02  1.267132851E+02 -3.014254142E+02  4.843087478E+02  1.250000000E+02  0.00000E+00  9.000E+00
      25     1     1     2     0     0  2.732615905E+02 -9.353662391E+01  5.512257464E+02  6.347407505E+02  1.250000000E+02  0.00000E+00  9.000E+00
      21     1     1     2   501   511  6.142696061E+01 -3.317666122E+01  3.326877908E+01  7.733546406E+01  1.066240300E-06  0.00000E+00  9.000E+00
#rwgt            1           1   2.2734938798738783E-002           6      167635           0
</event>
<event>
      5   9999  3.19816E-02  2.31081E+01 -1.00000E+00  1.61354E-01
      21    -1     0     0   502   501  0.000000000E+00  0.000000000E+00  1.806550573E+02  1.806550573E+02  0.000000000E+00  0.00000E+00  9.000E+00
       1    -1     0     0   501     0  0.000000000E+00  0.000000000E+00 -1.453376895E+03  1.453376895E+03  0.000000000E+00  0.00000E+00  9.000E+00
      25     1     1     2     0     0 -2.069956881E+02  3.049187962E+02 -2.323653627E+02  4.532563833E+02  1.250000000E+02  0.00000E+00  9.000E+00
      25     1     1     2     0     0  2.273589607E+02 -2.939954342E+02 -4.793591213E+02  6.193024944E+02  1.250000000E+02  0.00000E+00  9.000E+00
       1     1     1     2   502     0 -2.036327253E+01 -1.092336198E+01 -5.609973534E+02  5.614730743E+02  1.321449896E-05  0.00000E+00  9.000E+00
#rwgt            1           1   2.9910290657438002E-002           6      167717           0
</event>
<event>
      5   9999  3.19840E-02  3.92206E+01 -1.00000E+00  1.45372E-01
      21    -1     0     0   502   501  0.000000000E+00  0.000000000E+00  4.034487331E+02  4.034487331E+02  0.000000000E+00  0.00000E+00  9.000E+00
      21    -1     0     0   501   511  0.000000000E+00  0.000000000E+00 -1.542018928E+02  1.542018928E+02  0.000000000E+00  0.00000E+00  9.000E+00
      25     1     1     2     0     0  1.014741122E+02 -1.898396114E+00  2.563187100E+02  3.026960198E+02  1.250000000E+02  0.00000E+00  9.000E+00
      25     1     1     2     0     0 -6.250823677E+01 -2.564442663E+00  7.886225935E+01  1.604933394E+02  1.250000000E+02  0.00000E+00  9.000E+00
      21     1     1     2   502   511 -3.896587539E+01  4.462838777E+00 -8.593412897E+01  9.446126665E+01  1.907348633E-06  0.00000E+00  9.000E+00
#rwgt            1           1   7.9267923341423852E-002           6      167872           0
</event>
<event>
      5   9999  3.19816E-02  4.63913E+01 -1.00000E+00  1.40958E-01
      21    -1     0     0   502   501  0.000000000E+00  0.000000000E+00  5.675064257E+02  5.675064257E+02  0.000000000E+00  0.00000E+00  9.000E+00
      21    -1     0     0   501   512  0.000000000E+00  0.000000000E+00 -4.339407636E+02  4.339407636E+02  0.000000000E+00  0.00000E+00  9.000E+00
      25     1     1     2     0     0 -4.493654446E+01  2.081604410E+02  6.155827061E+01  2.544886695E+02  1.250000000E+02  0.00000E+00  9.000E+00
      25     1     1     2     0     0  8.497763660E+01 -1.847325363E+02  3.727697539E+02  4.426393544E+02  1.250000000E+02  0.00000E+00  9.000E+00
      21     1     1     2   502   512 -4.004109215E+01 -2.342790460E+01 -3.007623624E+02  3.043191654E+02  5.394796609E-06  0.00000E+00  9.000E+00
#rwgt            1           1   2.7198730627125536E-002           6      167938           0
</event>
<event>
      5   9999  3.19816E-02  6.92490E+01 -1.00000E+00  1.31458E-01
      21    -1     0     0   502   511  0.000000000E+00  0.000000000E+00  6.764353840E+02  6.764353840E+02  0.000000000E+00  0.00000E+00  9.000E+00
      21    -1     0     0   501   502  0.000000000E+00  0.000000000E+00 -7.182768579E+02  7.182768579E+02  0.000000000E+00  0.00000E+00  9.000E+00
      25     1     1     2     0     0  3.401226358E+02  8.650473099E+01 -6.053585456E+02  7.108097105E+02  1.250000000E+02  0.00000E+00  9.000E+00
      25     1     1     2     0     0 -2.892250803E+02 -3.954869850E+01  4.460031912E+02  5.475025965E+02  1.250000000E+02  0.00000E+00  9.000E+00
      21     1     1     2   501   511 -5.089755546E+01 -4.695603249E+01  1.175138804E+02  1.363999349E+02  0.000000000E+00  0.00000E+00  9.000E+00
#rwgt            1           1   3.4875764698950824E-002           6      168081           0
</event>
<event>
      5   9999  3.19816E-02  1.55923E+01 -1.00000E+00  1.75814E-01
      21    -1     0     0   502   501  0.000000000E+00  0.000000000E+00  2.800885582E+03  2.800885582E+03  0.000000000E+00  0.00000E+00  9.000E+00
      21    -1     0     0   512   502  0.000000000E+00  0.000000000E+00 -3.976267625E+02  3.976267625E+02  0.000000000E+00  0.00000E+00  9.000E+00
      25     1     1     2     0     0  1.539091671E+02  2.824905584E+02  2.407196670E+03  2.431812031E+03  1.250000000E+02  0.00000E+00  9.000E+00
      25     1     1     2     0     0 -1.391893401E+02 -2.876332711E+02  3.039695547E+02  4.583983652E+02  1.250000000E+02  0.00000E+00  9.000E+00
      21     1     1     2   512   501 -1.471982701E+01  5.142712718E+00 -3.079074054E+02  3.083019479E+02  0.000000000E+00  0.00000E+00  9.000E+00
#rwgt            1           1   6.7185248503718931E-002           6      168178           0
</event>
<event>
      5   9999  3.19816E-02  6.15608E+01 -1.00000E+00  1.34110E-01
       2    -1     0     0   502     0  0.000000000E+00  0.000000000E+00  4.685288485E+02  4.685288485E+02  0.000000000E+00  0.00000E+00  9.000E+00
      21    -1     0     0   501   502  0.000000000E+00  0.000000000E+00 -1.109035577E+02  1.109035577E+02  0.000000000E+00  0.00000E+00  9.000E+00
      25     1     1     2     0     0 -1.671592115E+01 -1.040034206E+01  1.794458156E+02  2.195754765E+02  1.250000000E+02  0.00000E+00  9.000E+00
      25     1     1     2     0     0  3.094174425E+01 -4.949420486E+01 -3.134762688E+01  1.414734659E+02  1.250000000E+02  0.00000E+00  9.000E+00
       2     1     1     2   501     0 -1.422582309E+01  5.989454693E+01  2.095271020E+02  2.183834638E+02  2.697398305E-06  0.00000E+00  9.000E+00
#rwgt            1           1   2.4067847209589883E-002           6      168468           0
</event>
<event>
      5   9999  3.19816E-02  8.11283E+01 -1.00000E+00  1.28056E-01
      21    -1     0     0   511   501  0.000000000E+00  0.000000000E+00  5.158235039E+02  5.158235039E+02  0.000000000E+00  0.00000E+00  9.000E+00
      21    -1     0     0   501   502  0.000000000E+00  0.000000000E+00 -1.903051620E+02  1.903051620E+02  0.000000000E+00  0.00000E+00  9.000E+00
      25     1     1     2     0     0 -1.689205949E+02 -1.045497907E+02  1.343395455E+02  2.704384211E+02  1.250000000E+02  0.00000E+00  9.000E+00
      25     1     1     2     0     0  2.054275914E+02  1.770000908E+02  1.029643456E+02  3.158420237E+02  1.250000000E+02  0.00000E+00  9.000E+00
      21     1     1     2   511   502 -3.650699647E+01 -7.245030010E+01  8.821445077E+01  1.198482211E+02  1.907348633E-06  0.00000E+00  9.000E+00
#rwgt            2          11   2.7292621332027675E-003           6      168631           0
</event>
<event>
      5   9999  3.19816E-02  2.67243E+01 -1.00000E+00  1.56611E-01
      21    -1     0     0   502   501  0.000000000E+00  0.000000000E+00  9.932060890E+02  9.932060890E+02  0.000000000E+00  0.00000E+00  9.000E+00
       2    -1     0     0   501     0  0.000000000E+00  0.000000000E+00 -3.294947848E+03  3.294947848E+03  0.000000000E+00  0.00000E+00  9.000E+00
      25     1     1     2     0     0  3.878958906E+02  1.958510410E+02  6.731337233E+02  8.108975655E+02  1.250000000E+02  0.00000E+00  9.000E+00
      25     1     1     2     0     0 -3.907355665E+02 -2.224240605E+02  3.434022597E+01  4.679219986E+02  1.250000000E+02  0.00000E+00  9.000E+00
       2     1     1     2   502     0  2.839675900E+00  2.657301946E+01 -3.009215708E+03  3.009334373E+03  0.000000000E+00  0.00000E+00  9.000E+00
#rwgt            1           1   2.9107947211447400E-002           6      168651           0
</event>
<event>
      5   9999  3.19816E-02  2.14154E+02 -1.00000E+00  1.10578E-01
      21    -1     0     0   502   501  0.000000000E+00  0.000000000E+00  6.817358499E+02  6.817358499E+02  0.000000000E+00  0.00000E+00  9.000E+00
       2    -1     0     0   501     0  0.000000000E+00  0.000000000E+00 -1.422996272E+03  1.422996272E+03  0.000000000E+00  0.00000E+00  9.000E+00
      25     1     1     2     0     0 -9.671934202E+01  3.224500173E+02  3.959653568E+02  5.345486027E+02  1.250000000E+02  0.00000E+00  9.000E+00
      25     1     1     2     0     0  1.325772874E+02 -1.113192558E+02  1.527590038E+02  2.625433813E+02  1.250000000E+02  0.00000E+00  9.000E+00
       2     1     1     2   502     0 -3.585794535E+01 -2.111307615E+02 -1.289984783E+03  1.307640138E+03  2.157918644E-05  0.00000E+00  9.000E+00
#rwgt            2          13   1.0353762170412222E-002           6      168918           0
</event>
<event>
      5   9999  3.19816E-02  1.39506E+02 -1.00000E+00  1.17656E-01
      21    -1     0     0   502   511  0.000000000E+00  0.000000000E+00  2.752270109E+02  2.752270109E+02  0.000000000E+00  0.00000E+00  9.000E+00
      21    -1     0     0   501   502  0.000000000E+00  0.000000000E+00 -8.384396985E+02  8.384396985E+02  0.000000000E+00  0.00000E+00  9.000E+00
      25     1     1     2     0     0 -2.319239834E+02 -2.091223699E-01 -5.303338917E+02  5.921721156E+02  1.250000000E+02  0.00000E+00  9.000E+00
      25     1     1     2     0     0  2.910956529E+02  1.265450511E+02 -1.145292870E+02  3.598503671E+02  1.250000000E+02  0.00000E+00  9.000E+00
      21     1     1     2   501   511 -5.917166954E+01 -1.263359287E+02  8.165049100E+01  1.616442268E+02  3.162979880E-06  0.00000E+00  9.000E+00
#rwgt            1           1   3.2685775657144346E-002           6      168952           0
</event>
<event>
      5   9999  3.19816E-02  8.11457E+01 -1.00000E+00  1.28051E-01
      21    -1     0     0   502   512  0.000000000E+00  0.000000000E+00  4.063050268E+02  4.063050268E+02  0.000000000E+00  0.00000E+00  9.000E+00
      21    -1     0     0   501   502  0.000000000E+00  0.000000000E+00 -2.027562405E+02  2.027562405E+02  0.000000000E+00  0.00000E+00  9.000E+00
      25     1     1     2     0     0  5.456235721E+01  8.834812181E+01  1.937806440E+02  2.528999396E+02  1.250000000E+02  0.00000E+00  9.000E+00
      25     1     1     2     0     0  2.454068539E+01 -1.064402628E+02 -1.187960334E+02  2.041305277E+02  1.250000000E+02  0.00000E+00  9.000E+00
      21     1     1     2   501   512 -7.910304260E+01  1.809214104E+01  1.285641757E+02  1.520308001E+02  2.697398305E-06  0.00000E+00  9.000E+00
#rwgt            2          11   2.0500006276062961E-003           6      169012           0
</event>
<event>
      5   9999  3.19816E-02  1.51011E+02 -1.00000E+00  1.16278E-01
      21    -1     0     0   511   501  0.000000000E+00  0.000000000E+00  3.927371295E+02  3.927371295E+02  0.000000000E+00  0.00000E+00  9.000E+00
      21    -1     0     0   501   502  0.000000000E+00  0.000000000E+00 -5.409371775E+02  5.409371775E+02  0.000000000E+00  0.00000E+00  9.000E+00
      25     1     1     2     0     0 -3.376079333E+02 -3.212605719E+01  7.653398548E+01  3.694504718E+02  1.250000000E+02  0.00000E+00  9.000E+00
      25     1     1     2     0     0  2.855559057E+02  1.738824177E+02 -2.058430591E+02  4.120359638E+02  1.250000000E+02  0.00000E+00  9.000E+00
      21     1     1     2   511   502  5.205202755E+01 -1.417563605E+02 -1.889097441E+01  1.521878715E+02  2.949074954E-06  0.00000E+00  9.000E+00
#rwgt            1           1   2.7637496023805153E-002           6      169032           0
</event>
<event>
      5   9999  3.19816E-02  7.14662E+01 -1.00000E+00  1.30766E-01
      21    -1     0     0   502   501  0.000000000E+00  0.000000000E+00  2.049264396E+03  2.049264396E+03  0.000000000E+00  0.00000E+00  9.000E+00
      21    -1     0     0   512   502  0.000000000E+00  0.000000000E+00 -9.303136594E+01  9.303136594E+01  0.000000000E+00  0.00000E+00  9.000E+00
      25     1     1     2     0     0  1.967921204E+02  2.621147803E+02  1.514425349E+03  1.554522575E+03  1.250000000E+02  0.00000E+00  9.000E+00
      25     1     1     2     0     0 -1.310239573E+02 -2.341511416E+02  4.184996523E+02  5.126021786E+02  1.250000000E+02  0.00000E+00  9.000E+00
      21     1     1     2   512   501 -6.576816312E+01 -2.796363868E+01  2.330802864E+01  7.517100882E+01  4.768371582E-07  0.00000E+00  9.000E+00
#rwgt            1           1   2.8743547178143088E-002           6      169106           0
</event>
<event>
      5   9999  3.19816E-02  2.51186E+02 -1.00000E+00  1.08160E-01
       2    -1     0     0   502     0  0.000000000E+00  0.000000000E+00  1.515418379E+03  1.515418379E+03  0.000000000E+00  0.00000E+00  9.000E+00
      21    -1     0     0   501   502  0.000000000E+00  0.000000000E+00 -2.287736369E+02  2.287736369E+02  0.000000000E+00  0.00000E+00  9.000E+00
      25     1     1     2     0     0 -1.045917143E+02 -5.358375134E+01 -9.460079945E+01  1.959207910E+02  1.250000000E+02  0.00000E+00  9.000E+00
      25     1     1     2     0     0  3.254874464E+02  1.731635248E+02  5.103768202E+02  6.419012250E+02  1.250000000E+02  0.00000E+00  9.000E+00
       2     1     1     2   501     0 -2.208957321E+02 -1.195797735E+02  8.708687214E+02  9.063699999E+02  1.078959322E-05  0.00000E+00  9.000E+00
#rwgt            1           1   2.7031647375182707E-002           6      169183           0
</event>
<event>
      5   9999  3.19816E-02  5.02218E+01 -1.00000E+00  1.38966E-01
      21    -1     0     0   502   511  0.000000000E+00  0.000000000E+00  2.371348307E+02  2.371348307E+02  0.000000000E+00  0.00000E+00  9.000E+00
      21    -1     0     0   501   502  0.000000000E+00  0.000000000E+00 -2.766087726E+02  2.766087726E+02  0.000000000E+00  0.00000E+00  9.000E+00
      25     1     1     2     0     0 -1.185714956E+02 -9.191269203E+01 -9.890370629E+01  2.188928634E+02  1.250000000E+02  0.00000E+00  9.000E+00
      25     1     1     2     0     0  1.687876385E+02  9.115762522E+01  1.786313905E+01  2.296585972E+02  1.250000000E+02  0.00000E+00  9.000E+00
      21     1     1     2   501   511 -5.021614291E+01  7.550668043E-01  4.156662534E+01  6.519214275E+01  4.768371582E-07  0.00000E+00  9.000E+00
#rwgt            1           1   2.7318878573990395E-002           6      169258           0
</event>
<event>
      5   9999  3.19816E-02  1.78387E+02 -1.00000E+00  1.13487E-01
      21    -1     0     0   502   501  0.000000000E+00  0.000000000E+00  5.691948616E+02  5.691948616E+02  0.000000000E+00  0.00000E+00  9.000E+00
       2    -1     0     0   501     0  0.000000000E+00  0.000000000E+00 -3.159172927E+03  3.159172927E+03  0.000000000E+00  0.00000E+00  9.000E+00
      25     1     1     2     0     0 -4.254111745E+02  2.612632144E+02  1.072941013E+02  5.257091960E+02  1.250000000E+02  0.00000E+00  9.000E+00
      25     1     1     2     0     0  2.776767183E+02 -3.612449166E+02  2.634747384E+01  4.732033802E+02  1.250000000E+02  0.00000E+00  9.000E+00
       2     1     1     2   502     0  1.477344562E+02  9.998170228E+01 -2.723619641E+03  2.729455213E+03  3.051757812E-05  0.00000E+00  9.000E+00
#rwgt            1           1   3.5727909802963129E-002           6      169396           0
</event>
<event>
      5   9999  3.19816E-02  3.02185E+02 -1.00000E+00  1.05490E-01
      21    -1     0     0   502   501  0.000000000E+00  0.000000000E+00  1.896648784E+03  1.896648784E+03  0.000000000E+00  0.00000E+00  9.000E+00
       3    -1     0     0   501     0  0.000000000E+00  0.000000000E+00 -2.103417169E+02  2.103417169E+02  0.000000000E+00  0.00000E+00  9.000E+00
      25     1     1     2     0     0  1.260386735E+02  3.492018774E+02  6.072247658E+02  7.226165059E+02  1.250000000E+02  0.00000E+00  9.000E+00
      25     1     1     2     0     0  1.586350719E+02 -4.505767921E+02  9.169416988E+02  1.041437281E+03  1.250000000E+02  0.00000E+00  9.000E+00
       3     1     1     2   502     0 -2.846737454E+02  1.013749147E+02  1.621406025E+02  3.429367138E+02  5.394796609E-06  0.00000E+00  9.000E+00
#rwgt            1           1   2.5303636312503180E-002           6      169451           0
</event>
<event>
      5   9999  3.19816E-02  6.48658E+01 -1.00000E+00  1.32918E-01
      21    -1     0     0   502   501  0.000000000E+00  0.000000000E+00  1.671096240E+02  1.671096240E+02  0.000000000E+00  0.00000E+00  9.000E+00
      21    -1     0     0   501   511  0.000000000E+00  0.000000000E+00 -1.270430851E+03  1.270430851E+03  0.000000000E+00  0.00000E+00  9.000E+00
      25     1     1     2     0     0 -3.926952825E+02  1.059689090E+02 -3.306506421E+02  5.388820295E+02  1.250000000E+02  0.00000E+00  9.000E+00
      25     1     1     2     0     0  3.422775550E+02 -1.467809134E+02 -6.841841177E+02  7.889432604E+02  1.250000000E+02  0.00000E+00  9.000E+00
      21     1     1     2   502   511  5.041772750E+01  4.081200441E+01 -8.848646682E+01  1.097151847E+02  9.536743164E-07  0.00000E+00  9.000E+00
#rwgt            1           1   5.6192869561053722E-003           6      169524           0
</event>
<event>
      5   9999  3.19816E-02  1.10563E+02 -1.00000E+00  1.21898E-01
      21    -1     0     0   502   501  0.000000000E+00  0.000000000E+00  3.502470820E+02  3.502470820E+02  0.000000000E+00  0.00000E+00  9.000E+00
      21    -1     0     0   501   512  0.000000000E+00  0.000000000E+00 -2.408943020E+02  2.408943020E+02  0.000000000E+00  0.00000E+00  9.000E+00
      25     1     1     2     0     0 -1.605618537E+02  7.128857762E+01 -1.390403859E+01  2.160566881E+02  1.250000000E+02  0.00000E+00  9.000E+00
      25     1     1     2     0     0  5.067347252E+01 -5.908911977E+01  1.942007387E+02  2.437175657E+02  1.250000000E+02  0.00000E+00  9.000E+00
      21     1     1     2   502   512  1.098883812E+02 -1.219945786E+01 -7.094392019E+01  1.313671302E+02  1.348699152E-06  0.00000E+00  9.000E+00
#rwgt            1           1   2.7588201991606730E-002           6      169610           0
</event>
<event>
      5   9999  3.19816E-02  1.85551E+02 -1.00000E+00  1.12847E-01
      21    -1     0     0   502   511  0.000000000E+00  0.000000000E+00  1.440325590E+03  1.440325590E+03  0.000000000E+00  0.00000E+00  9.000E+00
      21    -1     0     0   501   502  0.000000000E+00  0.000000000E+00 -2.983538969E+02  2.983538969E+02  0.000000000E+00  0.00000E+00  9.000E+00
      25     1     1     2     0     0  1.855170638E+02  3.073070553E+02  1.971854066E+02  4.282070665E+02  1.250000000E+02  0.00000E+00  9.000E+00
      25     1     1     2     0     0 -1.764759360E+02 -1.219764934E+02 -8.627322089E+01  2.628499374E+02  1.250000000E+02  0.00000E+00  9.000E+00
      21     1     1     2   501   511 -9.041127825E+00 -1.853305619E+02  1.031059508E+03  1.047622483E+03  0.000000000E+00  0.00000E+00  9.000E+00
#rwgt            2          11   2.1230158512022083E-003           6      169761           0
</event>
<event>
      5   9999  3.19816E-02  7.44595E+01 -1.00000E+00  1.29877E-01
      21    -1     0     0   502   501  0.000000000E+00  0.000000000E+00  1.364183253E+03  1.364183253E+03  0.000000000E+00  0.00000E+00  9.000E+00
      21    -1     0     0   512   502  0.000000000E+00  0.000000000E+00 -2.570759144E+01  2.570759144E+01  0.000000000E+00  0.00000E+00  9.000E+00
      25     1     1     2     0     0 -2.928676524E+01  7.974280332E+01  6.880543035E+02  7.044574890E+02  1.250000000E+02  0.00000E+00  9.000E+00
      25     1     1     2     0     0  2.948827986E+01 -5.283546222E+00  5.159779282E+02  5.317477757E+02  1.250000000E+02  0.00000E+00  9.000E+00
      21     1     1     2   512   501 -2.015146176E-01 -7.445925710E+01  1.344434294E+02  1.536855793E+02  3.814697266E-06  0.00000E+00  9.000E+00
#rwgt            1           1   1.1400086095642923E-002           6      169856           0
</event>
<event>
      5   9999  3.41135E-02  2.56328E+01 -1.00000E+00  1.57942E-01
      21    -1     0     0   502   511  0.000000000E+00  0.000000000E+00  1.008582543E+02  1.008582543E+02  0.000000000E+00  0.00000E+00  9.000E+00
      21    -1     0     0   501   502  0.000000000E+00  0.000000000E+00 -2.609485705E+03  2.609485705E+03  0.000000000E+00  0.00000E+00  9.000E+00
      25     1     1     2     0     0 -1.122395736E+02 -2.535376182E+02 -2.153596662E+02  3.726712111E+02  1.250000000E+02  0.00000E+00  9.000E+00
      25     1     1     2     0     0  1.170926621E+02  2.787067732E+02 -2.288298259E+03  2.311562692E+03  1.250000000E+02  0.00000E+00  9.000E+00
      21     1     1     2   501   511 -4.853088472E+00 -2.516915502E+01 -4.969524890E+00  2.611005572E+01  8.429369702E-07  0.00000E+00  9.000E+00
#rwgt            1           1  0.10223014059022370                6      169930           0
</event>
<event>
      5   9999  3.19816E-02  1.98093E+02 -1.00000E+00  1.11800E-01
      21    -1     0     0   502   501  0.000000000E+00  0.000000000E+00  1.438349609E+02  1.438349609E+02  0.000000000E+00  0.00000E+00  9.000E+00
       2    -1     0     0   501     0  0.000000000E+00  0.000000000E+00 -9.074527638E+02  9.074527638E+02  0.000000000E+00  0.00000E+00  9.000E+00
      25     1     1     2     0     0  1.204498841E+02  1.208119985E+02 -4.934186120E+02  5.368339038E+02  1.250000000E+02  0.00000E+00  9.000E+00
      25     1     1     2     0     0 -2.708360979E+01  5.389782018E+01  4.173810415E+01  1.449329717E+02  1.250000000E+02  0.00000E+00  9.000E+00
       2     1     1     2   502     0 -9.336627436E+01 -1.747098187E+02 -3.119372951E+02  3.695208492E+02  3.814697266E-06  0.00000E+00  9.000E+00
#rwgt            1           1   2.6083868960975112E-002           6      170062           0
</event>
<event>
      5   9999  3.19816E-02  5.61443E+01 -1.00000E+00  1.36263E-01
      21    -1     0     0   502   501  0.000000000E+00  0.000000000E+00  2.919533161E+02  2.919533161E+02  0.000000000E+00  0.00000E+00  9.000E+00
      21    -1     0     0   511   502  0.000000000E+00  0.000000000E+00 -2.243527156E+02  2.243527156E+02  0.000000000E+00  0.00000E+00  9.000E+00
      25     1     1     2     0     0 -1.564677612E+00  3.291693061E+01 -1.519216034E+02  1.994771820E+02  1.250000000E+02  0.00000E+00  9.000E+00
      25     1     1     2     0     0 -3.809908164E+01  6.819290569E+00  2.251385797E+02  2.604043448E+02  1.250000000E+02  0.00000E+00  9.000E+00
      21     1     1     2   511   501  3.966375925E+01 -3.973622118E+01 -5.616375749E+00  5.642450486E+01  1.034101938E-06  0.00000E+00  9.000E+00
#rwgt            1           1   2.5832097754981562E-002           6      170099           0
</event>
<event>
      5   9999  3.19816E-02  3.89794E+01 -1.00000E+00  1.45540E-01
      21    -1     0     0   502   501  0.000000000E+00  0.000000000E+00  2.279668330E+03  2.279668330E+03  0.000000000E+00  0.00000E+00  9.000E+00
      21    -1     0     0   501   512  0.000000000E+00  0.000000000E+00 -1.347638782E+02  1.347638782E+02  0.000000000E+00  0.00000E+00  9.000E+00
      25     1     1     2     0     0 -2.652812059E+01 -7.957719754E+01 -2.259272561E+01  1.522225437E+02  1.250000000E+02  0.00000E+00  9.000E+00
      25     1     1     2     0     0  6.426987592E+01  8.932159894E+01  2.203119569E+03  2.209404852E+03  1.250000000E+02  0.00000E+00  9.000E+00
      21     1     1     2   502   512 -3.774175533E+01 -9.744401397E+00 -3.562239150E+01  5.280481256E+01  2.384185791E-06  0.00000E+00  9.000E+00
#rwgt            1           1   3.1205218713927212E-002           6      170225           0
</event>
<event>
      5   9999  3.19816E-02  4.31342E+01 -1.00000E+00  1.42837E-01
      21    -1     0     0   502   501  0.000000000E+00  0.000000000E+00  2.551428592E+03  2.551428592E+03  0.000000000E+00  0.00000E+00  9.000E+00
      21    -1     0     0   511   502  0.000000000E+00  0.000000000E+00 -1.051448865E+02  1.051448865E+02  0.000000000E+00  0.00000E+00  9.000E+00
      25     1     1     2     0     0 -2.067807610E+02 -1.560075236E+02  2.215744291E+03  2.234333098E+03  1.250000000E+02  0.00000E+00  9.000E+00
      25     1     1     2     0     0  2.425678245E+02  1.319274965E+02  2.275376284E+02  3.790018287E+02  1.250000000E+02  0.00000E+00  9.000E+00
      21     1     1     2   511   501 -3.578706350E+01  2.408002707E+01  3.001785983E+00  4.323855151E+01  9.156639275E-07  0.00000E+00  9.000E+00
#rwgt            1           1   7.5400340857850356E-002           6      170368           0
</event>
<event>
      5   9999  3.19816E-02  2.58241E+01 -1.00000E+00  1.57703E-01
      21    -1     0     0   512   501  0.000000000E+00  0.000000000E+00  5.456738419E+02  5.456738419E+02  0.000000000E+00  0.00000E+00  9.000E+00
      21    -1     0     0   501   502  0.000000000E+00  0.000000000E+00 -1.808309493E+03  1.808309493E+03  0.000000000E+00  0.00000E+00  9.000E+00
      25     1     1     2     0     0 -4.024345717E+02 -5.555670226E+02  2.567305758E+01  6.977767601E+02  1.250000000E+02  0.00000E+00  9.000E+00
      25     1     1     2     0     0  3.767049106E+02  5.577730437E+02 -1.390993548E+03  1.550324291E+03  1.250000000E+02  0.00000E+00  9.000E+00
      21     1     1     2   512   502  2.572966109E+01 -2.206021140E+00  1.026848387E+02  1.058822841E+02  1.348699152E-06  0.00000E+00  9.000E+00
#rwgt            1           1   3.1298835689334982E-002           6      170454           0
</event>
<event>
      5   9999  3.19816E-02  2.16126E+02 -1.00000E+00  1.10436E-01
       2    -1     0     0   502     0  0.000000000E+00  0.000000000E+00  2.555156346E+02  2.555156346E+02  0.000000000E+00  0.00000E+00  9.000E+00
      21    -1     0     0   501   502  0.000000000E+00  0.000000000E+00 -1.223083554E+03  1.223083554E+03  0.000000000E+00  0.00000E+00  9.000E+00
      25     1     1     2     0     0  1.400946851E+02 -1.108768872E+02  4.636599607E+01  2.229237773E+02  1.250000000E+02  0.00000E+00  9.000E+00
      25     1     1     2     0     0 -2.379449022E+02  3.035830203E+02 -9.458239436E+02  1.029071601E+03  1.250000000E+02  0.00000E+00  9.000E+00
       2     1     1     2   501     0  9.785021715E+01 -1.927061331E+02 -6.810997177E+01  2.266038106E+02  2.861022949E-06  0.00000E+00  9.000E+00
#rwgt            1           1   3.4576603882831347E-002           6      170673           0
</event>
<event>
      5   9999  3.19816E-02  9.91807E+01 -1.00000E+00  1.23989E-01
      21    -1     0     0   511   501  0.000000000E+00  0.000000000E+00  1.850703470E+03  1.850703470E+03  0.000000000E+00  0.00000E+00  9.000E+00
      21    -1     0     0   501   502  0.000000000E+00  0.000000000E+00 -7.292071056E+01  7.292071056E+01  0.000000000E+00  0.00000E+00  9.000E+00
      25     1     1     2     0     0 -5.487565575E+01 -2.508825530E+02  6.995044494E+02  7.555692342E+02  1.250000000E+02  0.00000E+00  9.000E+00
      25     1     1     2     0     0  1.435176711E+02  2.063920929E+02  4.387755373E+02  5.209068919E+02  1.250000000E+02  0.00000E+00  9.000E+00
      21     1     1     2   511   502 -8.864201540E+01  4.449046004E+01  6.395027730E+02  6.471480546E+02  1.078959322E-05  0.00000E+00  9.000E+00
#rwgt            1           1   2.8436458273201005E-002           6      170740           0
</event>
<event>
      5   9999  3.19816E-02  5.49240E+01 -1.00000E+00  1.36787E-01
      21    -1     0     0   502   501  0.000000000E+00  0.000000000E+00  4.755384009E+02  4.755384009E+02  0.000000000E+00  0.00000E+00  9.000E+00
       2    -1     0     0   501     0  0.000000000E+00  0.000000000E+00 -5.656016096E+02  5.656016096E+02  0.000000000E+00  0.00000E+00  9.000E+00
      25     1     1     2     0     0 -3.112490224E+01 -1.337065800E+02 -9.347386585E+01  2.078667185E+02  1.250000000E+02  0.00000E+00  9.000E+00
      25     1     1     2     0     0  7.900566851E+01  1.606152140E+02  3.877722749E+02  4.450072806E+02  1.250000000E+02  0.00000E+00  9.000E+00
       2     1     1     2   502     0 -4.788076627E+01 -2.690863406E+01 -3.843616177E+02  3.882660113E+02  5.394796609E-06  0.00000E+00  9.000E+00
#rwgt            1           1   2.8134043206822772E-002           6      170812           0
</event>
<event>
      5   9999  3.19816E-02  4.07866E+01 -1.00000E+00  1.44318E-01
      21    -1     0     0   502   501  0.000000000E+00  0.000000000E+00  7.595105700E+02  7.595105700E+02  0.000000000E+00  0.00000E+00  9.000E+00
      21    -1     0     0   501   511  0.000000000E+00  0.000000000E+00 -4.853114404E+02  4.853114404E+02  0.000000000E+00  0.00000E+00  9.000E+00
      25     1     1     2     0     0 -3.504874149E+02 -2.838083995E+02  2.915190133E+02  5.513592030E+02  1.250000000E+02  0.00000E+00  9.000E+00
      25     1     1     2     0     0  3.909229610E+02  2.784689650E+02  1.524395739E+02  5.188723828E+02  1.250000000E+02  0.00000E+00  9.000E+00
      21     1     1     2   502   511 -4.043554615E+01  5.339434477E+00 -1.697594575E+02  1.745904246E+02  3.814697266E-06  0.00000E+00  9.000E+00
#rwgt            1           1   2.9924528494483026E-002           6      170912           0
</event>
<event>
      5   9999  3.19816E-02  3.13445E+01 -1.00000E+00  1.51729E-01
      21    -1     0     0   502   512  0.000000000E+00  0.000000000E+00  2.035935093E+02  2.035935093E+02  0.000000000E+00  0.00000E+00  9.000E+00
      21    -1     0     0   501   502  0.000000000E+00  0.000000000E+00 -5.589351107E+02  5.589351107E+02  0.000000000E+00  0.00000E+00  9.000E+00
      25     1     1     2     0     0  1.193494194E+02 -1.279070341E+02 -4.210178345E+02  4.727425412E+02  1.250000000E+02  0.00000E+00  9.000E+00
      25     1     1     2     0     0 -1.048881379E+02  1.000978806E+02 -2.573165632E+01  1.931533725E+02  1.250000000E+02  0.00000E+00  9.000E+00
      21     1     1     2   501   512 -1.446128153E+01  2.780915352E+01  9.140788945E+01  9.663270635E+01  1.348699152E-06  0.00000E+00  9.000E+00
#rwgt            1           1   2.3992778757608371E-002           6      171088           0
</event>
<event>
      5   9999  3.19816E-02  6.39802E+01 -1.00000E+00  1.33229E-01
      21    -1     0     0   502   501  0.000000000E+00  0.000000000E+00  2.125961793E+02  2.125961793E+02  0.000000000E+00  0.00000E+00  9.000E+00
       2    -1     0     0   501     0  0.000000000E+00  0.000000000E+00 -9.535754107E+02  9.535754107E+02  0.000000000E+00  0.00000E+00  9.000E+00
      25     1     1     2     0     0 -7.531300887E+00  8.296216294E+01 -2.296239901E+02  2.743931811E+02  1.250000000E+02  0.00000E+00  9.000E+00
      25     1     1     2     0     0  7.081852547E+01 -9.235356182E+01  1.500159961E+02  2.273196934E+02  1.250000000E+02  0.00000E+00  9.000E+00
       2     1     1     2   502     0 -6.328722459E+01  9.391398875E+00 -6.613712373E+02  6.644587156E+02  1.078959322E-05  0.00000E+00  9.000E+00
#rwgt            1           1   2.9163926247432432E-002           6      171217           0
</event>
<event>
      5   9999  3.19816E-02  2.91387E+02 -1.00000E+00  1.06005E-01
      21    -1     0     0   511   501  0.000000000E+00  0.000000000E+00  8.186187373E+02  8.186187373E+02  0.000000000E+00  0.00000E+00  9.000E+00
      21    -1     0     0   501   502  0.000000000E+00  0.000000000E+00 -9.558311844E+02  9.558311844E+02  0.000000000E+00  0.00000E+00  9.000E+00
      25     1     1     2     0     0 -1.037593166E+02  4.736350323E+02  1.624442266E+02  5.264116890E+02  1.250000000E+02  0.00000E+00  9.000E+00
      25     1     1     2     0     0  2.212793982E+02 -7.402720602E+02 -4.675934062E+02  9.117213876E+02  1.250000000E+02  0.00000E+00  9.000E+00
      21     1     1     2   511   502 -1.175200816E+02  2.666370279E+02  1.679367324E+02  3.363168451E+02  1.907348633E-06  0.00000E+00  9.000E+00
#rwgt            2          11   4.3952132232595639E-003           6      171324           0
</event>
<event>
      5   9999  3.19816E-02  1.04285E+01 -1.00000E+00  1.93674E-01
      21    -1     0     0   512   501  0.000000000E+00  0.000000000E+00  3.779821941E+02  3.779821941E+02  0.000000000E+00  0.00000E+00  9.000E+00
      21    -1     0     0   501   502  0.000000000E+00  0.000000000E+00 -4.564461475E+02  4.564461475E+02  0.000000000E+00  0.00000E+00  9.000E+00
      25     1     1     2     0     0  1.714704555E+02  2.088385867E+02 -3.262798903E+02  4.417003953E+02  1.250000000E+02  0.00000E+00  9.000E+00
      25     1     1     2     0     0 -1.620639609E+02 -2.043361327E+02  2.210859804E+02  3.640357033E+02  1.250000000E+02  0.00000E+00  9.000E+00
      21     1     1     2   512   502 -9.406494651E+00 -4.502454044E+00  2.672995644E+01  2.869224294E+01  0.000000000E+00  0.00000E+00  9.000E+00
#rwgt            1           1   2.8583283652780862E-002           6      171344           0
</event>
<event>
      5   9999  3.19816E-02  4.47702E+01 -1.00000E+00  1.41870E-01
      21    -1     0     0   511   501  0.000000000E+00  0.000000000E+00  2.584383005E+03  2.584383005E+03  0.000000000E+00  0.00000E+00  9.000E+00
      21    -1     0     0   501   502  0.000000000E+00  0.000000000E+00 -2.597253347E+02  2.597253347E+02  0.000000000E+00  0.00000E+00  9.000E+00
      25     1     1     2     0     0  1.788586193E+02 -7.681595212E+02  1.324538900E+03  1.546637564E+03  1.250000000E+02  0.00000E+00  9.000E+00
      25     1     1     2     0     0 -1.986510407E+02  7.280019743E+02  8.628025976E+02  1.153040517E+03  1.250000000E+02  0.00000E+00  9.000E+00
      21     1     1     2   511   502  1.979242137E+01  4.015754691E+01  1.373161729E+02  1.444302595E+02  0.000000000E+00  0.00000E+00  9.000E+00
#rwgt            1           1   3.3487106285998505E-002           6      171612           0
</event>
<event>
      5   9999  3.19816E-02  2.94566E+01 -1.00000E+00  1.53593E-01
      21    -1     0     0   512   501  0.000000000E+00  0.000000000E+00  1.980755703E+02  1.980755703E+02  0.000000000E+00  0.00000E+00  9.000E+00
      21    -1     0     0   501   502  0.000000000E+00  0.000000000E+00 -4.327143896E+02  4.327143896E+02  0.000000000E+00  0.00000E+00  9.000E+00
      25     1     1     2     0     0 -2.584511142E+01  1.074396276E+02  1.196018975E+02  2.052823842E+02  1.250000000E+02  0.00000E+00  9.000E+00
      25     1     1     2     0     0  5.409965186E+01 -9.911079633E+01 -3.581570133E+02  3.957918246E+02  1.250000000E+02  0.00000E+00  9.000E+00
      21     1     1     2   512   502 -2.825454044E+01 -8.328831248E+00  3.916296476E+00  2.971575110E+01  4.636153336E-07  0.00000E+00  9.000E+00
#rwgt            1           1   3.0407123268199589E-002           6      171783           0
</event>
<event>
      5   9999  3.19816E-02  2.44510E+01 -1.00000E+00  1.59477E-01
      21    -1     0     0   502   511  0.000000000E+00  0.000000000E+00  4.712753144E+02  4.712753144E+02  0.000000000E+00  0.00000E+00  9.000E+00
      21    -1     0     0   501   502  0.000000000E+00  0.000000000E+00 -1.502988716E+02  1.502988716E+02  0.000000000E+00  0.00000E+00  9.000E+00
      25     1     1     2     0     0 -9.817156906E+01  1.530423376E+02  2.347662856E+01  2.218913386E+02  1.250000000E+02  0.00000E+00  9.000E+00
      25     1     1     2     0     0  1.074715440E+02 -1.756556161E+02  2.813069781E+02  3.703561046E+02  1.250000000E+02  0.00000E+00  9.000E+00
      21     1     1     2   501   511 -9.299974969E+00  2.261327855E+01  1.619283612E+01  2.932674279E+01  4.129530925E-07  0.00000E+00  9.000E+00
#rwgt            1           1   1.9935972427158645E-002           6      171886           0
</event>
<event>
      5   9999  3.19816E-02  1.46029E+02 -1.00000E+00  1.16857E-01
      21    -1     0     0   502   501  0.000000000E+00  0.000000000E+00  4.536746613E+02  4.536746613E+02  0.000000000E+00  0.00000E+00  9.000E+00
      21    -1     0     0   512   502  0.000000000E+00  0.000000000E+00 -8.378810777E+02  8.378810777E+02  0.000000000E+00  0.00000E+00  9.000E+00
      25     1     1     2     0     0 -1.416006605E+01 -7.266943478E+01  3.471442649E+02  3.763183425E+02  1.250000000E+02  0.00000E+00  9.000E+00
      25     1     1     2     0     0 -2.967910639E+01  2.119628357E+02 -1.000880917E+02  2.673045438E+02  1.250000000E+02  0.00000E+00  9.000E+00
      21     1     1     2   512   501  4.383917244E+01 -1.392934009E+02 -6.312625895E+02  6.479328526E+02  7.629394531E-06  0.00000E+00  9.000E+00
#rwgt            1           1   2.9714277422993172E-002           6      172018           0
</event>
<event>
      5   9999  3.19816E-02  5.51476E+01 -1.00000E+00  1.36690E-01
      21    -1     0     0   511   501  0.000000000E+00  0.000000000E+00  4.359267771E+02  4.359267771E+02  0.000000000E+00  0.00000E+00  9.000E+00
      21    -1     0     0   501   502  0.000000000E+00  0.000000000E+00 -3.180937374E+02  3.180937374E+02  0.000000000E+00  0.00000E+00  9.000E+00
      25     1     1     2     0     0 -2.022819566E+02 -2.440440489E+02  1.203337085E+02  3.613595013E+02  1.250000000E+02  0.00000E+00  9.000E+00
      25     1     1     2     0     0  1.489476764E+02  2.580693235E+02 -4.055128793E+01  3.256602416E+02  1.250000000E+02  0.00000E+00  9.000E+00
      21     1     1     2   511   502  5.333428021E+01 -1.402527464E+01  3.805061909E+01  6.700077154E+01  1.066240300E-06  0.00000E+00  9.000E+00
#rwgt            1           1   2.7464850414382305E-002           6      172093           0
</event>
<event>
      5   9999  3.19816E-02  1.64755E+01 -1.00000E+00  1.73629E-01
      21    -1     0     0   502   512  0.000000000E+00  0.000000000E+00  1.704223403E+02  1.704223403E+02  0.000000000E+00  0.00000E+00  9.000E+00
      21    -1     0     0   501   502  0.000000000E+00  0.000000000E+00 -1.355570521E+03  1.355570521E+03  0.000000000E+00  0.00000E+00  9.000E+00
      25     1     1     2     0     0 -7.528509586E+01 -4.022309066E+01 -1.455222639E+02  2.099701692E+02  1.250000000E+02  0.00000E+00  9.000E+00
      25     1     1     2     0     0  8.603672805E+01  5.270689012E+01 -1.171833282E+03  1.182792702E+03  1.250000000E+02  0.00000E+00  9.000E+00
      21     1     1     2   501   512 -1.075163219E+01 -1.248379946E+01  1.322073653E+02  1.332299902E+02  4.672030912E-06  0.00000E+00  9.000E+00
#rwgt            1           1   2.6808240070691380E-002           6      172175           0
</event>
<event>
      5   9999  3.19816E-02  1.29388E+01 -1.00000E+00  1.83653E-01
      21    -1     0     0   511   501  0.000000000E+00  0.000000000E+00  3.819222797E+02  3.819222797E+02  0.000000000E+00  0.00000E+00  9.000E+00
      21    -1     0     0   501   502  0.000000000E+00  0.000000000E+00 -6.038251690E+02  6.038251690E+02  0.000000000E+00  0.00000E+00  9.000E+00
      25     1     1     2     0     0  4.925603996E+01 -7.320726019E+01  8.677444692E+01  1.758984510E+02  1.250000000E+02  0.00000E+00  9.000E+00
      25     1     1     2     0     0 -6.204943118E+01  7.514188901E+01 -5.478550916E+02  5.703215206E+02  1.250000000E+02  0.00000E+00  9.000E+00
      21     1     1     2   511   502  1.279339122E+01 -1.934628817E+00  2.391777554E+02  2.395274772E+02  3.814697266E-06  0.00000E+00  9.000E+00
#rwgt            1           1   2.9794324857797951E-002           6      172305           0
</event>
<event>
      5   9999  3.19816E-02  1.13325E+02 -1.00000E+00  1.21433E-01
      21    -1     0     0   512   501  0.000000000E+00  0.000000000E+00  9.780252059E+01  9.780252059E+01  0.000000000E+00  0.00000E+00  9.000E+00
      21    -1     0     0   501   502  0.000000000E+00  0.000000000E+00 -8.182011234E+02  8.182011234E+02  0.000000000E+00  0.00000E+00  9.000E+00
      25     1     1     2     0     0 -2.616412607E+01 -1.100013986E+02 -2.720107249E+02  3.199995370E+02  1.250000000E+02  0.00000E+00  9.000E+00
      25     1     1     2     0     0  3.792508976E+01  2.227146588E+02 -3.920846506E+02  4.694629963E+02  1.250000000E+02  0.00000E+00  9.000E+00
      21     1     1     2   512   502 -1.176096369E+01 -1.127132602E+02 -5.630322732E+01  1.265411107E+02  1.507891493E-06  0.00000E+00  9.000E+00
#rwgt            1           1   3.0294421254541418E-002           6      172456           0
</event>
<event>
      5   9999  3.19816E-02  3.80418E+01 -1.00000E+00  1.46205E-01
      21    -1     0     0   511   501  0.000000000E+00  0.000000000E+00  4.544270817E+02  4.544270817E+02  0.000000000E+00  0.00000E+00  9.000E+00
      21    -1     0     0   501   502  0.000000000E+00  0.000000000E+00 -6.967451396E+02  6.967451396E+02  0.000000000E+00  0.00000E+00  9.000E+00
      25     1     1     2     0     0 -2.488915064E+02  4.151065755E+02 -2.931315874E+02  5.794925181E+02  1.250000000E+02  0.00000E+00  9.000E+00
      25     1     1     2     0     0  2.455232686E+02 -4.529990035E+02  5.654217174E+01  5.332089551E+02  1.250000000E+02  0.00000E+00  9.000E+00
      21     1     1     2   511   502  3.368237790E+00  3.789242796E+01 -5.728642234E+00  3.847074816E+01  9.156639275E-07  0.00000E+00  9.000E+00
#rwgt            1           1   2.6828815303510882E-002           6      172514           0
</event>
<event>
      5   9999  3.19816E-02  1.14005E+01 -1.00000E+00  1.89399E-01
      21    -1     0     0   502   501  0.000000000E+00  0.000000000E+00  8.183366091E+02  8.183366091E+02  0.000000000E+00  0.00000E+00  9.000E+00
      21    -1     0     0   501   512  0.000000000E+00  0.000000000E+00 -4.436008997E+01  4.436008997E+01  0.000000000E+00  0.00000E+00  9.000E+00
      25     1     1     2     0     0 -4.102205311E+01  3.682415415E+01  1.201771543E+02  1.819515748E+02  1.250000000E+02  0.00000E+00  9.000E+00
      25     1     1     2     0     0  4.860136444E+01 -4.534040178E+01  6.541942880E+02  6.693377407E+02  1.250000000E+02  0.00000E+00  9.000E+00
      21     1     1     2   502   512 -7.579311332E+00  8.516247632E+00 -3.949232190E-01  1.140738350E+01  3.729013728E-07  0.00000E+00  9.000E+00
#rwgt            1           1   2.7252573670827805E-002           6      172703           0
</event>
<event>
      5   9999  3.19816E-02  1.76752E+02 -1.00000E+00  1.13637E-01
      21    -1     0     0   511   501  0.000000000E+00  0.000000000E+00  4.590861019E+02  4.590861019E+02  0.000000000E+00  0.00000E+00  9.000E+00
      21    -1     0     0   501   502  0.000000000E+00  0.000000000E+00 -3.061002710E+02  3.061002710E+02  0.000000000E+00  0.00000E+00  9.000E+00
      25     1     1     2     0     0 -4.248525469E+01 -1.854549036E+02  2.373578940E+02  3.288803551E+02  1.250000000E+02  0.00000E+00  9.000E+00
      25     1     1     2     0     0 -1.250338918E+02  1.290763485E+02 -1.288939625E+02  2.540331305E+02  1.250000000E+02  0.00000E+00  9.000E+00
      21     1     1     2   511   502  1.675191465E+02  5.637855505E+01  4.452189946E+01  1.822728873E+02  3.162979880E-06  0.00000E+00  9.000E+00
#rwgt            2          11   3.5342360242760847E-003           6      172969           0
</event>
<event>
      5   9999  3.19816E-02  9.35180E+02 -1.00000E+00  9.16953E-02
      21    -1     0     0   502   501  0.000000000E+00  0.000000000E+00  2.925893496E+03  2.925893496E+03  0.000000000E+00  0.00000E+00  9.000E+00
       2    -1     0     0   501     0  0.000000000E+00  0.000000000E+00 -1.281681091E+03  1.281681091E+03  0.000000000E+00  0.00000E+00  9.000E+00
      25     1     1     2     0     0  9.205337160E+02 -2.266673708E+02  1.235958333E+03  1.562683084E+03  1.250000000E+02  0.00000E+00  9.000E+00
      25     1     1     2     0     0 -1.487009510E+03 -5.174200199E+02  6.012868364E+02  1.689997520E+03  1.250000000E+02  0.00000E+00  9.000E+00
       2     1     1     2   502     0  5.664757937E+02  7.440873907E+02 -1.930327645E+02  9.548939826E+02  7.629394531E-06  0.00000E+00  9.000E+00
#rwgt            2          13   4.2386203163466662E-004           6      173154           0
</event>
<event>
      5   9999  3.19816E-02  2.29726E+02 -1.00000E+00  1.09500E-01
      21    -1     0     0   502   501  0.000000000E+00  0.000000000E+00  9.255190573E+02  9.255190573E+02  0.000000000E+00  0.00000E+00  9.000E+00
      21    -1     0     0   511   502  0.000000000E+00  0.000000000E+00 -3.080352102E+02  3.080352102E+02  0.000000000E+00  0.00000E+00  9.000E+00
      25     1     1     2     0     0 -1.002079212E+02 -3.290111651E+02  4.003563050E+02  5.424021987E+02  1.250000000E+02  0.00000E+00  9.000E+00
      25     1     1     2     0     0 -4.392869080E+00  1.244803820E+02  3.736139858E+02  4.131913276E+02  1.250000000E+02  0.00000E+00  9.000E+00
      21     1     1     2   511   501  1.046007903E+02  2.045307831E+02 -1.564864437E+02  2.779607412E+02  0.000000000E+00  0.00000E+00  9.000E+00
#rwgt            1           1   2.5672984711929244E-002           6      173173           0
</event>
<event>
      5   9999  3.19816E-02  1.04057E+02 -1.00000E+00  1.23056E-01
      21    -1     0     0   512   501  0.000000000E+00  0.000000000E+00  2.892900908E+02  2.892900908E+02  0.000000000E+00  0.00000E+00  9.000E+00
      21    -1     0     0   501   502  0.000000000E+00  0.000000000E+00 -1.807273667E+03  1.807273667E+03  0.000000000E+00  0.00000E+00  9.000E+00
      25     1     1     2     0     0 -5.960899607E+02  7.413034032E+01 -2.591468011E+02  6.660334925E+02  1.250000000E+02  0.00000E+00  9.000E+00
      25     1     1     2     0     0  4.981575573E+02 -1.093020676E+02 -1.202616100E+03  1.312256978E+03  1.250000000E+02  0.00000E+00  9.000E+00
      21     1     1     2   512   502  9.793240342E+01  3.517172725E+01 -5.622067526E+01  1.182732868E+02  1.907348633E-06  0.00000E+00  9.000E+00
#rwgt            1           1   2.6890745838528171E-002           6      173230           0
</event>
<event>
      5   9999  3.19816E-02  9.70611E+01 -1.00000E+00  1.24413E-01
      21    -1     0     0   502   501  0.000000000E+00  0.000000000E+00  2.015931631E+02  2.015931631E+02  0.000000000E+00  0.00000E+00  9.000E+00
      21    -1     0     0   501   511  0.000000000E+00  0.000000000E+00 -4.187651040E+02  4.187651040E+02  0.000000000E+00  0.00000E+00  9.000E+00
      25     1     1     2     0     0 -7.867704131E+01  9.753397413E+01  1.015350520E+02  2.040522475E+02  1.250000000E+02  0.00000E+00  9.000E+00
      25     1     1     2     0     0  8.114662541E+01 -5.042701285E-01 -1.071668834E+02  1.835613521E+02  1.250000000E+02  0.00000E+00  9.000E+00
      21     1     1     2   502   511 -2.469584099E+00 -9.702970400E+01 -2.115401095E+02  2.327446675E+02  0.000000000E+00  0.00000E+00  9.000E+00
#rwgt            1           1   2.9333721894049498E-002           6      173334           0
</event>
<event>
      5   9999  3.19816E-02  6.02425E+01 -1.00000E+00  1.34610E-01
      21    -1     0     0   502   512  0.000000000E+00  0.000000000E+00  2.771400031E+03  2.771400031E+03  0.000000000E+00  0.00000E+00  9.000E+00
      21    -1     0     0   501   502  0.000000000E+00  0.000000000E+00 -1.533510712E+02  1.533510712E+02  0.000000000E+00  0.00000E+00  9.000E+00
      25     1     1     2     0     0 -4.034478097E+02  3.353982688E+02  6.520487014E+02  8.462001198E+02  1.250000000E+02  0.00000E+00  9.000E+00
      25     1     1     2     0     0  4.384893379E+02 -3.844007756E+02  1.598092142E+03  1.705743342E+03  1.250000000E+02  0.00000E+00  9.000E+00
      21     1     1     2   501   512 -3.504152815E+01  4.900250680E+01  3.679081168E+02  3.728076405E+02  0.000000000E+00  0.00000E+00  9.000E+00
#rwgt            2          11   1.9279723530505285E-003           6      173504           0
</event>
<event>
      5   9999  3.19816E-02  2.52717E+01 -1.00000E+00  1.58400E-01
      21    -1     0     0   502   511  0.000000000E+00  0.000000000E+00  9.310496269E+02  9.310496269E+02  0.000000000E+00  0.00000E+00  9.000E+00
      21    -1     0     0   501   502  0.000000000E+00  0.000000000E+00 -1.171008488E+02  1.171008488E+02  0.000000000E+00  0.00000E+00  9.000E+00
      25     1     1     2     0     0 -1.758399621E+02 -4.301476752E+01  7.210560223E+02  7.538678596E+02  1.250000000E+02  0.00000E+00  9.000E+00
      25     1     1     2     0     0  1.601421112E+02  6.281972918E+01  1.588592045E+01  2.132350268E+02  1.250000000E+02  0.00000E+00  9.000E+00
      21     1     1     2   501   511  1.569785084E+01 -1.980496166E+01  7.700683540E+01  8.104758926E+01  9.536743164E-07  0.00000E+00  9.000E+00
#rwgt            1           1   2.9278140884693098E-002           6      173569           0
</event>
<event>
      5   9999  3.19816E-02  1.20186E+01 -1.00000E+00  1.86957E-01
      21    -1     0     0   502   501  0.000000000E+00  0.000000000E+00  1.441736202E+02  1.441736202E+02  0.000000000E+00  0.00000E+00  9.000E+00
      21    -1     0     0   501   512  0.000000000E+00  0.000000000E+00 -4.845063161E+02  4.845063161E+02  0.000000000E+00  0.00000E+00  9.000E+00
      25     1     1     2     0     0  7.593749335E+01 -1.941518555E+02 -2.599773872E+02  3.559138768E+02  1.250000000E+02  0.00000E+00  9.000E+00
      25     1     1     2     0     0 -8.790851066E+01  1.952206485E+02 -7.211861538E+01  2.581958608E+02  1.250000000E+02  0.00000E+00  9.000E+00
      21     1     1     2   502   512  1.197101731E+01 -1.068793053E+00 -8.236693329E+00  1.457019873E+01  2.064765462E-07  0.00000E+00  9.000E+00
#rwgt            1           1   2.8604754581618461E-002           6      173672           0
</event>
<event>
      5   9999  3.19816E-02  1.57228E+01 -1.00000E+00  1.75479E-01
      21    -1     0     0   502   501  0.000000000E+00  0.000000000E+00  2.382396821E+02  2.382396821E+02  0.000000000E+00  0.00000E+00  9.000E+00
      21    -1     0     0   511   502  0.000000000E+00  0.000000000E+00 -2.453798808E+02  2.453798808E+02  0.000000000E+00  0.00000E+00  9.000E+00
      25     1     1     2     0     0 -1.165993759E+02  1.053866008E+02  1.271717557E+02  2.376960360E+02  1.250000000E+02  0.00000E+00  9.000E+00
      25     1     1     2     0     0  1.073843397E+02 -9.264726903E+01 -1.160585047E+02  2.218321199E+02  1.250000000E+02  0.00000E+00  9.000E+00
      21     1     1     2   511   501  9.215036156E+00 -1.273933174E+01 -1.825344970E+01  2.409140699E+01  4.129530925E-07  0.00000E+00  9.000E+00
#rwgt            1           1   2.6398322355664867E-002           6      173845           0
</event>
<event>
      5   9999  3.19816E-02  5.71836E+01 -1.00000E+00  1.35829E-01
      21    -1     0     0   502   501  0.000000000E+00  0.000000000E+00  6.394206702E+02  6.394206702E+02  0.000000000E+00  0.00000E+00  9.000E+00
      21    -1     0     0   501   512  0.000000000E+00  0.000000000E+00 -7.606314752E+02  7.606314752E+02  0.000000000E+00  0.00000E+00  9.000E+00
      25     1     1     2     0     0 -2.789558146E+02 -1.608297784E+02  5.172108036E+01  3.492601241E+02  1.250000000E+02  0.00000E+00  9.000E+00
      25     1     1     2     0     0  2.663202117E+02  2.165998432E+02  3.611200818E+02  5.136873181E+02  1.250000000E+02  0.00000E+00  9.000E+00
      21     1     1     2   502   512  1.263560292E+01 -5.577006477E+01 -5.340519672E+02  5.371047033E+02  0.000000000E+00  0.00000E+00  9.000E+00
#rwgt            1           1   2.9521886840919324E-002           6      174047           0
</event>
<event>
      5   9999  3.19816E-02  6.60197E+01 -1.00000E+00  1.32521E-01
      21    -1     0     0   502   501  0.000000000E+00  0.000000000E+00  6.708123052E+02  6.708123052E+02  0.000000000E+00  0.00000E+00  9.000E+00
      21    -1     0     0   501   511  0.000000000E+00  0.000000000E+00 -1.409207429E+02  1.409207429E+02  0.000000000E+00  0.00000E+00  9.000E+00
      25     1     1     2     0     0  2.298241449E+02  1.235576616E+02  2.475388208E+02  3.807704047E+02  1.250000000E+02  0.00000E+00  9.000E+00
      25     1     1     2     0     0 -1.881507539E+02 -7.235292797E+01  2.770719441E+02  3.647321135E+02  1.250000000E+02  0.00000E+00  9.000E+00
      21     1     1     2   502   511 -4.167339103E+01 -5.120473360E+01  5.280797373E+00  6.623052985E+01  9.902267293E-07  0.00000E+00  9.000E+00
#rwgt            1           1   2.5653411399037221E-002           6      174220           0
</event>
<event>
      5   9999  3.19816E-02  1.10794E+02 -1.00000E+00  1.21858E-01
      21    -1     0     0   502   501  0.000000000E+00  0.000000000E+00  5.276927271E+02  5.276927271E+02  0.000000000E+00  0.00000E+00  9.000E+00
      21    -1     0     0   512   502  0.000000000E+00  0.000000000E+00 -4.572924476E+02  4.572924476E+02  0.000000000E+00  0.00000E+00  9.000E+00
      25     1     1     2     0     0  1.141374582E+02  1.110658496E+02  4.123086474E+02  4.593325626E+02  1.250000000E+02  0.00000E+00  9.000E+00
      25     1     1     2     0     0 -1.190803181E+02 -2.217491806E+02 -1.968140298E+02  3.430941322E+02  1.250000000E+02  0.00000E+00  9.000E+00
      21     1     1     2   512   501  4.942859826E+00  1.106833310E+02 -1.450943381E+02  1.825584799E+02  2.697398305E-06  0.00000E+00  9.000E+00
#rwgt            1           1   2.7798193845618838E-002           6      174301           0
</event>
<event>
      5   9999  3.19816E-02  4.01583E+00 -1.00000E+00  2.63067E-01
      21    -1     0     0   502   501  0.000000000E+00  0.000000000E+00  8.057569207E+02  8.057569207E+02  0.000000000E+00  0.00000E+00  9.000E+00
      21    -1     0     0   511   502  0.000000000E+00  0.000000000E+00 -6.939968034E+01  6.939968034E+01  0.000000000E+00  0.00000E+00  9.000E+00
      25     1     1     2     0     0  3.963993930E+01  1.324767745E+02  6.240041633E+02  6.512508091E+02  1.250000000E+02  0.00000E+00  9.000E+00
      25     1     1     2     0     0 -4.085708348E+01 -1.363037131E+02  1.082012309E+02  2.181295713E+02  1.250000000E+02  0.00000E+00  9.000E+00
      21     1     1     2   511   501  1.217144186E+00  3.826938618E+00  4.151846179E+00  5.776220724E+00  0.000000000E+00  0.00000E+00  9.000E+00
#rwgt            1           1   2.8366049628612500E-002           6      174355           0
</event>
<event>
      5   9999  3.19816E-02  1.04164E+02 -1.00000E+00  1.23036E-01
      21    -1     0     0   502   512  0.000000000E+00  0.000000000E+00  6.264622924E+02  6.264622924E+02  0.000000000E+00  0.00000E+00  9.000E+00
      21    -1     0     0   501   502  0.000000000E+00  0.000000000E+00 -4.240372215E+02  4.240372215E+02  0.000000000E+00  0.00000E+00  9.000E+00
      25     1     1     2     0     0 -1.036352934E+02 -2.517000743E+02 -2.438716482E+02  3.862532618E+02  1.250000000E+02  0.00000E+00  9.000E+00
      25     1     1     2     0     0  1.056794336E+02  1.475559885E+02  1.537352749E+01  2.209123305E+02  1.250000000E+02  0.00000E+00  9.000E+00
      21     1     1     2   501   512 -2.044140206E+00  1.041440858E+02  4.309231915E+02  4.433339217E+02  5.394796609E-06  0.00000E+00  9.000E+00
#rwgt            1           1   2.7963313697174055E-002           6      174695           0
</event>
<event>
      5   9999  3.19816E-02  4.28557E+01 -1.00000E+00  1.43007E-01
      21    -1     0     0   502   511  0.000000000E+00  0.000000000E+00  2.722910041E+02  2.722910041E+02  0.000000000E+00  0.00000E+00  9.000E+00
      21    -1     0     0   501   502  0.000000000E+00  0.000000000E+00 -3.339302203E+02  3.339302203E+02  0.000000000E+00  0.00000E+00  9.000E+00
      25     1     1     2     0     0  2.518105911E+02  2.484963150E+01 -7.096029927E+01  2.910093505E+02  1.250000000E+02  0.00000E+00  9.000E+00
      25     1     1     2     0     0 -2.140674418E+02 -4.514894504E+01 -3.402651456E+01  2.542559745E+02  1.250000000E+02  0.00000E+00  9.000E+00
      21     1     1     2   501   511 -3.774314937E+01  2.029931355E+01  4.334759764E+01  6.095589943E+01  4.768371582E-07  0.00000E+00  9.000E+00
#rwgt            1           1   2.7387203798689166E-002           6      174785           0
</event>
<event>
      5   9999  3.19816E-02  4.73478E+01 -1.00000E+00  1.40440E-01
      21    -1     0     0   512   501  0.000000000E+00  0.000000000E+00  3.661400578E+01  3.661400578E+01  0.000000000E+00  0.00000E+00  9.000E+00
      21    -1     0     0   501   502  0.000000000E+00  0.000000000E+00 -2.633521159E+03  2.633521159E+03  0.000000000E+00  0.00000E+00  9.000E+00
      25     1     1     2     0     0  1.333979831E+02  1.680448532E+02 -6.941320012E+02  7.372098275E+02  1.250000000E+02  0.00000E+00  9.000E+00
      25     1     1     2     0     0 -1.423645985E+02 -2.145358992E+02 -1.740790033E+03  1.764162201E+03  1.250000000E+02  0.00000E+00  9.000E+00
      21     1     1     2   512   502  8.966615337E+00  4.649104601E+01 -1.619851194E+02  1.687631371E+02  1.907348633E-06  0.00000E+00  9.000E+00
#rwgt            1           1   5.5968903364953221E-002           6      174886           0
</event>
<event>
      5   9999  3.19816E-02  1.47759E+02 -1.00000E+00  1.16653E-01
      21    -1     0     0   502   501  0.000000000E+00  0.000000000E+00  2.663006316E+02  2.663006316E+02  0.000000000E+00  0.00000E+00  9.000E+00
      21    -1     0     0   511   502  0.000000000E+00  0.000000000E+00 -3.646063920E+03  3.646063920E+03  0.000000000E+00  0.00000E+00  9.000E+00
      25     1     1     2     0     0 -6.401819962E+02  3.285394963E+02 -2.000377291E+03  2.129531755E+03  1.250000000E+02  0.00000E+00  9.000E+00
      25     1     1     2     0     0  6.887893870E+02 -1.890042999E+02 -4.758652738E+02  8.673097508E+02  1.250000000E+02  0.00000E+00  9.000E+00
      21     1     1     2   511   501 -4.860739087E+01 -1.395351964E+02 -9.035207230E+02  9.155230453E+02  1.078959322E-05  0.00000E+00  9.000E+00
#rwgt            2          11   7.5310943967831260E-004           6      175040           0
</event>
<event>
      5   9999  3.19816E-02  3.16123E+01 -1.00000E+00  1.51477E-01
      21    -1     0     0   502   501  0.000000000E+00  0.000000000E+00  1.842696779E+02  1.842696779E+02  0.000000000E+00  0.00000E+00  9.000E+00
      21    -1     0     0   512   502  0.000000000E+00  0.000000000E+00 -1.411288631E+03  1.411288631E+03  0.000000000E+00  0.00000E+00  9.000E+00
      25     1     1     2     0     0 -1.387235639E+02 -6.763953818E+01  5.200959189E+01  2.053030247E+02  1.250000000E+02  0.00000E+00  9.000E+00
      25     1     1     2     0     0  1.536073588E+02  3.975029954E+01 -1.287332554E+02  2.395256939E+02  1.250000000E+02  0.00000E+00  9.000E+00
      21     1     1     2   512   501 -1.488379491E+01  2.788923864E+01 -1.150295290E+03  1.150729590E+03  2.157918644E-05  0.00000E+00  9.000E+00
#rwgt            1           1   2.8327830689016380E-002           6      175060           0
</event>
<event>
      5   9999  3.19816E-02  1.03233E+02 -1.00000E+00  1.23210E-01
      21    -1     0     0   502   501  0.000000000E+00  0.000000000E+00  8.905329109E+02  8.905329109E+02  0.000000000E+00  0.00000E+00  9.000E+00
      21    -1     0     0   501   511  0.000000000E+00  0.000000000E+00 -1.221716477E+02  1.221716477E+02  0.000000000E+00  0.00000E+00  9.000E+00
      25     1     1     2     0     0  2.822244630E+01  7.366413722E+00 -5.087286445E+01  1.380717888E+02  1.250000000E+02  0.00000E+00  9.000E+00
      25     1     1     2     0     0  6.057486392E+00  9.000886687E+01  7.006569960E+02  7.174144655E+02  1.250000000E+02  0.00000E+00  9.000E+00
      21     1     1     2   502   511 -3.427993269E+01 -9.737528060E+01  1.185771316E+02  1.572183043E+02  0.000000000E+00  0.00000E+00  9.000E+00
#rwgt            1           1   2.5072513210299730E-002           6      175190           0
</event>
<event>
      5   9999  3.19816E-02  7.68402E+01 -1.00000E+00  1.29202E-01
      21    -1     0     0   502   501  0.000000000E+00  0.000000000E+00  1.755193695E+03  1.755193695E+03  0.000000000E+00  0.00000E+00  9.000E+00
      21    -1     0     0   501   512  0.000000000E+00  0.000000000E+00 -4.486692276E+02  4.486692276E+02  0.000000000E+00  0.00000E+00  9.000E+00
      25     1     1     2     0     0  1.647045830E+02 -3.955290044E+01  1.687832268E+03  1.700909990E+03  1.250000000E+02  0.00000E+00  9.000E+00
      25     1     1     2     0     0 -9.369602964E+01  6.891624930E+01 -7.383533479E+01  1.860243319E+02  1.250000000E+02  0.00000E+00  9.000E+00
      21     1     1     2   502   512 -7.100855332E+01 -2.936334886E+01 -3.074724653E+02  3.169286005E+02  0.000000000E+00  0.00000E+00  9.000E+00
#rwgt            1           1   3.0560478058654191E-002           6      175244           0
</event>
<event>
      5   9999  3.19816E-02  3.80727E+01 -1.00000E+00  1.46183E-01
      21    -1     0     0   502   501  0.000000000E+00  0.000000000E+00  1.257610129E+03  1.257610129E+03  0.000000000E+00  0.00000E+00  9.000E+00
      21    -1     0     0   511   502  0.000000000E+00  0.000000000E+00 -3.528927533E+02  3.528927533E+02  0.000000000E+00  0.00000E+00  9.000E+00
      25     1     1     2     0     0  2.732240714E+02  3.816641411E+02 -5.486233777E+01  4.888289945E+02  1.250000000E+02  0.00000E+00  9.000E+00
      25     1     1     2     0     0 -3.104988054E+02 -3.739100804E+02  9.603801449E+02  1.083592764E+03  1.250000000E+02  0.00000E+00  9.000E+00
      21     1     1     2   511   501  3.727473392E+01 -7.754060711E+00 -8.004316305E-01  3.808112311E+01  4.221265159E-07  0.00000E+00  9.000E+00
#rwgt            1           1   2.1932003740179649E-002           6      175312           0
</event>
<event>
      5   9999  3.19816E-02  2.97211E+01 -1.00000E+00  1.53322E-01
      21    -1     0     0   502   501  0.000000000E+00  0.000000000E+00  7.722372339E+02  7.722372339E+02  0.000000000E+00  0.00000E+00  9.000E+00
      21    -1     0     0   501   512  0.000000000E+00  0.000000000E+00 -8.278923027E+01  8.278923027E+01  0.000000000E+00  0.00000E+00  9.000E+00
      25     1     1     2     0     0 -4.560285725E+00  1.209043527E+02  1.806495450E+02  2.507945710E+02  1.250000000E+02  0.00000E+00  9.000E+00
      25     1     1     2     0     0  1.352385620E+00 -9.135687148E+01  5.396326186E+02  5.614056198E+02  1.250000000E+02  0.00000E+00  9.000E+00
      21     1     1     2   502   512  3.207900105E+00 -2.954748123E+01 -3.083415999E+01  4.282627339E+01  5.840038640E-07  0.00000E+00  9.000E+00
#rwgt            1           1   2.7597987947437844E-002           6      175600           0
</event>
<event>
      5   9999  3.19816E-02  9.20063E+01 -1.00000E+00  1.25477E-01
      21    -1     0     0   511   501  0.000000000E+00  0.000000000E+00  4.683850600E+02  4.683850600E+02  0.000000000E+00  0.00000E+00  9.000E+00
      21    -1     0     0   501   502  0.000000000E+00  0.000000000E+00 -2.674233855E+02  2.674233855E+02  0.000000000E+00  0.00000E+00  9.000E+00
      25     1     1     2     0     0  6.052842439E+01 -1.575066355E+02  1.460839457E+02  2.558076417E+02  1.250000000E+02  0.00000E+00  9.000E+00
      25     1     1     2     0     0 -1.051095659E+01  2.347298017E+02 -1.125443698E+02  2.889633111E+02  1.250000000E+02  0.00000E+00  9.000E+00
      21     1     1     2   511   502 -5.001746780E+01 -7.722316622E+01  1.674220986E+02  1.910374926E+02  0.000000000E+00  0.00000E+00  9.000E+00
#rwgt            1           1   2.8226563958584007E-002           6      175698           0
</event>
<event>
      5   9999  3.19816E-02  9.54369E+00 -1.00000E+00  1.98132E-01
      21    -1     0     0   512   501  0.000000000E+00  0.000000000E+00  1.032642631E+03  1.032642631E+03  0.000000000E+00  0.00000E+00  9.000E+00
      21    -1     0     0   501   502  0.000000000E+00  0.000000000E+00 -6.354411060E+02  6.354411060E+02  0.000000000E+00  0.00000E+00  9.000E+00
      25     1     1     2     0     0  4.246839803E+02 -4.050734541E+02 -3.057975519E+02  6.734820926E+02  1.250000000E+02  0.00000E+00  9.000E+00
      25     1     1     2     0     0 -4.226108554E+02  4.143892523E+02  4.822151791E+02  7.736115734E+02  1.250000000E+02  0.00000E+00  9.000E+00
      21     1     1     2   512   502 -2.073124939E+00 -9.315798238E+00  2.207838977E+02  2.209900709E+02  3.814697266E-06  0.00000E+00  9.000E+00
#rwgt            1           1   3.1268336525815094E-002           6      175753           0
</event>
<event>
      5   9999  3.19816E-02  3.66975E+02 -1.00000E+00  1.02824E-01
       2    -1     0     0   502     0  0.000000000E+00  0.000000000E+00  4.258824084E+03  4.258824084E+03  0.000000000E+00  0.00000E+00  9.000E+00
      21    -1     0     0   501   502  0.000000000E+00  0.000000000E+00 -2.173392206E+02  2.173392206E+02  0.000000000E+00  0.00000E+00  9.000E+00
      25     1     1     2     0     0 -1.855123650E+01  5.237025672E+02  8.485443108E+02  1.005117393E+03  1.250000000E+02  0.00000E+00  9.000E+00
      25     1     1     2     0     0 -4.301350048E+01 -1.619284081E+02 -4.379418539E+01  2.135741118E+02  1.250000000E+02  0.00000E+00  9.000E+00
       2     1     1     2   501     0  6.156473698E+01 -3.617741592E+02  3.236734738E+03  3.257471800E+03  4.315837288E-05  0.00000E+00  9.000E+00
#rwgt            1           1   2.7464828732568461E-002           6      176043           0
</event>
<event>
      5   9999  3.19816E-02  1.77252E+02 -1.00000E+00  1.13591E-01
      21    -1     0     0   502   501  0.000000000E+00  0.000000000E+00  1.148705173E+03  1.148705173E+03  0.000000000E+00  0.00000E+00  9.000E+00
      21    -1     0     0   511   502  0.000000000E+00  0.000000000E+00 -6.364658829E+02  6.364658829E+02  0.000000000E+00  0.00000E+00  9.000E+00
      25     1     1     2     0     0 -4.711826479E+02  2.272103831E+01  3.071192001E+02  5.766077838E+02  1.250000000E+02  0.00000E+00  9.000E+00
      25     1     1     2     0     0  6.478937163E+02 -8.880936480E+00  5.247273642E+02  8.430948614E+02  1.250000000E+02  0.00000E+00  9.000E+00
      21     1     1     2   511   501 -1.767110684E+02 -1.384010183E+01 -3.196072738E+02  3.654684112E+02  3.814697266E-06  0.00000E+00  9.000E+00
#rwgt            1           1   2.9549113629694604E-002           6      176084           0
</event>
<event>
      5   9999  3.19816E-02  6.27298E+01 -1.00000E+00  1.33679E-01
       2    -1     0     0   502     0  0.000000000E+00  0.000000000E+00  2.060114477E+03  2.060114477E+03  0.000000000E+00  0.00000E+00  9.000E+00
      21    -1     0     0   501   502  0.000000000E+00  0.000000000E+00 -1.634398592E+02  1.634398592E+02  0.000000000E+00  0.00000E+00  9.000E+00
      25     1     1     2     0     0  2.145080682E+02 -4.044417462E+01  8.686232185E+01  2.661193445E+02  1.250000000E+02  0.00000E+00  9.000E+00
      25     1     1     2     0     0 -2.487165706E+02  9.302556461E+01  2.210276501E+02  3.674124526E+02  1.250000000E+02  0.00000E+00  9.000E+00
       2     1     1     2   501     0  3.420850246E+01 -5.258138999E+01  1.588784646E+03  1.590022539E+03  0.000000000E+00  0.00000E+00  9.000E+00
#rwgt            1           1   2.8660964020020656E-002           6      176170           0
</event>
<event>
      5   9999  3.19816E-02  3.63329E+01 -1.00000E+00  1.47478E-01
      21    -1     0     0   502   501  0.000000000E+00  0.000000000E+00  6.527596872E+02  6.527596872E+02  0.000000000E+00  0.00000E+00  9.000E+00
      21    -1     0     0   501   511  0.000000000E+00  0.000000000E+00 -2.040653720E+02  2.040653720E+02  0.000000000E+00  0.00000E+00  9.000E+00
      25     1     1     2     0     0  1.408073436E+02 -2.390280920E+02  4.435297170E+02  5.378705668E+02  1.250000000E+02  0.00000E+00  9.000E+00
      25     1     1     2     0     0 -1.503010132E+02  2.039574142E+02  6.637475504E+00  2.825917151E+02  1.250000000E+02  0.00000E+00  9.000E+00
      21     1     1     2   502   511  9.493669583E+00  3.507067778E+01 -1.472877304E+00  3.636277726E+01  3.914214831E-07  0.00000E+00  9.000E+00
#rwgt            1           1   2.9352267822591992E-002           6      176237           0
</event>
<event>
      5   9999  3.19816E-02  1.88964E+01 -1.00000E+00  1.68429E-01
      21    -1     0     0   512   501  0.000000000E+00  0.000000000E+00  1.470179524E+02  1.470179524E+02  0.000000000E+00  0.00000E+00  9.000E+00
      21    -1     0     0   501   502  0.000000000E+00  0.000000000E+00 -9.883008546E+02  9.883008546E+02  0.000000000E+00  0.00000E+00  9.000E+00
      25     1     1     2     0     0 -4.738954586E+01  4.522238648E+01 -9.362434557E+02  9.468197514E+02  1.250000000E+02  0.00000E+00  9.000E+00
      25     1     1     2     0     0  6.099203780E+01 -3.210578698E+01  7.593762014E+01  1.616859066E+02  1.250000000E+02  0.00000E+00  9.000E+00
      21     1     1     2   512   502 -1.360249194E+01 -1.311659950E+01  1.902293338E+01  2.681314908E+01  2.384185791E-07  0.00000E+00  9.000E+00
#rwgt            1           1   2.9391236100188452E-002           6      176331           0
</event>
<event>
      5   9999  3.19816E-02  9.01199E+01 -1.00000E+00  1.25895E-01
      21    -1     0     0   511   501  0.000000000E+00  0.000000000E+00  4.607057553E+02  4.607057553E+02  0.000000000E+00  0.00000E+00  9.000E+00
      21    -1     0     0   501   502  0.000000000E+00  0.000000000E+00 -5.091793165E+02  5.091793165E+02  0.000000000E+00  0.00000E+00  9.000E+00
      25     1     1     2     0     0  2.477976247E+02  2.429447149E+02 -5.530660685E+01  3.729740179E+02  1.250000000E+02  0.00000E+00  9.000E+00
      25     1     1     2     0     0 -2.344967615E+02 -3.320776534E+02 -1.194525113E+02  4.417671349E+02  1.250000000E+02  0.00000E+00  9.000E+00
      21     1     1     2   511   502 -1.330086321E+01  8.913293853E+01  1.262855570E+02  1.551439190E+02  0.000000000E+00  0.00000E+00  9.000E+00
#rwgt            1           1   2.8205910669544063E-002           6      176473           0
</event>
<event>
      5   9999  3.19816E-02  1.25633E+02 -1.00000E+00  1.19529E-01
       2    -1     0     0   502     0  0.000000000E+00  0.000000000E+00  1.557141884E+03  1.557141884E+03  0.000000000E+00  0.00000E+00  9.000E+00
      21    -1     0     0   501   502  0.000000000E+00  0.000000000E+00 -1.540142405E+02  1.540142405E+02  0.000000000E+00  0.00000E+00  9.000E+00
      25     1     1     2     0     0 -9.404338117E+01  2.303891284E+02  1.999243265E+02  3.428090494E+02  1.250000000E+02  0.00000E+00  9.000E+00
      25     1     1     2     0     0  2.106427339E+02 -2.771670663E+02  3.610997716E+02  5.169235814E+02  1.250000000E+02  0.00000E+00  9.000E+00
       2     1     1     2   501     0 -1.165993528E+02  4.677793785E+01  8.421035456E+02  8.514234939E+02  0.000000000E+00  0.00000E+00  9.000E+00
#rwgt            1           1   2.7855125612680602E-002           6      176585           0
</event>
<event>
      5   9999  3.19816E-02  1.53346E+02 -1.00000E+00  1.16015E-01
       2    -1     0     0   502     0  0.000000000E+00  0.000000000E+00  7.012285248E+02  7.012285248E+02  0.000000000E+00  0.00000E+00  9.000E+00
      21    -1     0     0   501   502  0.000000000E+00  0.000000000E+00 -9.277619030E+02  9.277619030E+02  0.000000000E+00  0.00000E+00  9.000E+00
      25     1     1     2     0     0 -3.305431053E+02  2.958396222E+02 -7.625124952E+02  8.909714540E+02  1.250000000E+02  0.00000E+00  9.000E+00
      25     1     1     2     0     0  2.540491260E+02 -1.629351599E+02  2.423256092E+02  4.067376619E+02  1.250000000E+02  0.00000E+00  9.000E+00
       2     1     1     2   501     0  7.649397934E+01 -1.329044623E+02  2.936535078E+02  3.312813119E+02  3.814697266E-06  0.00000E+00  9.000E+00
#rwgt            1           1   2.7829009677940528E-002           6      176651           0
</event>
<event>
      5   9999  3.19816E-02  1.36886E+01 -1.00000E+00  1.81210E-01
      21    -1     0     0   502   501  0.000000000E+00  0.000000000E+00  3.135558700E+02  3.135558700E+02  0.000000000E+00  0.00000E+00  9.000E+00
      21    -1     0     0   501   511  0.000000000E+00  0.000000000E+00 -4.945895091E+02  4.945895091E+02  0.000000000E+00  0.00000E+00  9.000E+00
      25     1     1     2     0     0  3.008467247E+02 -6.026281134E+01  1.019081220E+02  3.466274997E+02  1.250000000E+02  0.00000E+00  9.000E+00
      25     1     1     2     0     0 -2.899125565E+02  6.849819940E+01 -2.055081583E+02  3.828836597E+02  1.250000000E+02  0.00000E+00  9.000E+00
      21     1     1     2   502   511 -1.093416819E+01 -8.235388054E+00 -7.743360286E+01  7.863421966E+01  9.536743164E-07  0.00000E+00  9.000E+00
#rwgt            1           1   2.7664690036565322E-002           6      176706           0
</event>
<event>
      5   9999  3.31958E-02  4.85759E+01 -1.00000E+00  1.39795E-01
       1    -1     0     0   502     0  0.000000000E+00  0.000000000E+00  2.685467073E+03  2.685467073E+03  0.000000000E+00  0.00000E+00  9.000E+00
      21    -1     0     0   501   502  0.000000000E+00  0.000000000E+00 -3.887992592E+01  3.887992592E+01  0.000000000E+00  0.00000E+00  9.000E+00
      25     1     1     2     0     0 -2.565188237E+01  1.191942334E+02  1.763533221E+03  1.772156795E+03  1.250000000E+02  0.00000E+00  9.000E+00
      25     1     1     2     0     0  7.043487734E+01 -1.003766206E+02  1.936547521E+02  2.610817897E+02  1.250000000E+02  0.00000E+00  9.000E+00
       1     1     1     2   501     0 -4.478299497E+01 -1.881761285E+01  6.893991739E+02  6.911084142E+02  0.000000000E+00  0.00000E+00  9.000E+00
#rwgt            1           1   9.3242529694166451E-002           6      176836           0
</event>
<event>
      5   9999  3.19816E-02  3.62955E+01 -1.00000E+00  1.47507E-01
      21    -1     0     0   502   511  0.000000000E+00  0.000000000E+00  1.167553888E+03  1.167553888E+03  0.000000000E+00  0.00000E+00  9.000E+00
      21    -1     0     0   501   502  0.000000000E+00  0.000000000E+00 -2.955798468E+03  2.955798468E+03  0.000000000E+00  0.00000E+00  9.000E+00
      25     1     1     2     0     0  1.058066793E+02 -1.799895804E+03 -6.266002897E+02  1.912870325E+03  1.250000000E+02  0.00000E+00  9.000E+00
      25     1     1     2     0     0 -1.349199633E+02  1.778221384E+03 -1.203511048E+03  2.155072744E+03  1.250000000E+02  0.00000E+00  9.000E+00
      21     1     1     2   501   511  2.911328404E+01  2.167441939E+01  4.186675700E+01  5.540928718E+01  0.000000000E+00  0.00000E+00  9.000E+00
#rwgt            1           1   2.2002723335744424E-002           6      176919           0
</event>
<event>
      5   9999  3.19816E-02  2.79033E+01 -1.00000E+00  1.55258E-01
      21    -1     0     0   512   501  0.000000000E+00  0.000000000E+00  1.344296402E+03  1.344296402E+03  0.000000000E+00  0.00000E+00  9.000E+00
      21    -1     0     0   501   502  0.000000000E+00  0.000000000E+00 -3.744342463E+01  3.744342463E+01  0.000000000E+00  0.00000E+00  9.000E+00
      25     1     1     2     0     0  1.079414468E+02  8.751413452E+01  3.031006032E+02  3.560969746E+02  1.250000000E+02  0.00000E+00  9.000E+00
      25     1     1     2     0     0 -1.082341508E+02 -5.961236155E+01  7.480151800E+02  7.683879063E+02  1.250000000E+02  0.00000E+00  9.000E+00
      21     1     1     2   512   502  2.927040005E-01 -2.790177298E+01  2.557371944E+02  2.572549459E+02  4.672030912E-06  0.00000E+00  9.000E+00
#rwgt            1           1   3.1736558715992264E-002           6      177215           0
</event>
<event>
      5   9999  3.19816E-02  1.54329E+02 -1.00000E+00  1.15906E-01
      21    -1     0     0   502   511  0.000000000E+00  0.000000000E+00  1.081302063E+03  1.081302063E+03  0.000000000E+00  0.00000E+00  9.000E+00
      21    -1     0     0   501   502  0.000000000E+00  0.000000000E+00 -1.254997031E+03  1.254997031E+03  0.000000000E+00  0.00000E+00  9.000E+00
      25     1     1     2     0     0 -4.988281396E+02  5.083948814E+01 -7.558663450E+02  9.156271610E+02  1.250000000E+02  0.00000E+00  9.000E+00
      25     1     1     2     0     0  4.921806101E+02 -2.050252906E+02 -2.299972789E+02  5.939704294E+02  1.250000000E+02  0.00000E+00  9.000E+00
      21     1     1     2   501   511  6.647529529E+00  1.541858024E+02  8.121686560E+02  8.267015042E+02  0.000000000E+00  0.00000E+00  9.000E+00
#rwgt            1           1   3.0585730090546645E-002           6      177335           0
</event>
<event>
      5   9999  3.19816E-02  6.59355E+01 -1.00000E+00  1.32550E-01
      21    -1     0     0   512   501  0.000000000E+00  0.000000000E+00  2.093804422E+02  2.093804422E+02  0.000000000E+00  0.00000E+00  9.000E+00
      21    -1     0     0   501   502  0.000000000E+00  0.000000000E+00 -4.639477919E+02  4.639477919E+02  0.000000000E+00  0.00000E+00  9.000E+00
      25     1     1     2     0     0 -1.195502003E+02 -2.339322557E+02 -2.253712902E+02  3.680132730E+02  1.250000000E+02  0.00000E+00  9.000E+00
      25     1     1     2     0     0  7.132733834E+01  1.889650503E+02 -1.596999092E+01  2.380659993E+02  1.250000000E+02  0.00000E+00  9.000E+00
      21     1     1     2   512   502  4.822286192E+01  4.496720543E+01 -1.322606857E+01  6.724896182E+01  1.685873940E-06  0.00000E+00  9.000E+00
#rwgt            1           1   2.8345485217184913E-002           6      177457           0
</event>
<event>
      5   9999  3.19816E-02  1.47688E+02 -1.00000E+00  1.16662E-01
      21    -1     0     0   511   501  0.000000000E+00  0.000000000E+00  4.917014251E+02  4.917014251E+02  0.000000000E+00  0.00000E+00  9.000E+00
      21    -1     0     0   501   502  0.000000000E+00  0.000000000E+00 -1.222077413E+03  1.222077413E+03  0.000000000E+00  0.00000E+00  9.000E+00
      25     1     1     2     0     0  3.061648045E+02 -6.944731627E+02 -3.911749887E+02  8.629442236E+02  1.250000000E+02  0.00000E+00  9.000E+00
      25     1     1     2     0     0 -2.550041292E+02  5.559295381E+02 -3.212001642E+02  7.020536323E+02  1.250000000E+02  0.00000E+00  9.000E+00
      21     1     1     2   511   502 -5.116067528E+01  1.385436247E+02 -1.800083512E+01  1.487809823E+02  3.953724850E-06  0.00000E+00  9.000E+00
#rwgt            1           1   1.1086696616164326E-002           6      177557           0
</event>
<event>
      5   9999  3.19816E-02  3.54138E+01 -1.00000E+00  1.48198E-01
      21    -1     0     0   502   512  0.000000000E+00  0.000000000E+00  3.749354780E+02  3.749354780E+02  0.000000000E+00  0.00000E+00  9.000E+00
      21    -1     0     0   501   502  0.000000000E+00  0.000000000E+00 -7.901757876E+02  7.901757876E+02  0.000000000E+00  0.00000E+00  9.000E+00
      25     1     1     2     0     0 -4.001511847E+01  4.712800536E+02  6.925421547E-01  4.892152678E+02  1.250000000E+02  0.00000E+00  9.000E+00
      25     1     1     2     0     0  7.221376809E+01 -4.565361956E+02 -4.240133200E+02  6.395720614E+02  1.250000000E+02  0.00000E+00  9.000E+00
      21     1     1     2   501   512 -3.219864961E+01 -1.474385797E+01  8.080468193E+00  3.632393634E+01  4.915124924E-07  0.00000E+00  9.000E+00
#rwgt            1           1   2.2337813692392457E-002           6      177681           0
</event>
<event>
      5   9999  3.19816E-02  7.34665E+01 -1.00000E+00  1.30166E-01
      21    -1     0     0   511   501  0.000000000E+00  0.000000000E+00  8.776288056E+02  8.776288056E+02  0.000000000E+00  0.00000E+00  9.000E+00
      21    -1     0     0   501   502  0.000000000E+00  0.000000000E+00 -4.306521669E+02  4.306521669E+02  0.000000000E+00  0.00000E+00  9.000E+00
      25     1     1     2     0     0  1.596144608E+02  3.005392665E+02 -2.887270979E+02  4.634533028E+02  1.250000000E+02  0.00000E+00  9.000E+00
      25     1     1     2     0     0 -1.552248925E+02 -2.272040236E+02  7.014080728E+02  7.637504306E+02  1.250000000E+02  0.00000E+00  9.000E+00
      21     1     1     2   511   502 -4.389568317E+00 -7.333524282E+01  3.429566379E+01  8.107723913E+01  8.259061849E-07  0.00000E+00  9.000E+00
#rwgt            1           1   2.9460940193740945E-002           6      177829           0
</event>
<event>
      5   9999  3.19816E-02  6.42753E+01 -1.00000E+00  1.33125E-01
      21    -1     0     0   502   501  0.000000000E+00  0.000000000E+00  4.016006611E+02  4.016006611E+02  0.000000000E+00  0.00000E+00  9.000E+00
      21    -1     0     0   501   512  0.000000000E+00  0.000000000E+00 -3.481090655E+02  3.481090655E+02  0.000000000E+00  0.00000E+00  9.000E+00
      25     1     1     2     0     0  1.102486228E+02  4.947078827E+01 -1.738449525E+01  1.747264674E+02  1.250000000E+02  0.00000E+00  9.000E+00
      25     1     1     2     0     0 -6.013036638E+01 -8.971350679E+01  2.970280415E+02  3.398747294E+02  1.250000000E+02  0.00000E+00  9.000E+00
      21     1     1     2   502   512 -5.011825641E+01  4.024271852E+01 -2.261519507E+02  2.351085298E+02  0.000000000E+00  0.00000E+00  9.000E+00
#rwgt            1           1   2.9470415252174038E-002           6      177955           0
</event>
<event>
      5   9999  3.19816E-02  9.36770E+01 -1.00000E+00  1.25117E-01
      21    -1     0     0   511   501  0.000000000E+00  0.000000000E+00  1.199596142E+03  1.199596142E+03  0.000000000E+00  0.00000E+00  9.000E+00
      21    -1     0     0   501   502  0.000000000E+00  0.000000000E+00 -1.181826205E+03  1.181826205E+03  0.000000000E+00  0.00000E+00  9.000E+00
      25     1     1     2     0     0 -1.628813785E+01  8.166193990E+02 -7.822786457E+02  1.137856505E+03  1.250000000E+02  0.00000E+00  9.000E+00
      25     1     1     2     0     0  1.085253553E+02 -8.329802812E+02  7.666286296E+02  1.144105920E+03  1.250000000E+02  0.00000E+00  9.000E+00
      21     1     1     2   511   502 -9.223721743E+01  1.636088221E+01  3.341995383E+01  9.945992188E+01  4.768371582E-07  0.00000E+00  9.000E+00
#rwgt            1           1   2.8464466317732220E-002           6      178019           0
</event>
<event>
      5   9999  3.19816E-02  4.14662E+01 -1.00000E+00  1.43877E-01
      21    -1     0     0   502   512  0.000000000E+00  0.000000000E+00  1.123060135E+03  1.123060135E+03  0.000000000E+00  0.00000E+00  9.000E+00
      21    -1     0     0   501   502  0.000000000E+00  0.000000000E+00 -4.031031785E+01  4.031031785E+01  0.000000000E+00  0.00000E+00  9.000E+00
      25     1     1     2     0     0  6.615692807E+01 -2.124806345E+01  1.267363933E+02  1.910898551E+02  1.250000000E+02  0.00000E+00  9.000E+00
      25     1     1     2     0     0 -4.531981955E+01 -1.460242563E+01  7.847876211E+02  7.961053493E+02  1.250000000E+02  0.00000E+00  9.000E+00
      21     1     1     2   501   512 -2.083710852E+01  3.585048907E+01  1.712258024E+02  1.761752482E+02  3.303624740E-06  0.00000E+00  9.000E+00
#rwgt            1           1   2.7843215123771234E-002           6      178136           0
</event>
<event>
      5   9999  3.19816E-02  1.68441E+02 -1.00000E+00  1.14432E-01
      21    -1     0     0   511   501  0.000000000E+00  0.000000000E+00  1.817718484E+02  1.817718484E+02  0.000000000E+00  0.00000E+00  9.000E+00
      21    -1     0     0   501   502  0.000000000E+00  0.000000000E+00 -4.747790737E+02  4.747790737E+02  0.000000000E+00  0.00000E+00  9.000E+00
      25     1     1     2     0     0 -5.550556733E+01  1.108397426E+02 -2.961985774E+02  3.445648180E+02  1.250000000E+02  0.00000E+00  9.000E+00
      25     1     1     2     0     0 -6.455236784E+00  4.579112383E+01  4.082502405E+01  1.393921795E+02  1.250000000E+02  0.00000E+00  9.000E+00
      21     1     1     2   511   502  6.196080411E+01 -1.566308664E+02 -3.763367198E+01  1.725939246E+02  1.261592536E-06  0.00000E+00  9.000E+00
#rwgt            1           1   3.0366827947002007E-002           6      178188           0
</event>
<event>
      5   9999  3.19816E-02  7.52880E+00 -1.00000E+00  2.11178E-01
      21    -1     0     0   502   501  0.000000000E+00  0.000000000E+00  5.565630690E+02  5.565630690E+02  0.000000000E+00  0.00000E+00  9.000E+00
      21    -1     0     0   512   502  0.000000000E+00  0.000000000E+00 -4.448011265E+02  4.448011265E+02  0.000000000E+00  0.00000E+00  9.000E+00
      25     1     1     2     0     0 -1.136488419E+02 -3.880413873E+01  4.924419075E+02  5.220592425E+02  1.250000000E+02  0.00000E+00  9.000E+00
      25     1     1     2     0     0  1.062768908E+02  4.033291569E+01 -9.560577427E+01  1.941313619E+02  1.250000000E+02  0.00000E+00  9.000E+00
      21     1     1     2   512   501  7.371951154E+00 -1.528776964E+00 -2.850741908E+02  2.851735911E+02  3.814697266E-06  0.00000E+00  9.000E+00
#rwgt            1           1   2.1566780011707143E-002           6      178224           0
</event>
<event>
      5   9999  3.19816E-02  9.02447E+01 -1.00000E+00  1.25867E-01
      21    -1     0     0   502   501  0.000000000E+00  0.000000000E+00  1.195782023E+03  1.195782023E+03  0.000000000E+00  0.00000E+00  9.000E+00
       2    -1     0     0   501     0  0.000000000E+00  0.000000000E+00 -4.734768808E+02  4.734768808E+02  0.000000000E+00  0.00000E+00  9.000E+00
      25     1     1     2     0     0 -4.275838079E+02  1.464628449E+01  3.220865442E+02  5.499156011E+02  1.250000000E+02  0.00000E+00  9.000E+00
      25     1     1     2     0     0  3.712224142E+02  5.583418945E+01  7.011980724E+02  8.051256264E+02  1.250000000E+02  0.00000E+00  9.000E+00
       2     1     1     2   502     0  5.636139369E+01 -7.048047394E+01 -3.009794745E+02  3.142176761E+02  5.394796609E-06  0.00000E+00  9.000E+00
#rwgt            1           1   2.8203583137985069E-002           6      178466           0
</event>
<event>
      5   9999  3.19816E-02  1.63069E+02 -1.00000E+00  1.14974E-01
      21    -1     0     0   502   501  0.000000000E+00  0.000000000E+00  9.420540461E+02  9.420540461E+02  0.000000000E+00  0.00000E+00  9.000E+00
      21    -1     0     0   501   511  0.000000000E+00  0.000000000E+00 -2.906638911E+02  2.906638911E+02  0.000000000E+00  0.00000E+00  9.000E+00
      25     1     1     2     0     0 -9.732284459E-02 -3.079456252E+02  1.625253807E+02  3.699594801E+02  1.250000000E+02  0.00000E+00  9.000E+00
      25     1     1     2     0     0 -1.039260558E+02  1.823641049E+02  6.116487635E+02  6.586322963E+02  1.250000000E+02  0.00000E+00  9.000E+00
      21     1     1     2   502   511  1.040233787E+02  1.255815202E+02 -1.227839892E+02  2.041261608E+02  3.814697266E-06  0.00000E+00  9.000E+00
#rwgt            1           1   3.0251994115535263E-002           6      178559           0
</event>
<event>
      5   9999  3.19816E-02  2.58221E+02 -1.00000E+00  1.07752E-01
      21    -1     0     0   512   501  0.000000000E+00  0.000000000E+00  3.552630912E+02  3.552630912E+02  0.000000000E+00  0.00000E+00  9.000E+00
      21    -1     0     0   501   502  0.000000000E+00  0.000000000E+00 -6.292287484E+02  6.292287484E+02  0.000000000E+00  0.00000E+00  9.000E+00
      25     1     1     2     0     0  3.465378939E+02 -1.089371143E+01 -1.594618963E+02  4.015722615E+02  1.250000000E+02  0.00000E+00  9.000E+00
      25     1     1     2     0     0 -1.763616160E+02  2.051057849E+02 -1.280666849E+02  3.243422242E+02  1.250000000E+02  0.00000E+00  9.000E+00
      21     1     1     2   512   502 -1.701762779E+02 -1.942120735E+02  1.356292392E+01  2.585773539E+02  5.731971397E-06  0.00000E+00  9.000E+00
#rwgt            1           1   2.8070408556954429E-002           6      178668           0
</event>
<event>
      5   9999  3.19816E-02  9.32535E+02 -1.00000E+00  9.17253E-02
      21    -1     0     0   502   501  0.000000000E+00  0.000000000E+00  1.661331258E+03  1.661331258E+03  0.000000000E+00  0.00000E+00  9.000E+00
      21    -1     0     0   511   502  0.000000000E+00  0.000000000E+00 -3.125059084E+03  3.125059084E+03  0.000000000E+00  0.00000E+00  9.000E+00
      25     1     1     2     0     0  8.685493672E+02 -1.535171265E+03 -5.707107326E+02  1.858080880E+03  1.250000000E+02  0.00000E+00  9.000E+00
      25     1     1     2     0     0  3.338440122E+01  1.772103506E+03 -2.470905253E+02  1.793918638E+03  1.250000000E+02  0.00000E+00  9.000E+00
      21     1     1     2   511   501 -9.019337684E+02 -2.369322404E+02 -6.459265679E+02  1.134390823E+03  1.868812365E-05  0.00000E+00  9.000E+00
#rwgt            2          11   9.8778466836618251E-004           6      178762           0
</event>
<event>
      5   9999  3.19816E-02  3.87344E+01 -1.00000E+00  1.45711E-01
      21    -1     0     0   502   501  0.000000000E+00  0.000000000E+00  3.795693883E+02  3.795693883E+02  0.000000000E+00  0.00000E+00  9.000E+00
      21    -1     0     0   512   502  0.000000000E+00  0.000000000E+00 -7.678554993E+02  7.678554993E+02  0.000000000E+00  0.00000E+00  9.000E+00
      25     1     1     2     0     0  1.397046847E+02  2.251113038E+02  2.726312797E+02  4.001815996E+02  1.250000000E+02  0.00000E+00  9.000E+00
      25     1     1     2     0     0 -1.648225044E+02 -1.956248568E+02 -4.478837126E+02  5.307168384E+02  1.250000000E+02  0.00000E+00  9.000E+00
      21     1     1     2   512   501  2.511781972E+01 -2.948644703E+01 -2.130336780E+02  2.165264496E+02  0.000000000E+00  0.00000E+00  9.000E+00
#rwgt            1           1   2.7051567073152257E-002           6      178857           0
</event>
<event>
      5   9999  3.19816E-02  2.04572E+01 -1.00000E+00  1.65563E-01
      21    -1     0     0   511   501  0.000000000E+00  0.000000000E+00  1.103052787E+03  1.103052787E+03  0.000000000E+00  0.00000E+00  9.000E+00
      21    -1     0     0   501   502  0.000000000E+00  0.000000000E+00 -4.816672928E+01  4.816672928E+01  0.000000000E+00  0.00000E+00  9.000E+00
      25     1     1     2     0     0 -1.062721286E+02 -1.109805973E+02  5.107652195E+02  5.478289585E+02  1.250000000E+02  0.00000E+00  9.000E+00
      25     1     1     2     0     0  1.084047249E+02  1.313262871E+02  3.544765951E+02  4.126461371E+02  1.250000000E+02  0.00000E+00  9.000E+00
      21     1     1     2   511   502 -2.132596284E+00 -2.034568978E+01  1.896442430E+02  1.907444205E+02  2.697398305E-06  0.00000E+00  9.000E+00
#rwgt            1           1   3.1823887761344295E-002           6      179038           0
</event>
<event>
      5   9999  3.19816E-02  1.80317E+01 -1.00000E+00  1.70169E-01
      21    -1     0     0   512   501  0.000000000E+00  0.000000000E+00  1.370714568E+02  1.370714568E+02  0.000000000E+00  0.00000E+00  9.000E+00
      21    -1     0     0   501   502  0.000000000E+00  0.000000000E+00 -4.824772429E+02  4.824772429E+02  0.000000000E+00  0.00000E+00  9.000E+00
      25     1     1     2     0     0 -1.398683066E+02  4.138761820E+01 -2.856911822E+01  1.942093526E+02  1.250000000E+02  0.00000E+00  9.000E+00
      25     1     1     2     0     0  1.218577431E+02 -4.051378616E+01 -3.468013325E+02  3.903675712E+02  1.250000000E+02  0.00000E+00  9.000E+00
      21     1     1     2   512   502  1.801056348E+01 -8.738320414E-01  2.996466463E+01  3.497177584E+01  4.768371582E-07  0.00000E+00  9.000E+00
#rwgt            1           1   3.0037284352771147E-002           6      179201           0
</event>
<event>
      5   9999  3.19816E-02  3.77115E+01 -1.00000E+00  1.46445E-01
      21    -1     0     0   502   501  0.000000000E+00  0.000000000E+00  1.267335999E+03  1.267335999E+03  0.000000000E+00  0.00000E+00  9.000E+00
      21    -1     0     0   511   502  0.000000000E+00  0.000000000E+00 -2.441197319E+02  2.441197319E+02  0.000000000E+00  0.00000E+00  9.000E+00
      25     1     1     2     0     0  1.273718468E+02 -7.966648298E+01  7.096063984E+01  2.079200526E+02  1.250000000E+02  0.00000E+00  9.000E+00
      25     1     1     2     0     0 -1.577830041E+02  1.019671763E+02  1.114424407E+03  1.137039815E+03  1.250000000E+02  0.00000E+00  9.000E+00
      21     1     1     2   511   501  3.041115731E+01 -2.230069327E+01 -1.621687799E+02  1.664958635E+02  2.697398305E-06  0.00000E+00  9.000E+00
#rwgt            1           1   3.0753365871624652E-002           6      179367           0
</event>
<event>
      5   9999  3.19816E-02  9.34008E+00 -1.00000E+00  1.99248E-01
       2    -1     0     0   502     0  0.000000000E+00  0.000000000E+00  6.696829690E+02  6.696829690E+02  0.000000000E+00  0.00000E+00  9.000E+00
      21    -1     0     0   501   502  0.000000000E+00  0.000000000E+00 -4.342559936E+02  4.342559936E+02  0.000000000E+00  0.00000E+00  9.000E+00
      25     1     1     2     0     0 -1.124179678E+02 -6.493617374E+01 -3.229239761E+02  3.698099518E+02  1.250000000E+02  0.00000E+00  9.000E+00
      25     1     1     2     0     0  1.206723152E+02  6.056548515E+01  8.494480945E+00  1.841932188E+02  1.250000000E+02  0.00000E+00  9.000E+00
       2     1     1     2   501     0 -8.254347408E+00  4.370688593E+00  5.498564704E+02  5.499357919E+02  1.321449896E-05  0.00000E+00  9.000E+00
#rwgt            1           1   2.9573897038302314E-002           6      179505           0
</event>
<event>
      5   9999  3.19816E-02  2.38464E+02 -1.00000E+00  1.08936E-01
      21    -1     0     0   502   501  0.000000000E+00  0.000000000E+00  1.749133747E+02  1.749133747E+02  0.000000000E+00  0.00000E+00  9.000E+00
      21    -1     0     0   511   502  0.000000000E+00  0.000000000E+00 -2.172445686E+03  2.172445686E+03  0.000000000E+00  0.00000E+00  9.000E+00
      25     1     1     2     0     0  3.077385444E+01 -2.787221714E+02 -2.076910032E+02  3.706664697E+02  1.250000000E+02  0.00000E+00  9.000E+00
      25     1     1     2     0     0  1.704008988E+02  4.067610587E+02 -5.587353175E+02  7.227040751E+02  1.250000000E+02  0.00000E+00  9.000E+00
      21     1     1     2   511   501 -2.011747533E+02 -1.280388873E+02 -1.231105991E+03  1.253988516E+03  2.157918644E-05  0.00000E+00  9.000E+00
#rwgt            2          11   1.2484001536746336E-003           6      180007           0
</event>
<event>
      5   9999  3.19816E-02  1.18355E+02 -1.00000E+00  1.20623E-01
       5    -1     0     0   502     0  0.000000000E+00  0.000000000E+00  2.094017310E+03  2.094017310E+03  0.000000000E+00  0.00000E+00  9.000E+00
      21    -1     0     0   501   502  0.000000000E+00  0.000000000E+00 -1.252774376E+03  1.252774376E+03  0.000000000E+00  0.00000E+00  9.000E+00
      25     1     1     2     0     0  4.396107803E+02  5.683461967E+02 -8.225385703E+02  1.099304206E+03  1.250000000E+02  0.00000E+00  9.000E+00
      25     1     1     2     0     0 -3.214568973E+02 -5.752495241E+02  9.871247785E+01  6.779496332E+02  1.250000000E+02  0.00000E+00  9.000E+00
       5     1     1     2   501     0 -1.181538830E+02  6.903327442E+00  1.565069026E+03  1.569537847E+03  2.157918644E-05  0.00000E+00  9.000E+00
#rwgt            1           1   2.0766956922046251E-002           6      180027           0
</event>
<event>
      5   9999  3.19816E-02  3.79242E+01 -1.00000E+00  1.46290E-01
      21    -1     0     0   502   511  0.000000000E+00  0.000000000E+00  8.067746260E+02  8.067746260E+02  0.000000000E+00  0.00000E+00  9.000E+00
      21    -1     0     0   501   502  0.000000000E+00  0.000000000E+00 -3.011311120E+02  3.011311120E+02  0.000000000E+00  0.00000E+00  9.000E+00
      25     1     1     2     0     0  1.696102778E+02  4.320997307E+02  2.755971638E+02  5.541268991E+02  1.250000000E+02  0.00000E+00  9.000E+00
      25     1     1     2     0     0 -1.403062268E+02 -4.080264875E+02  1.651496277E+02  4.786134676E+02  1.250000000E+02  0.00000E+00  9.000E+00
      21     1     1     2   501   511 -2.930405099E+01 -2.407324325E+01  6.489672257E+01  7.516537132E+01  1.348699152E-06  0.00000E+00  9.000E+00
#rwgt            1           1   3.1626058819608942E-002           6      180108           0
</event>
<event>
      5   9999  3.19816E-02  3.33428E+01 -1.00000E+00  1.49920E-01
      21    -1     0     0   512   501  0.000000000E+00  0.000000000E+00  2.504107233E+02  2.504107233E+02  0.000000000E+00  0.00000E+00  9.000E+00
      21    -1     0     0   501   502  0.000000000E+00  0.000000000E+00 -3.963391737E+02  3.963391737E+02  0.000000000E+00  0.00000E+00  9.000E+00
      25     1     1     2     0     0  5.892379418E+01  1.531216147E+02 -4.450160017E+01  2.110062436E+02  1.250000000E+02  0.00000E+00  9.000E+00
      25     1     1     2     0     0 -3.609132521E+01 -1.288230549E+02 -2.350942939E+02  2.979803521E+02  1.250000000E+02  0.00000E+00  9.000E+00
      21     1     1     2   512   502 -2.283246897E+01 -2.429855983E+01  1.336674438E+02  1.377633012E+02  1.907348633E-06  0.00000E+00  9.000E+00
#rwgt            1           1   2.8074852182858760E-002           6      180221           0
</event>
<event>
      5   9999  3.19816E-02  8.04410E+01 -1.00000E+00  1.28234E-01
       5    -1     0     0   502     0  0.000000000E+00  0.000000000E+00  6.950048102E+02  6.950048102E+02  0.000000000E+00  0.00000E+00  9.000E+00
      21    -1     0     0   501   502  0.000000000E+00  0.000000000E+00 -9.348251865E+02  9.348251865E+02  0.000000000E+00  0.00000E+00  9.000E+00
      25     1     1     2     0     0  1.570474433E+02 -1.137879762E+01 -6.013136214E+02  6.340318981E+02  1.250000000E+02  0.00000E+00  9.000E+00
      25     1     1     2     0     0 -1.245352325E+02  8.495667650E+01 -2.841856309E+02  3.451277066E+02  1.250000000E+02  0.00000E+00  9.000E+00
       5     1     1     2   501     0 -3.251221079E+01 -7.357787888E+01  6.456788761E+02  6.506703921E+02  0.000000000E+00  0.00000E+00  9.000E+00
#rwgt            1           1   2.0875435135009675E-002           6      180295           0
</event>
<event>
      5   9999  3.19816E-02  1.19891E+02 -1.00000E+00  1.20385E-01
       5    -1     0     0   502     0  0.000000000E+00  0.000000000E+00  5.275266039E+02  5.275266039E+02  0.000000000E+00  0.00000E+00  9.000E+00
      21    -1     0     0   501   502  0.000000000E+00  0.000000000E+00 -3.333933194E+02  3.333933194E+02  0.000000000E+00  0.00000E+00  9.000E+00
      25     1     1     2     0     0  6.719604533E+01 -1.356734720E+02 -2.580313188E+02  3.242341145E+02  1.250000000E+02  0.00000E+00  9.000E+00
      25     1     1     2     0     0  3.932322933E+01  8.065113078E+01  1.655950242E+02  2.260478562E+02  1.250000000E+02  0.00000E+00  9.000E+00
       5     1     1     2   501     0 -1.065192747E+02  5.502234120E+01  2.865695791E+02  3.106379525E+02  3.814697266E-06  0.00000E+00  9.000E+00
#rwgt            2          21   1.9608419818084325E-005           6      180391           0
</event>
<event>
      5   9999  3.19816E-02  1.21165E+02 -1.00000E+00  1.20190E-01
       1    -1     0     0   502     0  0.000000000E+00  0.000000000E+00  3.466278422E+03  3.466278422E+03  0.000000000E+00  0.00000E+00  9.000E+00
      21    -1     0     0   501   502  0.000000000E+00  0.000000000E+00 -5.911701374E+02  5.911701374E+02  0.000000000E+00  0.00000E+00  9.000E+00
      25     1     1     2     0     0 -9.690101455E+02 -3.516242920E+02  2.367345112E+02  1.065029828E+03  1.250000000E+02  0.00000E+00  9.000E+00
      25     1     1     2     0     0  9.933753580E+02  4.703142002E+02  1.589235321E+03  1.936306782E+03  1.250000000E+02  0.00000E+00  9.000E+00
       1     1     1     2   501     0 -2.436521252E+01 -1.186899082E+02  1.049138452E+03  1.056111950E+03  1.525878906E-05  0.00000E+00  9.000E+00
#rwgt            1           1   6.3958497320982508E-002           6      180410           0
</event>
<event>
      5   9999  3.19816E-02  2.08686E+02 -1.00000E+00  1.10980E-01
      -4    -1     0     0     0   501  0.000000000E+00  0.000000000E+00  1.079390572E+02  1.079390572E+02  0.000000000E+00  0.00000E+00  9.000E+00
      21    -1     0     0   501   502  0.000000000E+00  0.000000000E+00 -1.679355848E+03  1.679355848E+03  0.000000000E+00  0.00000E+00  9.000E+00
      25     1     1     2     0     0  1.758901693E+02 -7.673800285E+00 -1.224762584E+03  1.243649720E+03  1.250000000E+02  0.00000E+00  9.000E+00
      25     1     1     2     0     0 -1.831834815E+01 -1.291506992E+02 -2.624248763E+02  3.186020726E+02  1.250000000E+02  0.00000E+00  9.000E+00
      -4     1     1     2     0   502 -1.575718211E+02  1.368244995E+02 -8.422933073E+01  2.250431128E+02  3.303624740E-06  0.00000E+00  9.000E+00
#rwgt            1           1   4.0880606615617307E-002           6      180503           0
</event>
<event>
      5   9999  3.19816E-02  8.09270E+01 -1.00000E+00  1.28108E-01
      21    -1     0     0   502   501  0.000000000E+00  0.000000000E+00  6.491235663E+01  6.491235663E+01  0.000000000E+00  0.00000E+00  9.000E+00
       1    -1     0     0   501     0  0.000000000E+00  0.000000000E+00 -2.648335275E+03  2.648335275E+03  0.000000000E+00  0.00000E+00  9.000E+00
      25     1     1     2     0     0  2.719783748E+02  7.206097670E+00 -1.637690818E+03  1.664836442E+03  1.250000000E+02  0.00000E+00  9.000E+00
      25     1     1     2     0     0 -3.315077233E+02  4.761576877E+01 -6.501013996E+02  7.419039438E+02  1.250000000E+02  0.00000E+00  9.000E+00
       1     1     1     2   502     0  5.952934845E+01 -5.482186644E+01 -2.956307013E+02  3.065072461E+02  3.814697266E-06  0.00000E+00  9.000E+00
#rwgt            1           1   8.7612287868689534E-002           6      180555           0
</event>
<event>
      5   9999  3.19816E-02  1.18833E+02 -1.00000E+00  1.20549E-01
      21    -1     0     0   502   501  0.000000000E+00  0.000000000E+00  1.726223727E+02  1.726223727E+02  0.000000000E+00  0.00000E+00  9.000E+00
      21    -1     0     0   501   511  0.000000000E+00  0.000000000E+00 -7.352334477E+02  7.352334477E+02  0.000000000E+00  0.00000E+00  9.000E+00
      25     1     1     2     0     0 -1.068160179E+02  8.749542852E+01  4.566221844E+01  1.917684799E+02  1.250000000E+02  0.00000E+00  9.000E+00
      25     1     1     2     0     0  2.205294851E+02 -5.299239009E+01 -4.230310287E+02  4.960057443E+02  1.250000000E+02  0.00000E+00  9.000E+00
      21     1     1     2   502   511 -1.137134672E+02 -3.450303843E+01 -1.852422648E+02  2.200815961E+02  2.697398305E-06  0.00000E+00  9.000E+00
#rwgt            1           1   2.7201444923634379E-002           6      180688           0
</event>
<event>
      5   9999  3.19816E-02  8.76259E+01 -1.00000E+00  1.26464E-01
      21    -1     0     0   512   501  0.000000000E+00  0.000000000E+00  5.865734552E+01  5.865734552E+01  0.000000000E+00  0.00000E+00  9.000E+00
      21    -1     0     0   501   502  0.000000000E+00  0.000000000E+00 -1.465559916E+03  1.465559916E+03  0.000000000E+00  0.00000E+00  9.000E+00
      25     1     1     2     0     0 -2.373213812E+01  1.818770404E+02 -8.222786750E+02  8.517098635E+02  1.250000000E+02  0.00000E+00  9.000E+00
      25     1     1     2     0     0 -6.357253758E+01 -1.893735420E+02 -4.889406418E+02  5.427630765E+02  1.250000000E+02  0.00000E+00  9.000E+00
      21     1     1     2   512   502  8.730467570E+01  7.496501669E+00 -9.568325354E+01  1.297443214E+02  1.907348633E-06  0.00000E+00  9.000E+00
#rwgt            1           1   2.8399092647522856E-002           6      180780           0
</event>
<event>
      5   9999  3.19816E-02  9.00598E+01 -1.00000E+00  1.25908E-01
      21    -1     0     0   511   501  0.000000000E+00  0.000000000E+00  1.518749758E+03  1.518749758E+03  0.000000000E+00  0.00000E+00  9.000E+00
      21    -1     0     0   501   502  0.000000000E+00  0.000000000E+00 -2.647986828E+02  2.647986828E+02  0.000000000E+00  0.00000E+00  9.000E+00
      25     1     1     2     0     0 -8.804730383E+01 -1.303327171E+02  2.579230982E+00  2.009243571E+02  1.250000000E+02  0.00000E+00  9.000E+00
      25     1     1     2     0     0  1.526508323E+02  1.930794610E+02 -4.794599704E+01  2.801888176E+02  1.250000000E+02  0.00000E+00  9.000E+00
      21     1     1     2   511   502 -6.460352847E+01 -6.274674390E+01  1.299317842E+03  1.302435266E+03  2.642899792E-05  0.00000E+00  9.000E+00
#rwgt            1           1   2.5612651110093067E-002           6      180836           0
</event>
<event>
      5   9999  3.19816E-02  7.18330E+00 -1.00000E+00  2.13979E-01
      21    -1     0     0   502   501  0.000000000E+00  0.000000000E+00  6.531442287E+02  6.531442287E+02  0.000000000E+00  0.00000E+00  9.000E+00
      21    -1     0     0   512   502  0.000000000E+00  0.000000000E+00 -6.835414286E+02  6.835414286E+02  0.000000000E+00  0.00000E+00  9.000E+00
      25     1     1     2     0     0 -5.518198914E+02  3.191500274E+02  2.828363728E+01  6.502206523E+02  1.250000000E+02  0.00000E+00  9.000E+00
      25     1     1     2     0     0  5.588551662E+02 -3.176992576E+02 -2.857070504E+01  6.555098781E+02  1.250000000E+02  0.00000E+00  9.000E+00
      21     1     1     2   512   501 -7.035274876E+00 -1.450769834E+00 -3.011013212E+01  3.095512691E+01  0.000000000E+00  0.00000E+00  9.000E+00
#rwgt            1           1   3.1695806264516901E-002           6      180870           0
</event>
<event>
      5   9999  3.19816E-02  1.70431E+02 -1.00000E+00  1.14237E-01
      21    -1     0     0   502   501  0.000000000E+00  0.000000000E+00  3.095672586E+02  3.095672586E+02  0.000000000E+00  0.00000E+00  9.000E+00
       2    -1     0     0   501     0  0.000000000E+00  0.000000000E+00 -1.516153763E+03  1.516153763E+03  0.000000000E+00  0.00000E+00  9.000E+00
      25     1     1     2     0     0 -9.664263098E+01  2.274395190E+02  2.220746980E+02  3.549798648E+02  1.250000000E+02  0.00000E+00  9.000E+00
      25     1     1     2     0     0  6.506002269E+01 -5.996010859E+01 -4.049627333E+02  4.329524645E+02  1.250000000E+02  0.00000E+00  9.000E+00
       2     1     1     2   502     0  3.158260829E+01 -1.674794104E+02 -1.023698469E+03  1.037788692E+03  1.525878906E-05  0.00000E+00  9.000E+00
#rwgt            1           1   2.7451518533273569E-002           6      181210           0
</event>
<event>
      5   9999  3.19816E-02  1.02045E+02 -1.00000E+00  1.23434E-01
      21    -1     0     0   502   501  0.000000000E+00  0.000000000E+00  2.452599817E+02  2.452599817E+02  0.000000000E+00  0.00000E+00  9.000E+00
      21    -1     0     0   511   502  0.000000000E+00  0.000000000E+00 -1.366293617E+03  1.366293617E+03  0.000000000E+00  0.00000E+00  9.000E+00
      25     1     1     2     0     0 -3.024188753E+02 -1.598159000E+02 -9.812732482E+02  1.046671145E+03  1.250000000E+02  0.00000E+00  9.000E+00
      25     1     1     2     0     0  2.739043118E+02  2.577956251E+02 -5.706832802E+00  3.964085321E+02  1.250000000E+02  0.00000E+00  9.000E+00
      21     1     1     2   511   501  2.851456348E+01 -9.797972517E+01 -1.340535541E+02  1.684739216E+02  1.907348633E-06  0.00000E+00  9.000E+00
#rwgt            1           1   2.9573169819364701E-002           6      181306           0
</event>
<event>
      5   9999  3.19816E-02  1.21589E+01 -1.00000E+00  1.86429E-01
      21    -1     0     0   502   501  0.000000000E+00  0.000000000E+00  3.908368538E+02  3.908368538E+02  0.000000000E+00  0.00000E+00  9.000E+00
       1    -1     0     0   501     0  0.000000000E+00  0.000000000E+00 -8.952703649E+02  8.952703649E+02  0.000000000E+00  0.00000E+00  9.000E+00
      25     1     1     2     0     0  3.893669939E+01  2.743686594E+02  2.085771437E+02  3.686782509E+02  1.250000000E+02  0.00000E+00  9.000E+00
      25     1     1     2     0     0 -2.761498755E+01 -2.788023439E+02 -1.282065919E+02  3.324985183E+02  1.250000000E+02  0.00000E+00  9.000E+00
       1     1     1     2   502     0 -1.132171184E+01  4.433684511E+00 -5.848040630E+02  5.849304495E+02  1.078959322E-05  0.00000E+00  9.000E+00
#rwgt            1           1   2.7326963888379137E-002           6      181434           0
</event>
<event>
      5   9999  3.19816E-02  2.20848E+01 -1.00000E+00  1.62893E-01
      21    -1     0     0   502   511  0.000000000E+00  0.000000000E+00  7.291754804E+02  7.291754804E+02  0.000000000E+00  0.00000E+00  9.000E+00
      21    -1     0     0   501   502  0.000000000E+00  0.000000000E+00 -1.920757702E+02  1.920757702E+02  0.000000000E+00  0.00000E+00  9.000E+00
      25     1     1     2     0     0  7.257238225E+01  2.130939721E+02  4.378228941E+02  5.079268434E+02  1.250000000E+02  0.00000E+00  9.000E+00
      25     1     1     2     0     0 -5.625673013E+01 -2.279781782E+02 -4.289193188E+01  2.694505284E+02  1.250000000E+02  0.00000E+00  9.000E+00
      21     1     1     2   501   511 -1.631565212E+01  1.488420619E+01  1.421687480E+02  1.438738788E+02  2.697398305E-06  0.00000E+00  9.000E+00
#rwgt            1           1   2.8290102315203292E-002           6      181683           0
</event>
<event>
      5   9999  3.19816E-02  2.00875E+01 -1.00000E+00  1.66213E-01
      21    -1     0     0   502   501  0.000000000E+00  0.000000000E+00  2.776636728E+01  2.776636728E+01  0.000000000E+00  0.00000E+00  9.000E+00
      21    -1     0     0   512   502  0.000000000E+00  0.000000000E+00 -2.525483569E+03  2.525483569E+03  0.000000000E+00  0.00000E+00  9.000E+00
      25     1     1     2     0     0  6.213001731E+01 -2.609248163E+01 -5.600997347E+02  5.778214858E+02  1.250000000E+02  0.00000E+00  9.000E+00
      25     1     1     2     0     0 -4.487737026E+01  3.638091858E+01 -2.326954014E+02  2.703880534E+02  1.250000000E+02  0.00000E+00  9.000E+00
      21     1     1     2   512   501 -1.725264704E+01 -1.028843696E+01 -1.704922066E+03  1.705040398E+03  2.157918644E-05  0.00000E+00  9.000E+00
#rwgt            1           1   7.4640680646282084E-002           6      181817           0
</event>
<event>
      5   9999  3.19816E-02  6.51188E+01 -1.00000E+00  1.32830E-01
      21    -1     0     0   502   511  0.000000000E+00  0.000000000E+00  1.498576331E+03  1.498576331E+03  0.000000000E+00  0.00000E+00  9.000E+00
      21    -1     0     0   501   502  0.000000000E+00  0.000000000E+00 -2.950611181E+02  2.950611181E+02  0.000000000E+00  0.00000E+00  9.000E+00
      25     1     1     2     0     0  5.228019939E+02  1.874464211E+02  6.171902979E+02  8.396469195E+02  1.250000000E+02  0.00000E+00  9.000E+00
      25     1     1     2     0     0 -5.825602672E+02 -1.615735006E+02  3.516924605E+02  7.104893017E+02  1.250000000E+02  0.00000E+00  9.000E+00
      21     1     1     2   501   511  5.975827335E+01 -2.587292057E+01  2.346324541E+02  2.435012274E+02  3.814697266E-06  0.00000E+00  9.000E+00
#rwgt            1           1   2.9682932732303671E-002           6      181929           0
</event>
<event>
      5   9999  3.19816E-02  8.84673E+01 -1.00000E+00  1.26270E-01
      21    -1     0     0   512   501  0.000000000E+00  0.000000000E+00  3.455895222E+03  3.455895222E+03  0.000000000E+00  0.00000E+00  9.000E+00
      21    -1     0     0   501   502  0.000000000E+00  0.000000000E+00 -7.852560010E+02  7.852560010E+02  0.000000000E+00  0.00000E+00  9.000E+00
      25     1     1     2     0     0 -1.048453736E+03 -1.155717180E+03  1.020486411E+03  1.868677327E+03  1.250000000E+02  0.00000E+00  9.000E+00
      25     1     1     2     0     0  1.127435439E+03  1.115863080E+03  1.446380502E+03  2.150326170E+03  1.250000000E+02  0.00000E+00  9.000E+00
      21     1     1     2   512   502 -7.898170243E+01  3.985410004E+01  2.037723080E+02  2.221477259E+02  0.000000000E+00  0.00000E+00  9.000E+00
#rwgt            1           1   2.5026712464222962E-002           6      182023           0
</event>
<event>
      5   9999  3.19816E-02  1.36695E+02 -1.00000E+00  1.18015E-01
      21    -1     0     0   502   501  0.000000000E+00  0.000000000E+00  7.660278817E+02  7.660278817E+02  0.000000000E+00  0.00000E+00  9.000E+00
      21    -1     0     0   511   502  0.000000000E+00  0.000000000E+00 -9.745071646E+01  9.745071646E+01  0.000000000E+00  0.00000E+00  9.000E+00
      25     1     1     2     0     0  1.385083476E+00  4.563324888E+01  1.095389872E+02  1.723603829E+02  1.250000000E+02  0.00000E+00  9.000E+00
      25     1     1     2     0     0  1.273636677E+02 -9.156133469E+01  5.063352422E+02  5.446148725E+02  1.250000000E+02  0.00000E+00  9.000E+00
      21     1     1     2   511   501 -1.287487512E+02  4.592808580E+01  5.270293579E+01  1.465033428E+02  2.697398305E-06  0.00000E+00  9.000E+00
#rwgt            1           1   3.1455992447431039E-002           6      182159           0
</event>
<event>
      5   9999  3.19816E-02  4.47363E+02 -1.00000E+00  1.00244E-01
       2    -1     0     0   502     0  0.000000000E+00  0.000000000E+00  2.054589861E+03  2.054589861E+03  0.000000000E+00  0.00000E+00  9.000E+00
      21    -1     0     0   501   502  0.000000000E+00  0.000000000E+00 -1.101374172E+03  1.101374172E+03  0.000000000E+00  0.00000E+00  9.000E+00
      25     1     1     2     0     0 -4.847317274E+01  6.074855811E+02 -7.460665627E+02  9.714055258E+02  1.250000000E+02  0.00000E+00  9.000E+00
      25     1     1     2     0     0  4.589165874E+02 -4.295253923E+02  2.853304154E+02  7.015233016E+02  1.250000000E+02  0.00000E+00  9.000E+00
       2     1     1     2   501     0 -4.104434146E+02 -1.779601888E+02  1.413951836E+03  1.483035205E+03  1.525878906E-05  0.00000E+00  9.000E+00
#rwgt            2          18   2.3279685981156305E-003           6      182252           0
</event>
<event>
      5   9999  3.19816E-02  1.76922E+02 -1.00000E+00  1.13621E-01
      21    -1     0     0   502   501  0.000000000E+00  0.000000000E+00  6.685806502E+02  6.685806502E+02  0.000000000E+00  0.00000E+00  9.000E+00
      21    -1     0     0   501   511  0.000000000E+00  0.000000000E+00 -1.214013566E+03  1.214013566E+03  0.000000000E+00  0.00000E+00  9.000E+00
      25     1     1     2     0     0  7.146509998E+00  1.385952511E+02  4.498576758E+02  4.870899760E+02  1.250000000E+02  0.00000E+00  9.000E+00
      25     1     1     2     0     0 -5.016747434E+01 -3.102068325E+02  4.420219061E+01  3.410628800E+02  1.250000000E+02  0.00000E+00  9.000E+00
      21     1     1     2   502   511  4.302096435E+01  1.716115814E+02 -1.039492782E+03  1.054441360E+03  0.000000000E+00  0.00000E+00  9.000E+00
#rwgt            1           1   2.3625470921941505E-002           6      182301           0
</event>
<event>
      5   9999  3.19816E-02  7.74583E+01 -1.00000E+00  1.29032E-01
      21    -1     0     0   502   501  0.000000000E+00  0.000000000E+00  6.029007830E+02  6.029007830E+02  0.000000000E+00  0.00000E+00  9.000E+00
      21    -1     0     0   501   512  0.000000000E+00  0.000000000E+00 -1.399449628E+03  1.399449628E+03  0.000000000E+00  0.00000E+00  9.000E+00
      25     1     1     2     0     0  4.815361671E+02  6.863427870E+01 -2.964999747E+02  5.832023486E+02  1.250000000E+02  0.00000E+00  9.000E+00
      25     1     1     2     0     0 -5.321705539E+02 -1.001734128E+01  2.943750174E+02  6.209569199E+02  1.250000000E+02  0.00000E+00  9.000E+00
      21     1     1     2   502   512  5.063438678E+01 -5.861693742E+01 -7.944238874E+02  7.981911421E+02  1.078959322E-05  0.00000E+00  9.000E+00
#rwgt            1           1   2.5459551345200265E-002           6      182374           0
</event>
<event>
      5   9999  3.19816E-02  5.45646E+01 -1.00000E+00  1.36945E-01
      21    -1     0     0   502   501  0.000000000E+00  0.000000000E+00  4.621361680E+02  4.621361680E+02  0.000000000E+00  0.00000E+00  9.000E+00
      21    -1     0     0   511   502  0.000000000E+00  0.000000000E+00 -2.743114787E+02  2.743114787E+02  0.000000000E+00  0.00000E+00  9.000E+00
      25     1     1     2     0     0  6.825450045E+01 -2.734760844E+02  2.202388034E+02  3.789168458E+02  1.250000000E+02  0.00000E+00  9.000E+00
      25     1     1     2     0     0 -1.147954162E+02  2.449938038E+02 -9.044758469E+00  2.981723648E+02  1.250000000E+02  0.00000E+00  9.000E+00
      21     1     1     2   511   501  4.654091575E+01  2.848228060E+01 -2.336935562E+01  5.935843604E+01  5.840038640E-07  0.00000E+00  9.000E+00
#rwgt            1           1   2.6990546310085968E-002           6      182485           0
</event>
<event>
      5   9999  3.19816E-02  1.53420E+02 -1.00000E+00  1.16007E-01
      21    -1     0     0   512   501  0.000000000E+00  0.000000000E+00  1.613896217E+03  1.613896217E+03  0.000000000E+00  0.00000E+00  9.000E+00
      21    -1     0     0   501   502  0.000000000E+00  0.000000000E+00 -1.283926354E+02  1.283926354E+02  0.000000000E+00  0.00000E+00  9.000E+00
      25     1     1     2     0     0  3.977544254E+02 -2.106340721E+01  4.523391753E+02  6.155387718E+02  1.250000000E+02  0.00000E+00  9.000E+00
      25     1     1     2     0     0 -2.556246466E+02 -3.670112273E+01  7.754726238E+02  8.268456462E+02  1.250000000E+02  0.00000E+00  9.000E+00
      21     1     1     2   512   502 -1.421297788E+02  5.776452994E+01  2.576917822E+02  2.999044340E+02  5.394796609E-06  0.00000E+00  9.000E+00
#rwgt            1           1   2.4649467833057031E-002           6      182621           0
</event>
<event>
      5   9999  3.19816E-02  4.43815E+01 -1.00000E+00  1.42095E-01
      21    -1     0     0   502   511  0.000000000E+00  0.000000000E+00  2.059204770E+03  2.059204770E+03  0.000000000E+00  0.00000E+00  9.000E+00
      21    -1     0     0   501   502  0.000000000E+00  0.000000000E+00 -2.888203817E+02  2.888203817E+02  0.000000000E+00  0.00000E+00  9.000E+00
      25     1     1     2     0     0 -2.341742525E+02 -1.655379104E+02 -1.758074419E+02  3.588504381E+02  1.250000000E+02  0.00000E+00  9.000E+00
      25     1     1     2     0     0  2.171820696E+02  2.065377322E+02  1.889376307E+03  1.917079475E+03  1.250000000E+02  0.00000E+00  9.000E+00
      21     1     1     2   501   511  1.699218292E+01 -4.099982177E+01  5.681552314E+01  7.209523795E+01  6.743495762E-07  0.00000E+00  9.000E+00
#rwgt            1           1   2.3864246914851391E-002           6      182688           0
</event>
<event>
      5   9999  3.19816E-02  8.79943E+01 -1.00000E+00  1.26379E-01
      21    -1     0     0   502   512  0.000000000E+00  0.000000000E+00  4.779046619E+02  4.779046619E+02  0.000000000E+00  0.00000E+00  9.000E+00
      21    -1     0     0   501   502  0.000000000E+00  0.000000000E+00 -7.067968970E+02  7.067968970E+02  0.000000000E+00  0.00000E+00  9.000E+00
      25     1     1     2     0     0 -5.989439303E+00  3.772410981E+02  1.657525449E+02  4.306339811E+02  1.250000000E+02  0.00000E+00  9.000E+00
      25     1     1     2     0     0  6.936393582E+01 -3.161946692E+02 -5.051201069E+02  6.128309284E+02  1.250000000E+02  0.00000E+00  9.000E+00
      21     1     1     2   501   512 -6.337449652E+01 -6.104642889E+01  1.104753269E+02  1.412366494E+02  1.907348633E-06  0.00000E+00  9.000E+00
#rwgt            1           1   2.9418971522430518E-002           6      182863           0
</event>
<event>
      5   9999  3.19816E-02  6.84706E+01 -1.00000E+00  1.31708E-01
      21    -1     0     0   502   501  0.000000000E+00  0.000000000E+00  6.095634131E+01  6.095634131E+01  0.000000000E+00  0.00000E+00  9.000E+00
      21    -1     0     0   511   502  0.000000000E+00  0.000000000E+00 -1.206609079E+03  1.206609079E+03  0.000000000E+00  0.00000E+00  9.000E+00
      25     1     1     2     0     0 -6.130307501E+01  2.760922057E+01 -6.805398837E+01  1.574061034E+02  1.250000000E+02  0.00000E+00  9.000E+00
      25     1     1     2     0     0  9.814504862E+01 -8.532305510E+01 -9.315957339E+02  9.488983537E+02  1.250000000E+02  0.00000E+00  9.000E+00
      21     1     1     2   511   501 -3.684197361E+01  5.771383453E+01 -1.460030154E+02  1.612609631E+02  1.907348633E-06  0.00000E+00  9.000E+00
#rwgt            1           1   3.0042997521635622E-002           6      182950           0
</event>
<event>
      5   9999  3.19816E-02  5.33882E+01 -1.00000E+00  1.37470E-01
      21    -1     0     0   502   501  0.000000000E+00  0.000000000E+00  2.073149045E+02  2.073149045E+02  0.000000000E+00  0.00000E+00  9.000E+00
      21    -1     0     0   501   512  0.000000000E+00  0.000000000E+00 -7.802713274E+02  7.802713274E+02  0.000000000E+00  0.00000E+00  9.000E+00
      25     1     1     2     0     0  7.434787008E+01 -1.228933811E+02 -2.982161981E+02  3.538195723E+02  1.250000000E+02  0.00000E+00  9.000E+00
      25     1     1     2     0     0 -7.108641116E+01  1.761818594E+02  1.048620947E+02  2.504284016E+02  1.250000000E+02  0.00000E+00  9.000E+00
      21     1     1     2   502   512 -3.261458916E+00 -5.328847828E+01 -3.796023195E+02  3.833382579E+02  0.000000000E+00  0.00000E+00  9.000E+00
#rwgt            1           1   2.6807466331449162E-002           6      183018           0
</event>
<event>
      5   9999  3.19816E-02  3.66137E+01 -1.00000E+00  1.47264E-01
      21    -1     0     0   502   501  0.000000000E+00  0.000000000E+00  2.513776173E+02  2.513776173E+02  0.000000000E+00  0.00000E+00  9.000E+00
      21    -1     0     0   501   511  0.000000000E+00  0.000000000E+00 -6.096625361E+02  6.096625361E+02  0.000000000E+00  0.00000E+00  9.000E+00
      25     1     1     2     0     0 -1.468226049E+02  1.918393757E+02  4.966087431E+01  2.764967013E+02  1.250000000E+02  0.00000E+00  9.000E+00
      25     1     1     2     0     0  1.830960140E+02 -1.968196853E+02 -1.658526680E+02  3.396972863E+02  1.250000000E+02  0.00000E+00  9.000E+00
      21     1     1     2   502   511 -3.627340911E+01  4.980309537E+00 -2.420931250E+02  2.448461657E+02  0.000000000E+00  0.00000E+00  9.000E+00
#rwgt            1           1   3.1429710698758870E-002           6      183148           0
</event>
<event>
      5   9999  3.19816E-02  3.10826E+02 -1.00000E+00  1.05094E-01
      21    -1     0     0   502   512  0.000000000E+00  0.000000000E+00  3.178377914E+02  3.178377914E+02  0.000000000E+00  0.00000E+00  9.000E+00
      21    -1     0     0   501   502  0.000000000E+00  0.000000000E+00 -1.138533498E+03  1.138533498E+03  0.000000000E+00  0.00000E+00  9.000E+00
      25     1     1     2     0     0 -1.779827854E+02 -4.349958802E+02 -2.845023187E+02  5.634410857E+02  1.250000000E+02  0.00000E+00  9.000E+00
      25     1     1     2     0     0 -1.189104255E+02  3.429771686E+02 -3.972767011E+02  5.524733520E+02  1.250000000E+02  0.00000E+00  9.000E+00
      21     1     1     2   501   512  2.968932110E+02  9.201871160E+01 -1.389166867E+02  3.404568517E+02  6.607249480E-06  0.00000E+00  9.000E+00
#rwgt            2          11   3.4769404209692299E-003           6      183353           0
</event>
<event>
      5   9999  3.19816E-02  3.29925E+02 -1.00000E+00  1.04267E-01
      21    -1     0     0   502   501  0.000000000E+00  0.000000000E+00  1.234852665E+03  1.234852665E+03  0.000000000E+00  0.00000E+00  9.000E+00
      21    -1     0     0   511   502  0.000000000E+00  0.000000000E+00 -8.376790898E+02  8.376790898E+02  0.000000000E+00  0.00000E+00  9.000E+00
      25     1     1     2     0     0  6.301914040E+02  1.478091124E+02  6.158419111E+02  9.021502086E+02  1.250000000E+02  0.00000E+00  9.000E+00
      25     1     1     2     0     0 -7.653170292E+02  1.531757601E+02 -3.151404462E+01  7.910695947E+02  1.250000000E+02  0.00000E+00  9.000E+00
      21     1     1     2   511   501  1.351256252E+02 -3.009848725E+02 -1.871542910E+02  3.793119517E+02  6.031565972E-06  0.00000E+00  9.000E+00
#rwgt            1           1   2.9209151699137476E-002           6      183463           0
</event>
<event>
      5   9999  3.19816E-02  4.56254E+01 -1.00000E+00  1.41383E-01
      21    -1     0     0   512   501  0.000000000E+00  0.000000000E+00  1.856405143E+03  1.856405143E+03  0.000000000E+00  0.00000E+00  9.000E+00
      21    -1     0     0   501   502  0.000000000E+00  0.000000000E+00 -6.640147522E+02  6.640147522E+02  0.000000000E+00  0.00000E+00  9.000E+00
      25     1     1     2     0     0 -9.753558965E+02  2.616133397E+02  8.888873258E+02  1.351113001E+03  1.250000000E+02  0.00000E+00  9.000E+00
      25     1     1     2     0     0  1.015875739E+03 -2.406414642E+02  2.200928352E+02  1.074233535E+03  1.250000000E+02  0.00000E+00  9.000E+00
      21     1     1     2   512   502 -4.051984224E+01 -2.097187544E+01  8.341022935E+01  9.507335870E+01  0.000000000E+00  0.00000E+00  9.000E+00
#rwgt            1           1   3.0255979165493198E-002           6      183524           0
</event>
<event>
      5   9999  3.19816E-02  5.64942E+01 -1.00000E+00  1.36116E-01
      21    -1     0     0   502   501  0.000000000E+00  0.000000000E+00  6.494955687E+02  6.494955687E+02  0.000000000E+00  0.00000E+00  9.000E+00
      21    -1     0     0   501   511  0.000000000E+00  0.000000000E+00 -5.824125452E+02  5.824125452E+02  0.000000000E+00  0.00000E+00  9.000E+00
      25     1     1     2     0     0 -6.048928975E+01  7.900163395E+01 -4.947929732E+02  5.199473999E+02  1.250000000E+02  0.00000E+00  9.000E+00
      25     1     1     2     0     0  9.005411171E+01 -3.086108366E+01  6.147935661E+02  6.345536057E+02  1.250000000E+02  0.00000E+00  9.000E+00
      21     1     1     2   502   511 -2.956482196E+01 -4.814055029E+01 -5.291756944E+01  7.740710843E+01  0.000000000E+00  0.00000E+00  9.000E+00
#rwgt            1           1   3.0849610932111114E-002           6      183713           0
</event>
<event>
      5   9999  3.19816E-02  6.78517E+01 -1.00000E+00  1.31910E-01
      21    -1     0     0   512   501  0.000000000E+00  0.000000000E+00  4.960291884E+02  4.960291884E+02  0.000000000E+00  0.00000E+00  9.000E+00
      21    -1     0     0   501   502  0.000000000E+00  0.000000000E+00 -3.449174552E+02  3.449174552E+02  0.000000000E+00  0.00000E+00  9.000E+00
      25     1     1     2     0     0 -3.166888848E+02 -8.592585651E+01  1.358659543E+02  3.765098407E+02  1.250000000E+02  0.00000E+00  9.000E+00
      25     1     1     2     0     0  2.626207218E+02  4.493217732E+01 -1.162800825E+02  3.164405184E+02  1.250000000E+02  0.00000E+00  9.000E+00
      21     1     1     2   512   502  5.406816298E+01  4.099367919E+01  1.315258614E+02  1.479962844E+02  0.000000000E+00  0.00000E+00  9.000E+00
#rwgt            1           1   2.8056944141435183E-002           6      183820           0
</event>
<event>
      5   9999  3.19816E-02  1.79816E+02 -1.00000E+00  1.13356E-01
      21    -1     0     0   502   501  0.000000000E+00  0.000000000E+00  6.812562937E+02  6.812562937E+02  0.000000000E+00  0.00000E+00  9.000E+00
      21    -1     0     0   511   502  0.000000000E+00  0.000000000E+00 -2.265672548E+02  2.265672548E+02  0.000000000E+00  0.00000E+00  9.000E+00
      25     1     1     2     0     0  1.115701810E+01  1.265994920E+02  5.291404451E+02  5.583605655E+02  1.250000000E+02  0.00000E+00  9.000E+00
      25     1     1     2     0     0 -6.551202693E+01  4.480454167E+01  1.463251754E+01  1.487897281E+02  1.250000000E+02  0.00000E+00  9.000E+00
      21     1     1     2   511   501  5.435500884E+01 -1.714040337E+02 -8.908392372E+01  2.006732548E+02  9.536743164E-07  0.00000E+00  9.000E+00
#rwgt            1           1   2.7201418642757453E-002           6      183906           0
</event>
<event>
      5   9999  3.19816E-02  1.67685E+02 -1.00000E+00  1.14507E-01
      21    -1     0     0   512   501  0.000000000E+00  0.000000000E+00  4.268975765E+02  4.268975765E+02  0.000000000E+00  0.00000E+00  9.000E+00
      21    -1     0     0   501   502  0.000000000E+00  0.000000000E+00 -2.483373937E+02  2.483373937E+02  0.000000000E+00  0.00000E+00  9.000E+00
      25     1     1     2     0     0  1.515928899E+02  2.031540279E+02  1.416540258E+02  3.161373536E+02  1.250000000E+02  0.00000E+00  9.000E+00
      25     1     1     2     0     0 -3.781305285E+01 -7.997791926E+01 -6.109453596E+01  1.648752160E+02  1.250000000E+02  0.00000E+00  9.000E+00
      21     1     1     2   512   502 -1.137798370E+02 -1.231761087E+02  9.800069296E+01  1.942224006E+02  1.348699152E-06  0.00000E+00  9.000E+00
#rwgt            1           1   2.9915837243817540E-002           6      183955           0
</event>
<event>
      5   9999  3.19816E-02  4.89126E+01 -1.00000E+00  1.39623E-01
      21    -1     0     0   511   501  0.000000000E+00  0.000000000E+00  1.015792701E+03  1.015792701E+03  0.000000000E+00  0.00000E+00  9.000E+00
      21    -1     0     0   501   502  0.000000000E+00  0.000000000E+00 -5.561687273E+01  5.561687273E+01  0.000000000E+00  0.00000E+00  9.000E+00
      25     1     1     2     0     0  1.342735978E+02 -5.264266288E+01  1.989880807E+02  2.757207016E+02  1.250000000E+02  0.00000E+00  9.000E+00
      25     1     1     2     0     0 -1.126080583E+02  8.790062911E+00  4.465751678E+02  4.772967845E+02  1.250000000E+02  0.00000E+00  9.000E+00
      21     1     1     2   511   502 -2.166553955E+01  4.385259997E+01  3.146125794E+02  3.183920872E+02  6.607249480E-06  0.00000E+00  9.000E+00
#rwgt            1           1   3.1589552176420156E-002           6      184032           0
</event>
<event>
      5   9999  3.19816E-02  4.22151E+01 -1.00000E+00  1.43403E-01
       2    -1     0     0   502     0  0.000000000E+00  0.000000000E+00  1.939643791E+03  1.939643791E+03  0.000000000E+00  0.00000E+00  9.000E+00
      21    -1     0     0   501   502  0.000000000E+00  0.000000000E+00 -1.450397588E+02  1.450397588E+02  0.000000000E+00  0.00000E+00  9.000E+00
      25     1     1     2     0     0  1.872382780E+02 -3.438063576E+02  6.398002577E+02  7.604145935E+02  1.250000000E+02  0.00000E+00  9.000E+00
      25     1     1     2     0     0 -1.913389166E+02  3.858218396E+02  5.141866475E+02  6.822623992E+02  1.250000000E+02  0.00000E+00  9.000E+00
       2     1     1     2   501     0  4.100638622E+00 -4.201548204E+01  6.406171266E+02  6.420065567E+02  1.321449896E-05  0.00000E+00  9.000E+00
#rwgt            1           1   2.7759178222216591E-002           6      184126           0
</event>
<event>
      5   9999  3.19816E-02  2.90364E+02 -1.00000E+00  1.06055E-01
      21    -1     0     0   502   511  0.000000000E+00  0.000000000E+00  2.021165265E+02  2.021165265E+02  0.000000000E+00  0.00000E+00  9.000E+00
      21    -1     0     0   501   502  0.000000000E+00  0.000000000E+00 -7.422758561E+02  7.422758561E+02  0.000000000E+00  0.00000E+00  9.000E+00
      25     1     1     2     0     0 -1.866465923E+01  7.185456142E+01 -1.832448442E+02  2.339126342E+02  1.250000000E+02  0.00000E+00  9.000E+00
      25     1     1     2     0     0 -2.632126543E+02 -1.415410113E+02 -1.907687978E+02  3.759421411E+02  1.250000000E+02  0.00000E+00  9.000E+00
      21     1     1     2   501   511  2.818773135E+02  6.968644990E+01 -1.661456877E+02  3.345376073E+02  5.046370146E-06  0.00000E+00  9.000E+00
#rwgt            1           1   2.8784139948540975E-002           6      184271           0
</event>
<event>
      5   9999  3.19816E-02  2.07569E+01 -1.00000E+00  1.65049E-01
      21    -1     0     0   502   501  0.000000000E+00  0.000000000E+00  2.031641571E+02  2.031641571E+02  0.000000000E+00  0.00000E+00  9.000E+00
       1    -1     0     0   501     0  0.000000000E+00  0.000000000E+00 -2.792232724E+03  2.792232724E+03  0.000000000E+00  0.00000E+00  9.000E+00
      25     1     1     2     0     0  1.620325328E+02  2.384240144E+02 -1.663976228E+02  3.555470732E+02  1.250000000E+02  0.00000E+00  9.000E+00
      25     1     1     2     0     0 -1.737050661E+02 -2.555880117E+02 -1.474039640E+02  3.644881484E+02  1.250000000E+02  0.00000E+00  9.000E+00
       1     1     1     2   502     0  1.167253326E+01  1.716399731E+01 -2.275266981E+03  2.275361660E+03  3.051757812E-05  0.00000E+00  9.000E+00
#rwgt            1           1   2.8696883609500672E-002           6      184299           0
</event>
<event>
      5   9999  3.19816E-02  7.70265E+01 -1.00000E+00  1.29151E-01
      21    -1     0     0   502   501  0.000000000E+00  0.000000000E+00  3.802664542E+02  3.802664542E+02  0.000000000E+00  0.00000E+00  9.000E+00
      21    -1     0     0   511   502  0.000000000E+00  0.000000000E+00 -5.486037664E+02  5.486037664E+02  0.000000000E+00  0.00000E+00  9.000E+00
      25     1     1     2     0     0  5.555027321E+01 -2.144201436E+02 -2.632574677E+02  3.660482552E+02  1.250000000E+02  0.00000E+00  9.000E+00
      25     1     1     2     0     0 -3.582611393E+01  2.888784231E+02  2.407535366E+02  3.978963674E+02  1.250000000E+02  0.00000E+00  9.000E+00
      21     1     1     2   511   501 -1.972415928E+01 -7.445827955E+01 -1.458333811E+02  1.649255981E+02  2.697398305E-06  0.00000E+00  9.000E+00
#rwgt            1           1   2.9019621661135954E-002           6      184491           0
</event>
<event>
      5   9999  3.19816E-02  2.72978E+01 -1.00000E+00  1.55943E-01
      21    -1     0     0   502   501  0.000000000E+00  0.000000000E+00  1.008175600E+03  1.008175600E+03  0.000000000E+00  0.00000E+00  9.000E+00
      21    -1     0     0   501   512  0.000000000E+00  0.000000000E+00 -1.498174605E+03  1.498174605E+03  0.000000000E+00  0.00000E+00  9.000E+00
      25     1     1     2     0     0  3.170461743E+02 -5.403418491E+02  5.661185332E+02  8.535823242E+02  1.250000000E+02  0.00000E+00  9.000E+00
      25     1     1     2     0     0 -3.432680284E+02  5.479303323E+02 -6.552568179E+01  6.617999723E+02  1.250000000E+02  0.00000E+00  9.000E+00
      21     1     1     2   502   512  2.622185414E+01 -7.588483113E+00 -9.905918560E+02  9.909679086E+02  1.868812365E-05  0.00000E+00  9.000E+00
#rwgt            1           1   3.0798891469183059E-002           6      184621           0
</event>
<event>
      5   9999  3.19816E-02  1.61753E+02 -1.00000E+00  1.15110E-01
      21    -1     0     0   502   501  0.000000000E+00  0.000000000E+00  6.361542231E+02  6.361542231E+02  0.000000000E+00  0.00000E+00  9.000E+00
      21    -1     0     0   501   511  0.000000000E+00  0.000000000E+00 -1.810410419E+03  1.810410419E+03  0.000000000E+00  0.00000E+00  9.000E+00
      25     1     1     2     0     0 -2.588307141E+02 -8.168532196E+02 -6.900795044E+02  1.107283723E+03  1.250000000E+02  0.00000E+00  9.000E+00
      25     1     1     2     0     0  1.008899302E+02  7.819433603E+02  3.143639966E+01  7.988913844E+02  1.250000000E+02  0.00000E+00  9.000E+00
      21     1     1     2   502   511  1.579407839E+02  3.490985924E+01 -5.156130915E+02  5.403895351E+02  7.629394531E-06  0.00000E+00  9.000E+00
#rwgt            1           1   3.2201726883259535E-002           6      184856           0
</event>
<event>
      5   9999  3.19816E-02  2.83870E+01 -1.00000E+00  1.54726E-01
      21    -1     0     0   502   512  0.000000000E+00  0.000000000E+00  1.166190740E+03  1.166190740E+03  0.000000000E+00  0.00000E+00  9.000E+00
      21    -1     0     0   501   502  0.000000000E+00  0.000000000E+00 -7.067136225E+01  7.067136225E+01  0.000000000E+00  0.00000E+00  9.000E+00
      25     1     1     2     0     0  1.630087683E+02  1.016307504E+02  3.217070286E+02  3.949950382E+02  1.250000000E+02  0.00000E+00  9.000E+00
      25     1     1     2     0     0 -1.842177941E+02 -8.276285172E+01  3.873854566E+02  4.543989186E+02  1.250000000E+02  0.00000E+00  9.000E+00
      21     1     1     2   501   512  2.120902586E+01 -1.886789867E+01  3.864268921E+02  3.874681449E+02  5.394796609E-06  0.00000E+00  9.000E+00
#rwgt            1           1   1.0222427901094698E-002           6      184945           0
</event>
<event>
      5   9999  3.19816E-02  7.96684E+02 -1.00000E+00  9.34252E-02
      21    -1     0     0   511   501  0.000000000E+00  0.000000000E+00  5.641874724E+02  5.641874724E+02  0.000000000E+00  0.00000E+00  9.000E+00
      21    -1     0     0   501   502  0.000000000E+00  0.000000000E+00 -2.317999030E+03  2.317999030E+03  0.000000000E+00  0.00000E+00  9.000E+00
      25     1     1     2     0     0 -5.037292553E+02 -6.390104219E+02 -7.810997080E+02  1.134821235E+03  1.250000000E+02  0.00000E+00  9.000E+00
      25     1     1     2     0     0 -1.923736275E+02  2.515229819E+02 -8.821373527E+02  9.455489051E+02  1.250000000E+02  0.00000E+00  9.000E+00
      21     1     1     2   511   502  6.961028827E+02  3.874874401E+02 -9.057449725E+01  8.018163625E+02  1.044697871E-05  0.00000E+00  9.000E+00
#rwgt            2          11   1.6100980664673207E-003           6      185097           0
</event>
<event>
      5   9999  3.19816E-02  1.38436E+02 -1.00000E+00  1.17791E-01
      21    -1     0     0   502   512  0.000000000E+00  0.000000000E+00  1.999730737E+02  1.999730737E+02  0.000000000E+00  0.00000E+00  9.000E+00
      21    -1     0     0   501   502  0.000000000E+00  0.000000000E+00 -1.131288359E+03  1.131288359E+03  0.000000000E+00  0.00000E+00  9.000E+00
      25     1     1     2     0     0  7.696357241E+01  4.310116332E+01 -9.438503819E+02  9.561692555E+02  1.250000000E+02  0.00000E+00  9.000E+00
      25     1     1     2     0     0  5.602866418E+01 -4.661589774E+00 -1.209394950E+02  1.827903255E+02  1.250000000E+02  0.00000E+00  9.000E+00
      21     1     1     2   501   512 -1.329922366E+02 -3.843957355E+01  1.334745913E+02  1.923018521E+02  3.303624740E-06  0.00000E+00  9.000E+00
#rwgt            2          11   1.0077886145558752E-002           6      185147           0
</event>
<event>
      5   9999  3.19816E-02  1.26208E+01 -1.00000E+00  1.84754E-01
      21    -1     0     0   502   501  0.000000000E+00  0.000000000E+00  1.109438233E+03  1.109438233E+03  0.000000000E+00  0.00000E+00  9.000E+00
      21    -1     0     0   501   511  0.000000000E+00  0.000000000E+00 -3.935744242E+02  3.935744242E+02  0.000000000E+00  0.00000E+00  9.000E+00
      25     1     1     2     0     0 -1.892205752E+02  1.545351271E+02  1.039168441E+03  1.074793738E+03  1.250000000E+02  0.00000E+00  9.000E+00
      25     1     1     2     0     0  1.766071781E+02 -1.541028339E+02 -2.935423987E+02  3.958912964E+02  1.250000000E+02  0.00000E+00  9.000E+00
      21     1     1     2   502   511  1.261339709E+01 -4.322931462E-01 -2.976223316E+01  3.232762265E+01  3.371747881E-07  0.00000E+00  9.000E+00
#rwgt            1           1   2.9889254587589821E-002           6      185167           0
</event>
<event>
      5   9999  3.19816E-02  2.42723E+02 -1.00000E+00  1.08670E-01
      21    -1     0     0   512   501  0.000000000E+00  0.000000000E+00  9.535950408E+02  9.535950408E+02  0.000000000E+00  0.00000E+00  9.000E+00
      21    -1     0     0   501   502  0.000000000E+00  0.000000000E+00 -1.279498992E+03  1.279498992E+03  0.000000000E+00  0.00000E+00  9.000E+00
      25     1     1     2     0     0 -7.366068078E+00 -5.251710074E+02 -6.987113525E+02  8.829956965E+02  1.250000000E+02  0.00000E+00  9.000E+00
      25     1     1     2     0     0  1.953561635E+02  3.716327128E+02 -3.670072197E+02  5.714842107E+02  1.250000000E+02  0.00000E+00  9.000E+00
      21     1     1     2   512   502 -1.879900954E+02  1.535382946E+02  7.398146207E+02  7.786141258E+02  0.000000000E+00  0.00000E+00  9.000E+00
#rwgt            1           1   2.9646894758936181E-002           6      185432           0
</event>
<event>
      5   9999  3.19816E-02  1.54501E+02 -1.00000E+00  1.15887E-01
      21    -1     0     0   511   501  0.000000000E+00  0.000000000E+00  1.429811205E+03  1.429811205E+03  0.000000000E+00  0.00000E+00  9.000E+00
      21    -1     0     0   501   502  0.000000000E+00  0.000000000E+00 -1.944105700E+02  1.944105700E+02  0.000000000E+00  0.00000E+00  9.000E+00
      25     1     1     2     0     0 -3.258891247E+02 -1.585162512E+02  6.603866992E+02  7.635880538E+02  1.250000000E+02  0.00000E+00  9.000E+00
      25     1     1     2     0     0  2.472731723E+02  2.915207330E+02  1.880725066E+02  4.439871927E+02  1.250000000E+02  0.00000E+00  9.000E+00
      21     1     1     2   511   502  7.861595237E+01 -1.330044817E+02  3.869414287E+02  4.166465281E+02  7.629394531E-06  0.00000E+00  9.000E+00
#rwgt            2          11   2.8914703524651635E-003           6      185507           0
</event>
<event>
      5   9999  3.19816E-02  1.76079E+02 -1.00000E+00  1.13700E-01
       2    -1     0     0   502     0  0.000000000E+00  0.000000000E+00  1.468015314E+03  1.468015314E+03  0.000000000E+00  0.00000E+00  9.000E+00
      21    -1     0     0   501   502  0.000000000E+00  0.000000000E+00 -6.098181305E+01  6.098181305E+01  0.000000000E+00  0.00000E+00  9.000E+00
      25     1     1     2     0     0  9.766149393E+01  3.975408959E+01  2.263266463E+02  2.792255466E+02  1.250000000E+02  0.00000E+00  9.000E+00
      25     1     1     2     0     0  4.720856053E+01 -1.398363973E+02  3.431213319E+02  3.938782992E+02  1.250000000E+02  0.00000E+00  9.000E+00
       2     1     1     2   501     0 -1.448700545E+02  1.000823077E+02  8.375855230E+02  8.558932815E+02  0.000000000E+00  0.00000E+00  9.000E+00
#rwgt            2          18   2.0912089682436018E-003           6      185557           0
</event>
<event>
      5   9999  3.19816E-02  1.15873E+03 -1.00000E+00  8.94812E-02
      21    -1     0     0   502   501  0.000000000E+00  0.000000000E+00  3.812446033E+02  3.812446033E+02  0.000000000E+00  0.00000E+00  9.000E+00
       2    -1     0     0   501     0  0.000000000E+00  0.000000000E+00 -4.483407155E+03  4.483407155E+03  0.000000000E+00  0.00000E+00  9.000E+00
      25     1     1     2     0     0 -1.186688130E+02 -3.831797368E+02 -4.310612768E+02  6.019533389E+02  1.250000000E+02  0.00000E+00  9.000E+00
      25     1     1     2     0     0 -4.380702283E+02 -6.330373825E+02 -2.485106797E+03  2.604615643E+03  1.250000000E+02  0.00000E+00  9.000E+00
       2     1     1     2   502     0  5.567390413E+02  1.016217119E+03 -1.185994478E+03  1.658082777E+03  3.411968960E-05  0.00000E+00  9.000E+00
#rwgt            2          13   1.9262194276059644E-003           6      185576           0
</event>
<event>
      5   9999  3.19816E-02  1.13677E+02 -1.00000E+00  1.21375E-01
      21    -1     0     0   511   501  0.000000000E+00  0.000000000E+00  7.465831833E+02  7.465831833E+02  0.000000000E+00  0.00000E+00  9.000E+00
      21    -1     0     0   501   502  0.000000000E+00  0.000000000E+00 -7.612580250E+02  7.612580250E+02  0.000000000E+00  0.00000E+00  9.000E+00
      25     1     1     2     0     0  6.379433028E+02  1.747359694E+02 -1.797604950E+02  6.967375059E+02  1.250000000E+02  0.00000E+00  9.000E+00
      25     1     1     2     0     0 -6.594412300E+02 -6.311018730E+01  1.042050407E+02  6.821505128E+02  1.250000000E+02  0.00000E+00  9.000E+00
      21     1     1     2   511   502  2.149792723E+01 -1.116257821E+02  6.088061264E+01  1.289531896E+02  1.651812370E-06  0.00000E+00  9.000E+00
#rwgt            1           1   3.0277133170087820E-002           6      185595           0
</event>
<event>
      5   9999  3.19816E-02  1.63596E+02 -1.00000E+00  1.14920E-01
      21    -1     0     0   512   501  0.000000000E+00  0.000000000E+00  2.311818121E+03  2.311818121E+03  0.000000000E+00  0.00000E+00  9.000E+00
      21    -1     0     0   501   502  0.000000000E+00  0.000000000E+00 -1.165360520E+02  1.165360520E+02  0.000000000E+00  0.00000E+00  9.000E+00
      25     1     1     2     0     0 -6.797576936E+01 -2.554790952E+02  2.277306485E+02  3.706433887E+02  1.250000000E+02  0.00000E+00  9.000E+00
      25     1     1     2     0     0  4.162672347E+01  4.169388695E+02  1.363397746E+03  1.431799294E+03  1.250000000E+02  0.00000E+00  9.000E+00
      21     1     1     2   512   502  2.634904589E+01 -1.614597743E+02  6.041536745E+02  6.259114900E+02  1.321449896E-05  0.00000E+00  9.000E+00
#rwgt            1           1   3.4920869260006322E-002           6      185683           0
</event>
<event>
      5   9999  3.19816E-02  1.25666E+02 -1.00000E+00  1.19524E-01
      21    -1     0     0   502   511  0.000000000E+00  0.000000000E+00  3.052701033E+02  3.052701033E+02  0.000000000E+00  0.00000E+00  9.000E+00
      21    -1     0     0   501   502  0.000000000E+00  0.000000000E+00 -7.055898055E+02  7.055898055E+02  0.000000000E+00  0.00000E+00  9.000E+00
      25     1     1     2     0     0 -2.968049645E+02 -2.689033100E+02 -3.732461412E+02  5.615512968E+02  1.250000000E+02  0.00000E+00  9.000E+00
      25     1     1     2     0     0  2.251728722E+02  1.656523861E+02 -7.423195527E+01  3.150855734E+02  1.250000000E+02  0.00000E+00  9.000E+00
      21     1     1     2   501   511  7.163209227E+01  1.032509240E+02  4.715839419E+01  1.342230386E+02  9.536743164E-07  0.00000E+00  9.000E+00
#rwgt            1           1   2.6952699447763399E-002           6      185724           0
</event>
<event>
      5   9999  3.19816E-02  8.17589E+01 -1.00000E+00  1.27894E-01
      21    -1     0     0   502   501  0.000000000E+00  0.000000000E+00  1.789454359E+02  1.789454359E+02  0.000000000E+00  0.00000E+00  9.000E+00
      21    -1     0     0   501   512  0.000000000E+00  0.000000000E+00 -8.904042971E+02  8.904042971E+02  0.000000000E+00  0.00000E+00  9.000E+00
      25     1     1     2     0     0  1.879779770E+02 -3.347286728E+01 -3.700892543E+02  4.347955943E+02  1.250000000E+02  0.00000E+00  9.000E+00
      25     1     1     2     0     0 -2.548564642E+02  8.050256079E+01 -1.211854296E+01  2.953038075E+02  1.250000000E+02  0.00000E+00  9.000E+00
      21     1     1     2   502   512  6.687848720E+01 -4.702969351E+01 -3.292510639E+02  3.392503312E+02  3.814697266E-06  0.00000E+00  9.000E+00
#rwgt            1           1   2.7315571901627502E-002           6      185774           0
</event>
<event>
      5   9999  3.19816E-02  6.92240E+01 -1.00000E+00  1.31466E-01
      21    -1     0     0   502   501  0.000000000E+00  0.000000000E+00  2.145559307E+02  2.145559307E+02  0.000000000E+00  0.00000E+00  9.000E+00
      21    -1     0     0   511   502  0.000000000E+00  0.000000000E+00 -3.830615916E+02  3.830615916E+02  0.000000000E+00  0.00000E+00  9.000E+00
      25     1     1     2     0     0  1.140027236E+02 -1.344989883E+02  2.136755571E+00  2.161392249E+02  1.250000000E+02  0.00000E+00  9.000E+00
      25     1     1     2     0     0 -7.013025262E+01  8.095298941E+01  3.168864998E+01  1.676329603E+02  1.250000000E+02  0.00000E+00  9.000E+00
      21     1     1     2   511   501 -4.387247099E+01  5.354599887E+01 -2.023310665E+02  2.138453370E+02  0.000000000E+00  0.00000E+00  9.000E+00
#rwgt            1           1   3.1170288179556683E-002           6      185880           0
</event>
<event>
      5   9999  3.19816E-02  1.22039E+01 -1.00000E+00  1.86262E-01
      21    -1     0     0   502   501  0.000000000E+00  0.000000000E+00  5.387640538E+02  5.387640538E+02  0.000000000E+00  0.00000E+00  9.000E+00
      21    -1     0     0   501   512  0.000000000E+00  0.000000000E+00 -1.145875040E+02  1.145875040E+02  0.000000000E+00  0.00000E+00  9.000E+00
      25     1     1     2     0     0  1.858456322E+02 -1.138986213E+00  2.534697708E+02  3.382481648E+02  1.250000000E+02  0.00000E+00  9.000E+00
      25     1     1     2     0     0 -1.736435226E+02  9.283182897E-01  1.939949333E+02  2.888113032E+02  1.250000000E+02  0.00000E+00  9.000E+00
      21     1     1     2   502   512 -1.220210957E+01  2.106679229E-01 -2.328815425E+01  2.629208983E+01  0.000000000E+00  0.00000E+00  9.000E+00
#rwgt            1           1   3.7174060919313259E-002           6      185942           0
</event>
<event>
      5   9999  3.19816E-02  3.34132E+02 -1.00000E+00  1.04093E-01
       2    -1     0     0   502     0  0.000000000E+00  0.000000000E+00  2.317426534E+03  2.317426534E+03  0.000000000E+00  0.00000E+00  9.000E+00
      21    -1     0     0   501   502  0.000000000E+00  0.000000000E+00 -6.778389255E+02  6.778389255E+02  0.000000000E+00  0.00000E+00  9.000E+00
      25     1     1     2     0     0 -9.514522960E+01 -1.704024785E+02 -5.162382623E+02  5.658768089E+02  1.250000000E+02  0.00000E+00  9.000E+00
      25     1     1     2     0     0 -2.347097812E+02  1.171122961E+02  4.710524157E+01  2.943601113E+02  1.250000000E+02  0.00000E+00  9.000E+00
       2     1     1     2   501     0  3.298550108E+02  5.329018237E+01  2.108720629E+03  2.135028539E+03  0.000000000E+00  0.00000E+00  9.000E+00
#rwgt            2          18   7.9619985946134137E-003           6      186159           0
</event>
<event>
      5   9999  3.19816E-02  2.56750E+02 -1.00000E+00  1.07836E-01
      21    -1     0     0   511   501  0.000000000E+00  0.000000000E+00  8.061361412E+02  8.061361412E+02  0.000000000E+00  0.00000E+00  9.000E+00
      21    -1     0     0   501   502  0.000000000E+00  0.000000000E+00 -8.087032957E+02  8.087032957E+02  0.000000000E+00  0.00000E+00  9.000E+00
      25     1     1     2     0     0 -3.685562091E+02 -2.251357112E+02 -3.605207796E+02  5.762985340E+02  1.250000000E+02  0.00000E+00  9.000E+00
      25     1     1     2     0     0  5.577544081E+02  3.987002604E+02  3.542283680E+02  7.817637841E+02  1.250000000E+02  0.00000E+00  9.000E+00
      21     1     1     2   511   502 -1.891981990E+02 -1.735645492E+02  3.725257114E+00  2.567771189E+02  2.705617588E-06  0.00000E+00  9.000E+00
#rwgt            2          11   5.2878842607362621E-003           6      186178           0
</event>
<event>
      5   9999  3.19816E-02  7.45713E+01 -1.00000E+00  1.29844E-01
      21    -1     0     0   512   501  0.000000000E+00  0.000000000E+00  5.721740357E+02  5.721740357E+02  0.000000000E+00  0.00000E+00  9.000E+00
      21    -1     0     0   501   502  0.000000000E+00  0.000000000E+00 -8.823739800E+02  8.823739800E+02  0.000000000E+00  0.00000E+00  9.000E+00
      25     1     1     2     0     0 -1.383041947E+02  1.231210841E+02 -7.080773914E+02  7.424859890E+02  1.250000000E+02  0.00000E+00  9.000E+00
      25     1     1     2     0     0  2.062502083E+02 -9.239298059E+01 -4.568558546E+01  2.622742534E+02  1.250000000E+02  0.00000E+00  9.000E+00
      21     1     1     2   512   502 -6.794601364E+01 -3.072810351E+01  4.435630326E+02  4.497877733E+02  7.629394531E-06  0.00000E+00  9.000E+00
#rwgt            1           1   3.1032418908822933E-002           6      186198           0
</event>
<event>
      5   9999  3.19816E-02  6.17459E+01 -1.00000E+00  1.34041E-01
      21    -1     0     0   502   501  0.000000000E+00  0.000000000E+00  9.118326821E+02  9.118326821E+02  0.000000000E+00  0.00000E+00  9.000E+00
      21    -1     0     0   511   502  0.000000000E+00  0.000000000E+00 -1.403751716E+02  1.403751716E+02  0.000000000E+00  0.00000E+00  9.000E+00
      25     1     1     2     0     0  7.659091058E+01 -1.241699220E+01  7.877335731E+02  8.013548100E+02  1.250000000E+02  0.00000E+00  9.000E+00
      25     1     1     2     0     0 -1.243667874E+02 -2.669852233E+01 -4.319275745E+01  1.834952947E+02  1.250000000E+02  0.00000E+00  9.000E+00
      21     1     1     2   511   501  4.777587679E+01  3.911551453E+01  2.691669479E+01  6.735774891E+01  8.259061849E-07  0.00000E+00  9.000E+00
#rwgt            1           1   2.9732930988653435E-002           6      186296           0
</event>
<event>
      5   9999  3.19816E-02  6.41753E+01 -1.00000E+00  1.33160E-01
      21    -1     0     0   502   512  0.000000000E+00  0.000000000E+00  7.283292588E+02  7.283292588E+02  0.000000000E+00  0.00000E+00  9.000E+00
      21    -1     0     0   501   502  0.000000000E+00  0.000000000E+00 -2.958495638E+02  2.958495638E+02  0.000000000E+00  0.00000E+00  9.000E+00
      25     1     1     2     0     0 -7.737466945E+01 -4.047001413E+02  1.681903656E+02  4.622575504E+02  1.250000000E+02  0.00000E+00  9.000E+00
      25     1     1     2     0     0  1.392780670E+02  3.877754640E+02  2.167199306E+02  4.820380885E+02  1.250000000E+02  0.00000E+00  9.000E+00
      21     1     1     2   501   512 -6.190339755E+01  1.692467734E+01  4.756939881E+01  7.988318368E+01  9.536743164E-07  0.00000E+00  9.000E+00
#rwgt            1           1   1.9662965932859655E-002           6      186366           0
</event>
<event>
      5   9999  3.19816E-02  1.56370E+02 -1.00000E+00  1.15682E-01
      21    -1     0     0   511   501  0.000000000E+00  0.000000000E+00  2.567089017E+02  2.567089017E+02  0.000000000E+00  0.00000E+00  9.000E+00
      21    -1     0     0   501   502  0.000000000E+00  0.000000000E+00 -1.277593555E+03  1.277593555E+03  0.000000000E+00  0.00000E+00  9.000E+00
      25     1     1     2     0     0 -1.301269101E+02  5.449507360E+01  2.242137522E+01  1.898168692E+02  1.250000000E+02  0.00000E+00  9.000E+00
      25     1     1     2     0     0  7.679982674E+01  9.250085718E+01 -1.144931799E+03  1.157993285E+03  1.250000000E+02  0.00000E+00  9.000E+00
      21     1     1     2   511   502  5.332708331E+01 -1.469959308E+02  1.016257714E+02  1.864923025E+02  4.672030912E-06  0.00000E+00  9.000E+00
#rwgt            1           1   2.8774342195661311E-002           6      186458           0
</event>
<event>
      5   9999  3.19816E-02  9.85328E+01 -1.00000E+00  1.24117E-01
       2    -1     0     0   502     0  0.000000000E+00  0.000000000E+00  1.712237889E+03  1.712237889E+03  0.000000000E+00  0.00000E+00  9.000E+00
      21    -1     0     0   501   502  0.000000000E+00  0.000000000E+00 -1.221878354E+02  1.221878354E+02  0.000000000E+00  0.00000E+00  9.000E+00
      25     1     1     2     0     0 -3.328663861E+02  1.447897773E+02  3.715366238E+02  5.342551576E+02  1.250000000E+02  0.00000E+00  9.000E+00
      25     1     1     2     0     0  3.151952364E+02 -4.785448077E+01  1.055843488E+03  1.109985838E+03  1.250000000E+02  0.00000E+00  9.000E+00
       2     1     1     2   501     0  1.767114976E+01 -9.693529648E+01  1.626699411E+02  1.901847285E+02  4.264961200E-06  0.00000E+00  9.000E+00
#rwgt            1           1   2.5127113194306643E-002           6      186540           0
</event>
<event>
      5   9999  3.19816E-02  1.06390E+02 -1.00000E+00  1.22630E-01
      21    -1     0     0   502   501  0.000000000E+00  0.000000000E+00  7.568902643E+02  7.568902643E+02  0.000000000E+00  0.00000E+00  9.000E+00
      21    -1     0     0   511   502  0.000000000E+00  0.000000000E+00 -1.395911231E+02  1.395911231E+02  0.000000000E+00  0.00000E+00  9.000E+00
      25     1     1     2     0     0 -2.350811663E+02 -9.134646447E+01  4.466542005E+02  5.279510452E+02  1.250000000E+02  0.00000E+00  9.000E+00
      25     1     1     2     0     0  1.611901598E+02  1.480225485E+01  1.636135476E+02  2.619079367E+02  1.250000000E+02  0.00000E+00  9.000E+00
      21     1     1     2   511   501  7.389100648E+01  7.654420962E+01  7.031393144E+00  1.066224055E+02  2.220623018E-06  0.00000E+00  9.000E+00
#rwgt            1           1   2.5925786528876484E-002           6      186595           0
</event>
<event>
      5   9999  3.19816E-02  6.16485E+01 -1.00000E+00  1.34077E-01
      21    -1     0     0   502   501  0.000000000E+00  0.000000000E+00  8.129795740E+02  8.129795740E+02  0.000000000E+00  0.00000E+00  9.000E+00
       2    -1     0     0   501     0  0.000000000E+00  0.000000000E+00 -1.156801816E+03  1.156801816E+03  0.000000000E+00  0.00000E+00  9.000E+00
      25     1     1     2     0     0  3.834268169E+02  1.386665135E+02  5.241947998E+02  6.757586211E+02  1.250000000E+02  0.00000E+00  9.000E+00
      25     1     1     2     0     0 -3.565829745E+02 -1.941637338E+02 -1.009098681E+00  4.248258367E+02  1.250000000E+02  0.00000E+00  9.000E+00
       2     1     1     2   502     0 -2.684384234E+01  5.549722023E+01 -8.670079435E+02  8.691969325E+02  0.000000000E+00  0.00000E+00  9.000E+00
#rwgt            1           1   2.6929934502183825E-002           6      186667           0
</event>
<event>
      5   9999  3.19816E-02  1.24318E+01 -1.00000E+00  1.85428E-01
      21    -1     0     0   511   501  0.000000000E+00  0.000000000E+00  5.150146062E+02  5.150146062E+02  0.000000000E+00  0.00000E+00  9.000E+00
      21    -1     0     0   501   502  0.000000000E+00  0.000000000E+00 -3.566289652E+02  3.566289652E+02  0.000000000E+00  0.00000E+00  9.000E+00
      25     1     1     2     0     0  1.440342821E+02  2.968622506E+02 -1.190152569E+02  3.723744105E+02  1.250000000E+02  0.00000E+00  9.000E+00
      25     1     1     2     0     0 -1.321359577E+02 -3.004648597E+02  1.683184740E+02  3.894806181E+02  1.250000000E+02  0.00000E+00  9.000E+00
      21     1     1     2   511   502 -1.189832433E+01  3.602609114E+00  1.090824239E+02  1.097885428E+02  1.348699152E-06  0.00000E+00  9.000E+00
#rwgt            1           1   2.4991617550008435E-002           6      186763           0
</event>
<event>
      5   9999  3.19816E-02  8.25119E+01 -1.00000E+00  1.27703E-01
      21    -1     0     0   502   501  0.000000000E+00  0.000000000E+00  4.061168161E+02  4.061168161E+02  0.000000000E+00  0.00000E+00  9.000E+00
      21    -1     0     0   501   512  0.000000000E+00  0.000000000E+00 -2.986168094E+02  2.986168094E+02  0.000000000E+00  0.00000E+00  9.000E+00
      25     1     1     2     0     0 -1.716860445E+02 -1.857613085E+02 -4.186928095E+01  2.852391949E+02  1.250000000E+02  0.00000E+00  9.000E+00
      25     1     1     2     0     0  1.204823584E+02  2.504636841E+02  1.432961497E+02  3.367593239E+02  1.250000000E+02  0.00000E+00  9.000E+00
      21     1     1     2   502   512  5.120368613E+01 -6.470237561E+01  6.073137993E+00  8.273510675E+01  1.140303997E-06  0.00000E+00  9.000E+00
#rwgt            1           1   3.0861041664665960E-002           6      187020           0
</event>
<event>
      5   9999  3.19816E-02  7.76812E+01 -1.00000E+00  1.28971E-01
      21    -1     0     0   502   511  0.000000000E+00  0.000000000E+00  2.714809322E+02  2.714809322E+02  0.000000000E+00  0.00000E+00  9.000E+00
      21    -1     0     0   501   502  0.000000000E+00  0.000000000E+00 -2.437081452E+02  2.437081452E+02  0.000000000E+00  0.00000E+00  9.000E+00
      25     1     1     2     0     0  1.504085170E+01 -1.008143384E+01  1.643782586E+02  2.072994801E+02  1.250000000E+02  0.00000E+00  9.000E+00
      25     1     1     2     0     0  5.082321786E+01 -3.110458467E+01 -1.734224785E+02  2.219253269E+02  1.250000000E+02  0.00000E+00  9.000E+00
      21     1     1     2   501   511 -6.586406956E+01  4.118601851E+01  3.681700695E+01  8.596427037E+01  1.651812370E-06  0.00000E+00  9.000E+00
#rwgt            1           1   2.7619511690530667E-002           6      187095           0
</event>
<event>
      5   9999  3.19816E-02  3.63075E+01 -1.00000E+00  1.47498E-01
      21    -1     0     0   502   501  0.000000000E+00  0.000000000E+00  3.535531395E+02  3.535531395E+02  0.000000000E+00  0.00000E+00  9.000E+00
      21    -1     0     0   512   502  0.000000000E+00  0.000000000E+00 -4.072199794E+02  4.072199794E+02  0.000000000E+00  0.00000E+00  9.000E+00
      25     1     1     2     0     0  2.775946766E+02  5.224934435E+01  1.533906340E+02  3.448803924E+02  1.250000000E+02  0.00000E+00  9.000E+00
      25     1     1     2     0     0 -2.795939939E+02 -8.850173942E+01 -1.606964851E+02  3.570066100E+02  1.250000000E+02  0.00000E+00  9.000E+00
      21     1     1     2   512   501  1.999317231E+00  3.625239507E+01 -4.636098891E+01  5.888611645E+01  9.536743164E-07  0.00000E+00  9.000E+00
#rwgt            1           1   2.8202819102658913E-002           6      187137           0
</event>
<event>
      5   9999  3.19816E-02  8.06124E+01 -1.00000E+00  1.28189E-01
      21    -1     0     0   502   501  0.000000000E+00  0.000000000E+00  3.455863122E+02  3.455863122E+02  0.000000000E+00  0.00000E+00  9.000E+00
      21    -1     0     0   501   511  0.000000000E+00  0.000000000E+00 -6.247458496E+02  6.247458496E+02  0.000000000E+00  0.00000E+00  9.000E+00
      25     1     1     2     0     0 -1.625052830E+02 -1.038007650E+02  2.694601212E+02  3.541416704E+02  1.250000000E+02  0.00000E+00  9.000E+00
      25     1     1     2     0     0  1.156029599E+02  3.823756699E+01 -2.370006496E+02  2.943135467E+02  1.250000000E+02  0.00000E+00  9.000E+00
      21     1     1     2   502   511  4.690232311E+01  6.556319797E+01 -3.116190090E+02  3.218769448E+02  3.814697266E-06  0.00000E+00  9.000E+00
#rwgt            1           1   2.3546646648610697E-002           6      187237           0
</event>
<event>
      5   9999  3.19816E-02  1.13563E+02 -1.00000E+00  1.21394E-01
      21    -1     0     0   502   501  0.000000000E+00  0.000000000E+00  6.662077053E+02  6.662077053E+02  0.000000000E+00  0.00000E+00  9.000E+00
      21    -1     0     0   501   512  0.000000000E+00  0.000000000E+00 -1.303889209E+02  1.303889209E+02  0.000000000E+00  0.00000E+00  9.000E+00
      25     1     1     2     0     0 -6.774233403E+01  9.894082491E+01  1.744565650E+02  2.458422334E+02  1.250000000E+02  0.00000E+00  9.000E+00
      25     1     1     2     0     0 -4.480654489E+01 -8.380101325E+01  4.008624644E+02  4.305182361E+02  1.250000000E+02  0.00000E+00  9.000E+00
      21     1     1     2   502   512  1.125488789E+02 -1.513981166E+01 -3.950024487E+01  1.202361567E+02  2.697398305E-06  0.00000E+00  9.000E+00
#rwgt            1           1   3.8205962644821428E-002           6      187311           0
</event>
<event>
      5   9999  3.19816E-02  5.53493E+01 -1.00000E+00  1.36603E-01
      21    -1     0     0   502   501  0.000000000E+00  0.000000000E+00  3.205424574E+02  3.205424574E+02  0.000000000E+00  0.00000E+00  9.000E+00
      21    -1     0     0   511   502  0.000000000E+00  0.000000000E+00 -2.994831383E+02  2.994831383E+02  0.000000000E+00  0.00000E+00  9.000E+00
      25     1     1     2     0     0 -1.226497989E+02  1.777246344E+02  1.346623958E+02  2.835277406E+02  1.250000000E+02  0.00000E+00  9.000E+00
      25     1     1     2     0     0  6.764749166E+01 -1.839122720E+02 -2.738189767E+01  2.340399009E+02  1.250000000E+02  0.00000E+00  9.000E+00
      21     1     1     2   511   501  5.500230726E+01  6.187637623E+00 -8.622117902E+01  1.024579542E+02  1.348699152E-06  0.00000E+00  9.000E+00
#rwgt            1           1   2.7179006927505273E-002           6      187388           0
</event>
<event>
      5   9999  3.19816E-02  6.89160E+01 -1.00000E+00  1.31565E-01
      21    -1     0     0   502   512  0.000000000E+00  0.000000000E+00  1.076234652E+02  1.076234652E+02  0.000000000E+00  0.00000E+00  9.000E+00
      21    -1     0     0   501   502  0.000000000E+00  0.000000000E+00 -5.777184737E+02  5.777184737E+02  0.000000000E+00  0.00000E+00  9.000E+00
      25     1     1     2     0     0  2.139016427E+01 -1.524757359E+01  4.610823501E+00  1.278134865E+02  1.250000000E+02  0.00000E+00  9.000E+00
      25     1     1     2     0     0 -8.867368883E+01  3.364146471E-01 -4.628967810E+02  4.876080046E+02  1.250000000E+02  0.00000E+00  9.000E+00
      21     1     1     2   501   512  6.728352457E+01  1.491115895E+01 -1.180905097E+01  6.992044783E+01  1.563415176E-06  0.00000E+00  9.000E+00
#rwgt            1           1   2.8642483530459131E-002           6      187515           0
</event>
<event>
      5   9999  3.19816E-02  4.73887E+02 -1.00000E+00  9.95183E-02
      21    -1     0     0   511   501  0.000000000E+00  0.000000000E+00  2.922028391E+02  2.922028391E+02  0.000000000E+00  0.00000E+00  9.000E+00
      21    -1     0     0   501   502  0.000000000E+00  0.000000000E+00 -1.380870317E+03  1.380870317E+03  0.000000000E+00  0.00000E+00  9.000E+00
      25     1     1     2     0     0  4.581833013E+02 -2.463492672E+01 -2.785157862E+02  5.511214570E+02  1.250000000E+02  0.00000E+00  9.000E+00
      25     1     1     2     0     0  5.145288170E+00  1.241108496E+02 -5.579803981E+02  5.851470770E+02  1.250000000E+02  0.00000E+00  9.000E+00
      21     1     1     2   511   502 -4.633285895E+02 -9.947592291E+01 -2.521712936E+02  5.368046222E+02  9.725607898E-06  0.00000E+00  9.000E+00
#rwgt            2          11   2.6886933288059363E-003           6      187679           0
</event>
<event>
      5   9999  3.19816E-02  4.90673E+01 -1.00000E+00  1.39544E-01
      21    -1     0     0   512   501  0.000000000E+00  0.000000000E+00  1.280743058E+03  1.280743058E+03  0.000000000E+00  0.00000E+00  9.000E+00
      21    -1     0     0   501   502  0.000000000E+00  0.000000000E+00 -7.493927058E+02  7.493927058E+02  0.000000000E+00  0.00000E+00  9.000E+00
      25     1     1     2     0     0 -5.564128906E+02 -2.845348193E+02  7.004525658E+02  9.470027271E+02  1.250000000E+02  0.00000E+00  9.000E+00
      25     1     1     2     0     0  5.540643589E+02  2.355237515E+02 -4.727079304E+02  7.755878666E+02  1.250000000E+02  0.00000E+00  9.000E+00
      21     1     1     2   512   502  2.348531726E+00  4.901106780E+01  3.036057173E+02  3.075451706E+02  3.814697266E-06  0.00000E+00  9.000E+00
#rwgt            1           1   3.4768873977529861E-002           6      187699           0
</event>
<event>
      5   9999  3.19816E-02  3.10692E+01 -1.00000E+00  1.51991E-01
       2    -1     0     0   502     0  0.000000000E+00  0.000000000E+00  2.378540149E+03  2.378540149E+03  0.000000000E+00  0.00000E+00  9.000E+00
      21    -1     0     0   501   502  0.000000000E+00  0.000000000E+00 -3.993415551E+01  3.993415551E+01  0.000000000E+00  0.00000E+00  9.000E+00
      25     1     1     2     0     0  6.447013614E+01  3.402035519E+01  2.731715926E+02  3.091302347E+02  1.250000000E+02  0.00000E+00  9.000E+00
      25     1     1     2     0     0 -3.403022577E+01 -4.024178826E+01  1.889574205E+02  2.326098978E+02  1.250000000E+02  0.00000E+00  9.000E+00
       2     1     1     2   501     0 -3.043991037E+01  6.221433065E+00  1.876476980E+03  1.876734172E+03  0.000000000E+00  0.00000E+00  9.000E+00
#rwgt            1           1   2.2718370078793404E-002           6      187839           0
</event>
<event>
      5   9999  3.19816E-02  7.35040E+01 -1.00000E+00  1.30155E-01
      21    -1     0     0   502   501  0.000000000E+00  0.000000000E+00  1.299745105E+02  1.299745105E+02  0.000000000E+00  0.00000E+00  9.000E+00
      21    -1     0     0   501   511  0.000000000E+00  0.000000000E+00 -3.142470264E+03  3.142470264E+03  0.000000000E+00  0.00000E+00  9.000E+00
      25     1     1     2     0     0 -1.959404549E+01  1.925886000E+02  8.104957338E+00  2.305753365E+02  1.250000000E+02  0.00000E+00  9.000E+00
      25     1     1     2     0     0 -1.788898414E+01 -2.558172681E+02 -2.350571098E+03  2.367820090E+03  1.250000000E+02  0.00000E+00  9.000E+00
      21     1     1     2   502   511  3.748302964E+01  6.322866809E+01 -6.700296129E+02  6.740493485E+02  0.000000000E+00  0.00000E+00  9.000E+00
#rwgt            1           1   2.2770974163198246E-002           6      187925           0
</event>
<event>
      5   9999  3.19816E-02  4.51003E+01 -1.00000E+00  1.41680E-01
      21    -1     0     0   502   501  0.000000000E+00  0.000000000E+00  5.517740552E+02  5.517740552E+02  0.000000000E+00  0.00000E+00  9.000E+00
       2    -1     0     0   501     0  0.000000000E+00  0.000000000E+00 -1.874560061E+03  1.874560061E+03  0.000000000E+00  0.00000E+00  9.000E+00
      25     1     1     2     0     0  2.854470030E+02 -5.720660091E+02  2.642118245E+02  7.029739671E+02  1.250000000E+02  0.00000E+00  9.000E+00
      25     1     1     2     0     0 -2.417755778E+02  5.608036553E+02 -1.517103634E+03  1.640178224E+03  1.250000000E+02  0.00000E+00  9.000E+00
       2     1     1     2   502     0 -4.367142517E+01  1.126235373E+01 -6.989419627E+01  8.318192508E+01  1.651812370E-06  0.00000E+00  9.000E+00
#rwgt            2          13   6.8650582327083693E-004           6      188067           0
</event>
<event>
      5   9999  3.19816E-02  6.71948E+01 -1.00000E+00  1.32127E-01
      21    -1     0     0   502   501  0.000000000E+00  0.000000000E+00  3.934484357E+02  3.934484357E+02  0.000000000E+00  0.00000E+00  9.000E+00
      21    -1     0     0   501   511  0.000000000E+00  0.000000000E+00 -2.403450745E+02  2.403450745E+02  0.000000000E+00  0.00000E+00  9.000E+00
      25     1     1     2     0     0  2.245611571E+02 -1.325948986E+02  1.366333086E+02  3.198480599E+02  1.250000000E+02  0.00000E+00  9.000E+00
      25     1     1     2     0     0 -1.980183628E+02  7.086462373E+01  2.616741742E+01  2.460544668E+02  1.250000000E+02  0.00000E+00  9.000E+00
      21     1     1     2   502   511 -2.654279428E+01  6.173027484E+01 -9.697364775E+00  6.789098353E+01  1.215700987E-06  0.00000E+00  9.000E+00
#rwgt            1           1   2.7564365187161950E-002           6      188086           0
</event>
<event>
      5   9999  3.19816E-02  2.45080E+01 -1.00000E+00  1.59400E-01
      21    -1     0     0   502   501  0.000000000E+00  0.000000000E+00  7.640098048E+01  7.640098048E+01  0.000000000E+00  0.00000E+00  9.000E+00
      21    -1     0     0   501   512  0.000000000E+00  0.000000000E+00 -6.483838251E+02  6.483838251E+02  0.000000000E+00  0.00000E+00  9.000E+00
      25     1     1     2     0     0 -1.272047592E+02  1.799753256E+01 -4.168085342E+02  4.537172205E+02  1.250000000E+02  0.00000E+00  9.000E+00
      25     1     1     2     0     0  1.056194232E+02 -6.390815632E+00 -6.263995082E+01  1.753427173E+02  1.250000000E+02  0.00000E+00  9.000E+00
      21     1     1     2   502   512  2.158533605E+01 -1.160671693E+01 -9.253435958E+01  9.572486778E+01  1.348699152E-06  0.00000E+00  9.000E+00
#rwgt            1           1   2.4524093650052786E-002           6      188142           0
</event>
<event>
      5   9999  3.19816E-02  5.04203E+01 -1.00000E+00  1.38868E-01
       3    -1     0     0   502     0  0.000000000E+00  0.000000000E+00  4.807387595E+02  4.807387595E+02  0.000000000E+00  0.00000E+00  9.000E+00
      21    -1     0     0   501   502  0.000000000E+00  0.000000000E+00 -1.666293356E+02  1.666293356E+02  0.000000000E+00  0.00000E+00  9.000E+00
      25     1     1     2     0     0 -1.160777198E+02 -8.180315232E+01 -2.162892232E+01  1.904169190E+02  1.250000000E+02  0.00000E+00  9.000E+00
      25     1     1     2     0     0  1.618769566E+02  6.071674431E+01  1.408471434E+02  2.556434821E+02  1.250000000E+02  0.00000E+00  9.000E+00
       3     1     1     2   501     0 -4.579923689E+01  2.108640801E+01  1.948912028E+02  2.013076940E+02  3.814697266E-06  0.00000E+00  9.000E+00
#rwgt            1           1   2.9913587459180924E-002           6      188291           0
</event>
<event>
      5   9999  3.19816E-02  1.72161E+01 -1.00000E+00  1.71925E-01
      21    -1     0     0   502   511  0.000000000E+00  0.000000000E+00  7.194516727E+02  7.194516727E+02  0.000000000E+00  0.00000E+00  9.000E+00
      21    -1     0     0   501   502  0.000000000E+00  0.000000000E+00 -3.202206060E+02  3.202206060E+02  0.000000000E+00  0.00000E+00  9.000E+00
      25     1     1     2     0     0 -6.327397767E+00 -1.879725803E+01  3.796860265E+02  4.002247513E+02  1.250000000E+02  0.00000E+00  9.000E+00
      25     1     1     2     0     0 -9.659715439E+00  2.518517372E+01 -2.965173410E+02  3.229166093E+02  1.250000000E+02  0.00000E+00  9.000E+00
      21     1     1     2   501   511  1.598711321E+01 -6.387915686E+00  3.160623812E+02  3.165309180E+02  0.000000000E+00  0.00000E+00  9.000E+00
#rwgt            1           1   2.7896051088211093E-002           6      188378           0
</event>
<event>
      5   9999  3.19816E-02  9.84882E+01 -1.00000E+00  1.24126E-01
      21    -1     0     0   502   501  0.000000000E+00  0.000000000E+00  6.712870155E+02  6.712870155E+02  0.000000000E+00  0.00000E+00  9.000E+00
      21    -1     0     0   512   502  0.000000000E+00  0.000000000E+00 -4.024864447E+02  4.024864447E+02  0.000000000E+00  0.00000E+00  9.000E+00
      25     1     1     2     0     0 -3.344969365E-01 -1.453738519E+02  1.588734311E+02  2.489968590E+02  1.250000000E+02  0.00000E+00  9.000E+00
      25     1     1     2     0     0 -4.655062773E+01  2.319862540E+02  4.207972874E+02  4.986781929E+02  1.250000000E+02  0.00000E+00  9.000E+00
      21     1     1     2   512   501  4.688512467E+01 -8.661240214E+01 -3.108701478E+02  3.260984083E+02  3.814697266E-06  0.00000E+00  9.000E+00
#rwgt            1           1   2.9125350361432691E-002           6      188575           0
</event>
<event>
      5   9999  3.19816E-02  4.85591E+01 -1.00000E+00  1.39804E-01
      21    -1     0     0   502   501  0.000000000E+00  0.000000000E+00  2.244190367E+02  2.244190367E+02  0.000000000E+00  0.00000E+00  9.000E+00
      21    -1     0     0   511   502  0.000000000E+00  0.000000000E+00 -5.697046088E+02  5.697046088E+02  0.000000000E+00  0.00000E+00  9.000E+00
      25     1     1     2     0     0  1.371946649E+02 -2.481820691E+02 -1.679720160E+02  3.525000903E+02  1.250000000E+02  0.00000E+00  9.000E+00
      25     1     1     2     0     0 -1.539385843E+02  2.937630797E+02 -1.431185186E+02  3.822325798E+02  1.250000000E+02  0.00000E+00  9.000E+00
      21     1     1     2   511   501  1.674391949E+01 -4.558101058E+01 -3.419503751E+01  5.939097537E+01  0.000000000E+00  0.00000E+00  9.000E+00
#rwgt            1           1   2.7485860998838211E-002           6      188617           0
</event>
<event>
      5   9999  3.19816E-02  1.79468E+01 -1.00000E+00  1.70346E-01
      21    -1     0     0   502   512  0.000000000E+00  0.000000000E+00  5.237837199E+02  5.237837199E+02  0.000000000E+00  0.00000E+00  9.000E+00
      21    -1     0     0   501   502  0.000000000E+00  0.000000000E+00 -2.131202475E+02  2.131202475E+02  0.000000000E+00  0.00000E+00  9.000E+00
      25     1     1     2     0     0  1.129425064E+02  1.930910485E+02  3.326125567E+02  4.198765005E+02  1.250000000E+02  0.00000E+00  9.000E+00
      25     1     1     2     0     0 -1.208051054E+02 -2.092238952E+02 -5.674748695E+01  2.778736927E+02  1.250000000E+02  0.00000E+00  9.000E+00
      21     1     1     2   501   512  7.862598953E+00  1.613284671E+01  3.479840269E+01  3.915377421E+01  4.768371582E-07  0.00000E+00  9.000E+00
#rwgt            1           1   2.7821713252402042E-002           6      188709           0
</event>
<event>
      5   9999  3.19816E-02  6.12782E+01 -1.00000E+00  1.34216E-01
      21    -1     0     0   502   501  0.000000000E+00  0.000000000E+00  2.318680501E+03  2.318680501E+03  0.000000000E+00  0.00000E+00  9.000E+00
      21    -1     0     0   511   502  0.000000000E+00  0.000000000E+00 -2.084753958E+02  2.084753958E+02  0.000000000E+00  0.00000E+00  9.000E+00
      25     1     1     2     0     0 -4.035289825E+02  5.814836601E+01  1.950928136E+03  1.996988349E+03  1.250000000E+02  0.00000E+00  9.000E+00
      25     1     1     2     0     0  3.477797418E+02 -3.271130393E+01  2.300580288E+02  4.365460741E+02  1.250000000E+02  0.00000E+00  9.000E+00
      21     1     1     2   511   501  5.574924076E+01 -2.543706208E+01 -7.078105976E+01  9.362147400E+01  3.162979880E-06  0.00000E+00  9.000E+00
#rwgt            1           1   2.9942920584427428E-002           6      188849           0
</event>
<event>
      5   9999  3.19816E-02  9.59299E+00 -1.00000E+00  1.97867E-01
      21    -1     0     0   502   512  0.000000000E+00  0.000000000E+00  3.927304305E+02  3.927304305E+02  0.000000000E+00  0.00000E+00  9.000E+00
      21    -1     0     0   501   502  0.000000000E+00  0.000000000E+00 -2.646404215E+02  2.646404215E+02  0.000000000E+00  0.00000E+00  9.000E+00
      25     1     1     2     0     0 -2.124793628E+02 -1.511105373E+02 -6.635876599E+01  2.966654006E+02  1.250000000E+02  0.00000E+00  9.000E+00
      25     1     1     2     0     0  2.213957043E+02  1.475715727E+02  1.906956158E+02  3.504044019E+02  1.250000000E+02  0.00000E+00  9.000E+00
      21     1     1     2   501   512 -8.916341508E+00  3.538964626E+00  3.753159216E+00  1.030104949E+01  1.576990671E-07  0.00000E+00  9.000E+00
#rwgt            1           1   2.6718910318991870E-002           6      188952           0
</event>
<event>
      5   9999  3.19816E-02  5.17059E+02 -1.00000E+00  9.84398E-02
      21    -1     0     0   502   501  0.000000000E+00  0.000000000E+00  6.745498012E+02  6.745498012E+02  0.000000000E+00  0.00000E+00  9.000E+00
      21    -1     0     0   511   502  0.000000000E+00  0.000000000E+00 -1.969432378E+03  1.969432378E+03  0.000000000E+00  0.00000E+00  9.000E+00
      25     1     1     2     0     0  3.801247991E+01  2.033464152E+02 -1.372424997E+03  1.393545868E+03  1.250000000E+02  0.00000E+00  9.000E+00
      25     1     1     2     0     0 -4.367472300E+02  1.258349004E+02  4.190954277E+02  6.307523623E+02  1.250000000E+02  0.00000E+00  9.000E+00
      21     1     1     2   511   501  3.987347501E+02 -3.291813157E+02 -3.415530068E+02  6.196839485E+02  5.394796609E-06  0.00000E+00  9.000E+00
#rwgt            2          11   2.4876230522309665E-003           6      189256           0
</event>
<event>
      5   9999  3.19816E-02  7.10998E+01 -1.00000E+00  1.30879E-01
      21    -1     0     0   502   501  0.000000000E+00  0.000000000E+00  2.329462867E+02  2.329462867E+02  0.000000000E+00  0.00000E+00  9.000E+00
      21    -1     0     0   501   512  0.000000000E+00  0.000000000E+00 -4.648051977E+02  4.648051977E+02  0.000000000E+00  0.00000E+00  9.000E+00
      25     1     1     2     0     0  1.051431341E+02  8.894157111E+01  1.413532355E+02  2.336052630E+02  1.250000000E+02  0.00000E+00  9.000E+00
      25     1     1     2     0     0 -5.587105228E+01 -1.402002248E+02 -3.204004087E+02  3.755783533E+02  1.250000000E+02  0.00000E+00  9.000E+00
      21     1     1     2   502   512 -4.927208181E+01  5.125865373E+01 -5.281173778E+01  8.856786819E+01  1.168007728E-06  0.00000E+00  9.000E+00
#rwgt            1           1   2.8051059537050758E-002           6      189291           0
</event>
<event>
      5   9999  3.19816E-02  7.35750E+00 -1.00000E+00  2.12541E-01
      21    -1     0     0   502   511  0.000000000E+00  0.000000000E+00  8.069115080E+02  8.069115080E+02  0.000000000E+00  0.00000E+00  9.000E+00
      21    -1     0     0   501   502  0.000000000E+00  0.000000000E+00 -1.265027818E+02  1.265027818E+02  0.000000000E+00  0.00000E+00  9.000E+00
      25     1     1     2     0     0  3.873056898E+01 -2.116331722E+02  7.389668513E+01  2.595657463E+02  1.250000000E+02  0.00000E+00  9.000E+00
      25     1     1     2     0     0 -3.327317899E+01  2.066986314E+02  4.087865426E+02  4.759862037E+02  1.250000000E+02  0.00000E+00  9.000E+00
      21     1     1     2   501   511 -5.457389990E+00  4.934540821E+00  1.977254984E+02  1.978623398E+02  2.697398305E-06  0.00000E+00  9.000E+00
#rwgt            1           1   2.7434209165066246E-002           6      189364           0
</event>
<event>
      5   9999  3.19816E-02  2.09647E+01 -1.00000E+00  1.64698E-01
      21    -1     0     0   512   501  0.000000000E+00  0.000000000E+00  4.356590868E+02  4.356590868E+02  0.000000000E+00  0.00000E+00  9.000E+00
      21    -1     0     0   501   502  0.000000000E+00  0.000000000E+00 -5.416229582E+01  5.416229582E+01  0.000000000E+00  0.00000E+00  9.000E+00
      25     1     1     2     0     0  1.653763189E+01 -1.204951683E+01  6.843378728E+01  1.439682860E+02  1.250000000E+02  0.00000E+00  9.000E+00
      25     1     1     2     0     0  4.191167095E+00  8.913062233E+00  2.785719357E+02  3.054903140E+02  1.250000000E+02  0.00000E+00  9.000E+00
      21     1     1     2   512   502 -2.072879899E+01  3.136454601E+00  3.449106802E+01  4.036278271E+01  6.743495762E-07  0.00000E+00  9.000E+00
#rwgt            1           1   3.1667171006579897E-002           6      189611           0
</event>
<event>
      5   9999  3.19816E-02  5.94143E+01 -1.00000E+00  1.34931E-01
      21    -1     0     0   502   511  0.000000000E+00  0.000000000E+00  4.344877106E+02  4.344877106E+02  0.000000000E+00  0.00000E+00  9.000E+00
      21    -1     0     0   501   502  0.000000000E+00  0.000000000E+00 -1.469075551E+03  1.469075551E+03  0.000000000E+00  0.00000E+00  9.000E+00
      25     1     1     2     0     0 -4.915055311E+02  2.711436622E+02 -1.159112184E+03  1.293933007E+03  1.250000000E+02  0.00000E+00  9.000E+00
      25     1     1     2     0     0  4.327936054E+02 -2.802523855E+02  1.390564152E+02  5.484645759E+02  1.250000000E+02  0.00000E+00  9.000E+00
      21     1     1     2   501   511  5.871192578E+01  9.108723247E+00 -1.453207131E+01  6.116567800E+01  1.710975181E-06  0.00000E+00  9.000E+00
#rwgt            1           1   3.1072497231924921E-002           6      189755           0
</event>
<event>
      5   9999  3.19816E-02  3.07447E+02 -1.00000E+00  1.05247E-01
      21    -1     0     0   502   512  0.000000000E+00  0.000000000E+00  7.672177622E+02  7.672177622E+02  0.000000000E+00  0.00000E+00  9.000E+00
      21    -1     0     0   501   502  0.000000000E+00  0.000000000E+00 -1.255425110E+03  1.255425110E+03  0.000000000E+00  0.00000E+00  9.000E+00
      25     1     1     2     0     0  3.618960190E+02  5.273882685E+02 -1.521139022E+02  6.692314649E+02  1.250000000E+02  0.00000E+00  9.000E+00
      25     1     1     2     0     0 -5.113336436E+02 -2.587023789E+02 -6.760719634E+02  8.950348125E+02  1.250000000E+02  0.00000E+00  9.000E+00
      21     1     1     2   501   512  1.494376246E+02 -2.686858896E+02  3.399785173E+02  4.583765953E+02  5.394796609E-06  0.00000E+00  9.000E+00
#rwgt            1           1   3.1115596544973364E-002           6      189889           0
</event>
<event>
      5   9999  3.19816E-02  2.00420E+02 -1.00000E+00  1.11615E-01
      21    -1     0     0   502   501  0.000000000E+00  0.000000000E+00  9.883860680E+02  9.883860680E+02  0.000000000E+00  0.00000E+00  9.000E+00
       1    -1     0     0   501     0  0.000000000E+00  0.000000000E+00 -7.028504760E+02  7.028504760E+02  0.000000000E+00  0.00000E+00  9.000E+00
      25     1     1     2     0     0  5.470295558E+02 -2.723913983E+02  2.859878707E+02  6.861869067E+02  1.250000000E+02  0.00000E+00  9.000E+00
      25     1     1     2     0     0 -7.424096753E+02  2.277282182E+02 -7.744171315E+01  7.903508628E+02  1.250000000E+02  0.00000E+00  9.000E+00
       1     1     1     2   502     0  1.953801195E+02  4.466318009E+01  7.698943454E+01  2.146987745E+02  3.303624740E-06  0.00000E+00  9.000E+00
#rwgt            1           1   3.3047262079818930E-002           6      189926           0
</event>
<event>
      5   9999  3.19816E-02  5.96038E+02 -1.00000E+00  9.67316E-02
      21    -1     0     0   502   511  0.000000000E+00  0.000000000E+00  2.055736853E+03  2.055736853E+03  0.000000000E+00  0.00000E+00  9.000E+00
      21    -1     0     0   501   502  0.000000000E+00  0.000000000E+00 -3.738675153E+02  3.738675153E+02  0.000000000E+00  0.00000E+00  9.000E+00
      25     1     1     2     0     0  1.587508355E+02  1.207457487E+02 -3.434913532E+01  2.378785965E+02  1.250000000E+02  0.00000E+00  9.000E+00
      25     1     1     2     0     0 -7.530071137E+02 -7.469335455E+01  9.478681863E+02  1.219294021E+03  1.250000000E+02  0.00000E+00  9.000E+00
      21     1     1     2   501   511  5.942562782E+02 -4.605239415E+01  7.683502870E+02  9.724317512E+02  0.000000000E+00  0.00000E+00  9.000E+00
#rwgt            2          11   1.2013593561734678E-003           6      190053           0
</event>
<event>
      5   9999  3.19816E-02  2.66240E+01 -1.00000E+00  1.56730E-01
      21    -1     0     0   502   512  0.000000000E+00  0.000000000E+00  3.002080365E+02  3.002080365E+02  0.000000000E+00  0.00000E+00  9.000E+00
      21    -1     0     0   501   502  0.000000000E+00  0.000000000E+00 -1.119686412E+03  1.119686412E+03  0.000000000E+00  0.00000E+00  9.000E+00
      25     1     1     2     0     0 -3.573810175E+02  3.854546038E+02 -5.860986574E+02  7.971405644E+02  1.250000000E+02  0.00000E+00  9.000E+00
      25     1     1     2     0     0  3.461200561E+02 -4.095798088E+02 -2.253285088E+02  5.949391985E+02  1.250000000E+02  0.00000E+00  9.000E+00
      21     1     1     2   501   512  1.126096136E+01  2.412520500E+01 -8.051209512E+00  2.781468572E+01  1.685873940E-07  0.00000E+00  9.000E+00
#rwgt            1           1   3.0091076770428649E-002           6      190073           0
</event>
<event>
      5   9999  3.19816E-02  6.19636E+01 -1.00000E+00  1.33960E-01
      21    -1     0     0   511   501  0.000000000E+00  0.000000000E+00  1.724287844E+03  1.724287844E+03  0.000000000E+00  0.00000E+00  9.000E+00
      21    -1     0     0   501   502  0.000000000E+00  0.000000000E+00 -8.143280089E+01  8.143280089E+01  0.000000000E+00  0.00000E+00  9.000E+00
      25     1     1     2     0     0 -2.897348854E+02 -4.289708851E+01  1.209214399E+03  1.250444292E+03  1.250000000E+02  0.00000E+00  9.000E+00
      25     1     1     2     0     0  2.299610530E+02  5.922420926E+01  2.716921255E+02  3.818785199E+02  1.250000000E+02  0.00000E+00  9.000E+00
      21     1     1     2   511   502  5.977383236E+01 -1.632712075E+01  1.619485187E+02  1.733978333E+02  1.907348633E-06  0.00000E+00  9.000E+00
#rwgt            1           1   3.4402759251274055E-002           6      190191           0
</event>
<event>
      5   9999  3.19816E-02  5.20428E+01 -1.00000E+00  1.38091E-01
      21    -1     0     0   502   501  0.000000000E+00  0.000000000E+00  3.367122764E+02  3.367122764E+02  0.000000000E+00  0.00000E+00  9.000E+00
      21    -1     0     0   512   502  0.000000000E+00  0.000000000E+00 -3.329773468E+02  3.329773468E+02  0.000000000E+00  0.00000E+00  9.000E+00
      25     1     1     2     0     0 -7.853834190E+01  8.012240258E+01 -2.130930232E+01  1.693131918E+02  1.250000000E+02  0.00000E+00  9.000E+00
      25     1     1     2     0     0  5.595348634E+01 -3.323559392E+01  2.404869257E+02  2.787370782E+02  1.250000000E+02  0.00000E+00  9.000E+00
      21     1     1     2   512   501  2.258485557E+01 -4.688680866E+01 -2.154426939E+02  2.216393532E+02  0.000000000E+00  0.00000E+00  9.000E+00
#rwgt            1           1   2.9324675529240413E-002           6      190282           0
</event>
<event>
      5   9999  3.19816E-02  1.89948E+01 -1.00000E+00  1.68238E-01
      21    -1     0     0   511   501  0.000000000E+00  0.000000000E+00  9.826576141E+02  9.826576141E+02  0.000000000E+00  0.00000E+00  9.000E+00
      21    -1     0     0   501   502  0.000000000E+00  0.000000000E+00 -4.526649896E+02  4.526649896E+02  0.000000000E+00  0.00000E+00  9.000E+00
      25     1     1     2     0     0 -2.444037988E+01  3.074014636E+02  4.104911428E+02  5.284136357E+02  1.250000000E+02  0.00000E+00  9.000E+00
      25     1     1     2     0     0  1.613008958E+01 -3.244819588E+02 -3.165117953E+02  4.704821335E+02  1.250000000E+02  0.00000E+00  9.000E+00
      21     1     1     2   511   502  8.310290300E+00  1.708049512E+01  4.360132770E+02  4.364268346E+02  5.394796609E-06  0.00000E+00  9.000E+00
#rwgt            1           1   2.6658476923515272E-002           6      190346           0
</event>
<event>
      5   9999  3.19816E-02  1.69003E+01 -1.00000E+00  1.72639E-01
      21    -1     0     0   502   501  0.000000000E+00  0.000000000E+00  5.104433632E+02  5.104433632E+02  0.000000000E+00  0.00000E+00  9.000E+00
      21    -1     0     0   512   502  0.000000000E+00  0.000000000E+00 -4.263543147E+02  4.263543147E+02  0.000000000E+00  0.00000E+00  9.000E+00
      25     1     1     2     0     0 -1.014660716E+02 -2.743828805E+02  1.583580239E+02  3.553640282E+02  1.250000000E+02  0.00000E+00  9.000E+00
      25     1     1     2     0     0  9.084097989E+01  2.612403226E+02  1.623507112E+02  3.442111898E+02  1.250000000E+02  0.00000E+00  9.000E+00
      21     1     1     2   512   501  1.062509175E+01  1.314255788E+01 -2.366196866E+02  2.372224599E+02  2.697398305E-06  0.00000E+00  9.000E+00
#rwgt            1           1   2.6582549871092032E-002           6      190494           0
</event>
<event>
      5   9999  3.19816E-02  4.35522E+02 -1.00000E+00  1.00586E-01
      21    -1     0     0   502   501  0.000000000E+00  0.000000000E+00  1.965846984E+03  1.965846984E+03  0.000000000E+00  0.00000E+00  9.000E+00
      21    -1     0     0   511   502  0.000000000E+00  0.000000000E+00 -4.288223375E+02  4.288223375E+02  0.000000000E+00  0.00000E+00  9.000E+00
      25     1     1     2     0     0 -3.348063954E+02 -2.974502711E+02  1.086822502E+03  1.182108344E+03  1.250000000E+02  0.00000E+00  9.000E+00
      25     1     1     2     0     0 -1.007087105E+02  2.999389042E+02  6.498114015E+02  7.334749131E+02  1.250000000E+02  0.00000E+00  9.000E+00
      21     1     1     2   511   501  4.355151059E+02 -2.488633095E+00 -1.996092576E+02  4.790860638E+02  6.031565972E-06  0.00000E+00  9.000E+00
#rwgt            1           1   2.8889826066662034E-002           6      190720           0
</event>
<event>
      5   9999  3.19816E-02  4.68910E+01 -1.00000E+00  1.40685E-01
      21    -1     0     0   512   501  0.000000000E+00  0.000000000E+00  1.260194947E+03  1.260194947E+03  0.000000000E+00  0.00000E+00  9.000E+00
      21    -1     0     0   501   502  0.000000000E+00  0.000000000E+00 -2.195649967E+02  2.195649967E+02  0.000000000E+00  0.00000E+00  9.000E+00
      25     1     1     2     0     0 -3.140396149E+02 -2.248336474E+02  8.470558801E+02  9.393081032E+02  1.250000000E+02  0.00000E+00  9.000E+00
      25     1     1     2     0     0  3.596391827E+02  2.357627272E+02  1.398801282E+02  4.691650621E+02  1.250000000E+02  0.00000E+00  9.000E+00
      21     1     1     2   512   502 -4.559956774E+01 -1.092907980E+01  5.369394238E+01  7.128677866E+01  6.743495762E-07  0.00000E+00  9.000E+00
#rwgt            1           1   2.7781554113900413E-002           6      190779           0
</event>
<event>
      5   9999  3.19816E-02  4.93580E+01 -1.00000E+00  1.39396E-01
      21    -1     0     0   502   501  0.000000000E+00  0.000000000E+00  2.823858743E+02  2.823858743E+02  0.000000000E+00  0.00000E+00  9.000E+00
      21    -1     0     0   501   511  0.000000000E+00  0.000000000E+00 -1.580559871E+03  1.580559871E+03  0.000000000E+00  0.00000E+00  9.000E+00
      25     1     1     2     0     0 -3.053982072E+02  3.736192920E+02 -9.265440028E+01  5.070199978E+02  1.250000000E+02  0.00000E+00  9.000E+00
      25     1     1     2     0     0  3.301579954E+02 -4.163178800E+02 -9.497196656E+02  1.095407377E+03  1.250000000E+02  0.00000E+00  9.000E+00
      21     1     1     2   502   511 -2.475978817E+01  4.269858797E+01 -2.557999305E+02  2.605183697E+02  2.697398305E-06  0.00000E+00  9.000E+00
#rwgt            2          11   2.2509283684359538E-003           6      190943           0
</event>
<event>
      5   9999  3.19816E-02  4.92804E+01 -1.00000E+00  1.39436E-01
      21    -1     0     0   502   501  0.000000000E+00  0.000000000E+00  8.749457944E+01  8.749457944E+01  0.000000000E+00  0.00000E+00  9.000E+00
      21    -1     0     0   512   502  0.000000000E+00  0.000000000E+00 -1.259930675E+03  1.259930675E+03  0.000000000E+00  0.00000E+00  9.000E+00
      25     1     1     2     0     0 -1.381624106E+02  5.500107359E+01 -5.476163645E+02  5.810530547E+02  1.250000000E+02  0.00000E+00  9.000E+00
      25     1     1     2     0     0  1.814908130E+02 -7.847889632E+01 -1.271175881E+02  2.662362364E+02  1.250000000E+02  0.00000E+00  9.000E+00
      21     1     1     2   512   501 -4.332840248E+01  2.347782273E+01 -4.977021430E+02  5.001359633E+02  0.000000000E+00  0.00000E+00  9.000E+00
#rwgt            1           1   2.8963269606542635E-002           6      190963           0
</event>
<event>
      5   9999  3.19816E-02  2.39200E+01 -1.00000E+00  1.60201E-01
      21    -1     0     0   502   501  0.000000000E+00  0.000000000E+00  8.788145708E+02  8.788145708E+02  0.000000000E+00  0.00000E+00  9.000E+00
      21    -1     0     0   501   511  0.000000000E+00  0.000000000E+00 -9.736281112E+02  9.736281112E+02  0.000000000E+00  0.00000E+00  9.000E+00
      25     1     1     2     0     0 -4.279115239E+01 -6.295668105E+02  6.065546946E+02  8.841487709E+02  1.250000000E+02  0.00000E+00  9.000E+00
      25     1     1     2     0     0  6.665057962E+01  6.278661692E+02 -6.747841138E+02  9.325324801E+02  1.250000000E+02  0.00000E+00  9.000E+00
      21     1     1     2   502   511 -2.385942722E+01  1.700641331E+00 -2.658412113E+01  3.576143096E+01  3.371747881E-07  0.00000E+00  9.000E+00
#rwgt            1           1   3.0530007103637163E-002           6      191046           0
</event>
<event>
      5   9999  3.19816E-02  8.28303E+01 -1.00000E+00  1.27623E-01
      21    -1     0     0   512   501  0.000000000E+00  0.000000000E+00  5.955206549E+02  5.955206549E+02  0.000000000E+00  0.00000E+00  9.000E+00
      21    -1     0     0   501   502  0.000000000E+00  0.000000000E+00 -3.212344615E+02  3.212344615E+02  0.000000000E+00  0.00000E+00  9.000E+00
      25     1     1     2     0     0  1.855300254E+02  1.621781076E+02 -1.210626661E+02  3.016691864E+02  1.250000000E+02  0.00000E+00  9.000E+00
      25     1     1     2     0     0 -2.504059641E+02 -2.136753496E+02  2.048732480E+02  4.073798591E+02  1.250000000E+02  0.00000E+00  9.000E+00
      21     1     1     2   512   502  6.487593864E+01  5.149724203E+01  1.904756114E+02  2.077060709E+02  2.697398305E-06  0.00000E+00  9.000E+00
#rwgt            1           1   2.8256330582939797E-002           6      191316           0
</event>
<event>
      5   9999  3.19816E-02  1.58177E+02 -1.00000E+00  1.15487E-01
      21    -1     0     0   511   501  0.000000000E+00  0.000000000E+00  7.341113013E+02  7.341113013E+02  0.000000000E+00  0.00000E+00  9.000E+00
      21    -1     0     0   501   502  0.000000000E+00  0.000000000E+00 -2.386428449E+02  2.386428449E+02  0.000000000E+00  0.00000E+00  9.000E+00
      25     1     1     2     0     0 -1.861140781E+02 -1.004515913E+02  2.209391104E+02  3.304059060E+02  1.250000000E+02  0.00000E+00  9.000E+00
      25     1     1     2     0     0  3.662936607E+01  4.873660603E+01 -1.408073265E+02  1.979107638E+02  1.250000000E+02  0.00000E+00  9.000E+00
      21     1     1     2   511   502  1.494847120E+02  5.171498528E+01  4.153366725E+02  4.444374763E+02  7.629394531E-06  0.00000E+00  9.000E+00
#rwgt            1           1   2.6701904855514220E-002           6      191392           0
</event>
<event>
      5   9999  3.19816E-02  8.29623E+01 -1.00000E+00  1.27590E-01
       1    -1     0     0   502     0  0.000000000E+00  0.000000000E+00  1.093210188E+03  1.093210188E+03  0.000000000E+00  0.00000E+00  9.000E+00
      21    -1     0     0   501   502  0.000000000E+00  0.000000000E+00 -3.191523040E+02  3.191523040E+02  0.000000000E+00  0.00000E+00  9.000E+00
      25     1     1     2     0     0  1.860428861E+02 -8.512625398E+01  2.465206562E+02  3.438835101E+02  1.250000000E+02  0.00000E+00  9.000E+00
      25     1     1     2     0     0 -1.197701727E+02  3.521955716E+01 -2.391442786E+02  2.973218752E+02  1.250000000E+02  0.00000E+00  9.000E+00
       1     1     1     2   501     0 -6.627271335E+01  4.990669681E+01  7.666815064E+02  7.711571066E+02  1.078959322E-05  0.00000E+00  9.000E+00
#rwgt            1           1   3.1382515219794349E-002           6      191451           0
</event>
<event>
      5   9999  3.19816E-02  5.40493E+02 -1.00000E+00  9.79006E-02
       2    -1     0     0   502     0  0.000000000E+00  0.000000000E+00  3.371386394E+03  3.371386394E+03  0.000000000E+00  0.00000E+00  9.000E+00
      21    -1     0     0   501   502  0.000000000E+00  0.000000000E+00 -1.952557506E+02  1.952557506E+02  0.000000000E+00  0.00000E+00  9.000E+00
      25     1     1     2     0     0 -5.918132737E+01 -1.818550064E+02  2.096591318E+02  3.100897038E+02  1.250000000E+02  0.00000E+00  9.000E+00
      25     1     1     2     0     0  4.179248133E+02 -2.224175676E+02  2.484774223E+03  2.532559705E+03  1.250000000E+02  0.00000E+00  9.000E+00
       2     1     1     2   501     0 -3.587434859E+02  4.042725740E+02  4.816972892E+02  7.239927356E+02  9.344061824E-06  0.00000E+00  9.000E+00
#rwgt            2          18   3.3172843706003488E-003           6      191567           0
</event>
<event>
      5   9999  3.19816E-02  7.66224E+00 -1.00000E+00  2.10151E-01
      21    -1     0     0   502   501  0.000000000E+00  0.000000000E+00  1.752375030E+02  1.752375030E+02  0.000000000E+00  0.00000E+00  9.000E+00
      21    -1     0     0   511   502  0.000000000E+00  0.000000000E+00 -1.543847467E+03  1.543847467E+03  0.000000000E+00  0.00000E+00  9.000E+00
      25     1     1     2     0     0 -5.643842342E+01  3.163508492E+02 -2.862685913E+02  4.481493744E+02  1.250000000E+02  0.00000E+00  9.000E+00
      25     1     1     2     0     0  5.961839481E+01 -3.093796431E+02 -2.103834262E+02  3.989439843E+02  1.250000000E+02  0.00000E+00  9.000E+00
      21     1     1     2   511   501 -3.179971391E+00 -6.971206053E+00 -8.719579460E+02  8.719916109E+02  1.078959322E-05  0.00000E+00  9.000E+00
#rwgt            1           1   3.2663796881308334E-002           6      191601           0
</event>
<event>
      5   9999  3.19816E-02  1.39242E+02 -1.00000E+00  1.17689E-01
      21    -1     0     0   502   501  0.000000000E+00  0.000000000E+00  2.417626581E+02  2.417626581E+02  0.000000000E+00  0.00000E+00  9.000E+00
      21    -1     0     0   501   512  0.000000000E+00  0.000000000E+00 -1.397827784E+03  1.397827784E+03  0.000000000E+00  0.00000E+00  9.000E+00
      25     1     1     2     0     0 -1.577134311E+02  3.344411738E+02 -6.383905867E+01  3.955058160E+02  1.250000000E+02  0.00000E+00  9.000E+00
      25     1     1     2     0     0  3.532324336E+01 -4.008403201E+02 -6.044327178E+02  7.368070331E+02  1.250000000E+02  0.00000E+00  9.000E+00
      21     1     1     2   502   512  1.223901877E+02  6.639914627E+01 -4.877933493E+02  5.072775929E+02  7.629394531E-06  0.00000E+00  9.000E+00
#rwgt            2          11   2.5107066996932670E-003           6      191991           0
</event>
<event>
      5   9999  3.19816E-02  1.07803E+02 -1.00000E+00  1.22378E-01
      21    -1     0     0   502   501  0.000000000E+00  0.000000000E+00  5.367689667E+02  5.367689667E+02  0.000000000E+00  0.00000E+00  9.000E+00
      21    -1     0     0   501   511  0.000000000E+00  0.000000000E+00 -8.876570446E+02  8.876570446E+02  0.000000000E+00  0.00000E+00  9.000E+00
      25     1     1     2     0     0 -5.444510117E+02  1.281299595E+02  2.185967027E+02  6.133952308E+02  1.250000000E+02  0.00000E+00  9.000E+00
      25     1     1     2     0     0  4.407683336E+02 -9.860919292E+01 -4.810998321E+02  6.716267902E+02  1.250000000E+02  0.00000E+00  9.000E+00
      21     1     1     2   502   511  1.036826781E+02 -2.952076663E+01 -8.838494846E+01  1.394039903E+02  9.536743164E-07  0.00000E+00  9.000E+00
#rwgt            2          11   6.0978069034915497E-003           6      192041           0
</event>
<event>
      5   9999  3.19816E-02  9.51411E+01 -1.00000E+00  1.24809E-01
      21    -1     0     0   502   512  0.000000000E+00  0.000000000E+00  5.350075230E+02  5.350075230E+02  0.000000000E+00  0.00000E+00  9.000E+00
      21    -1     0     0   501   502  0.000000000E+00  0.000000000E+00 -8.277635625E+02  8.277635625E+02  0.000000000E+00  0.00000E+00  9.000E+00
      25     1     1     2     0     0  1.981689386E+02 -1.994713915E+02 -5.720784829E+02  6.495833702E+02  1.250000000E+02  0.00000E+00  9.000E+00
      25     1     1     2     0     0 -2.370540626E+02  2.863033231E+02 -2.635695849E+01  3.930444131E+02  1.250000000E+02  0.00000E+00  9.000E+00
      21     1     1     2   501   512  3.888512403E+01 -8.683193157E+01  3.056794019E+02  3.201433022E+02  3.814697266E-06  0.00000E+00  9.000E+00
#rwgt            1           1   2.8001101010173120E-002           6      192061           0
</event>
<event>
      5   9999  3.19816E-02  2.79055E+02 -1.00000E+00  1.06623E-01
      21    -1     0     0   502   501  0.000000000E+00  0.000000000E+00  1.094647873E+02  1.094647873E+02  0.000000000E+00  0.00000E+00  9.000E+00
      -2    -1     0     0     0   502  0.000000000E+00  0.000000000E+00 -1.531031440E+03  1.531031440E+03  0.000000000E+00  0.00000E+00  9.000E+00
      25     1     1     2     0     0 -7.586531556E+01  2.951250737E+02 -4.769365211E+02  5.796100416E+02  1.250000000E+02  0.00000E+00  9.000E+00
      25     1     1     2     0     0 -2.335512200E+01 -3.430574944E+01 -8.416983786E+01  1.563070944E+02  1.250000000E+02  0.00000E+00  9.000E+00
      -2     1     1     2     0   501  9.922043756E+01 -2.608193243E+02 -8.604602937E+02  9.045790912E+02  1.525878906E-05  0.00000E+00  9.000E+00
#rwgt            1           1   2.6777139391717081E-002           6      192131           0
</event>
<event>
      5   9999  3.19816E-02  4.50438E+02 -1.00000E+00  1.00157E-01
      21    -1     0     0   511   501  0.000000000E+00  0.000000000E+00  4.504611982E+02  4.504611982E+02  0.000000000E+00  0.00000E+00  9.000E+00
      21    -1     0     0   501   502  0.000000000E+00  0.000000000E+00 -1.078004880E+03  1.078004880E+03  0.000000000E+00  0.00000E+00  9.000E+00
      25     1     1     2     0     0  6.536192622E+01 -5.269742217E+01 -4.363287499E+02  4.615809547E+02  1.250000000E+02  0.00000E+00  9.000E+00
      25     1     1     2     0     0 -4.713394127E+02 -1.424359287E+02 -3.175161125E+02  5.990745508E+02  1.250000000E+02  0.00000E+00  9.000E+00
      21     1     1     2   511   502  4.059774865E+02  1.951333509E+02  1.263011803E+02  4.678105731E+02  5.223489356E-06  0.00000E+00  9.000E+00
#rwgt            1           1   3.4218406700000627E-002           6      192162           0
</event>
<event>
      5   9999  3.19816E-02  1.63558E+02 -1.00000E+00  1.14923E-01
      21    -1     0     0   502   512  0.000000000E+00  0.000000000E+00  1.270817906E+03  1.270817906E+03  0.000000000E+00  0.00000E+00  9.000E+00
      21    -1     0     0   501   502  0.000000000E+00  0.000000000E+00 -1.994341347E+03  1.994341347E+03  0.000000000E+00  0.00000E+00  9.000E+00
      25     1     1     2     0     0 -3.573283239E+02 -1.213868731E+03  5.379221175E+02  1.380632475E+03  1.250000000E+02  0.00000E+00  9.000E+00
      25     1     1     2     0     0  2.202164670E+02  1.124696653E+03 -1.276791884E+03  1.720250089E+03  1.250000000E+02  0.00000E+00  9.000E+00
      21     1     1     2   501   512  1.371118569E+02  8.917207722E+01  1.534632588E+01  1.642766885E+02  1.776178411E-06  0.00000E+00  9.000E+00
#rwgt            1           1   5.0677206530807810E-002           6      192237           0
</event>
<event>
      5   9999  3.19816E-02  4.80350E+01 -1.00000E+00  1.40076E-01
      21    -1     0     0   511   501  0.000000000E+00  0.000000000E+00  1.150537466E+03  1.150537466E+03  0.000000000E+00  0.00000E+00  9.000E+00
      21    -1     0     0   501   502  0.000000000E+00  0.000000000E+00 -9.261331471E+01  9.261331471E+01  0.000000000E+00  0.00000E+00  9.000E+00
      25     1     1     2     0     0  1.525958310E+01  9.531499199E+01 -9.853825629E+00  1.582400090E+02  1.250000000E+02  0.00000E+00  9.000E+00
      25     1     1     2     0     0 -4.369777539E+01 -5.660279562E+01  7.983006884E+02  8.111857747E+02  1.250000000E+02  0.00000E+00  9.000E+00
      21     1     1     2   511   502  2.843819230E+01 -3.871219636E+01  2.694772885E+02  2.737249969E+02  3.814697266E-06  0.00000E+00  9.000E+00
#rwgt            2          11   1.4846504813605108E-003           6      192361           0
</event>
<event>
      5   9999  3.19816E-02  2.89114E+02 -1.00000E+00  1.06116E-01
      21    -1     0     0   502   512  0.000000000E+00  0.000000000E+00  4.474471554E+02  4.474471554E+02  0.000000000E+00  0.00000E+00  9.000E+00
      21    -1     0     0   501   502  0.000000000E+00  0.000000000E+00 -1.140272811E+03  1.140272811E+03  0.000000000E+00  0.00000E+00  9.000E+00
      25     1     1     2     0     0  4.218987184E+01  2.346546158E+02  1.323606287E+01  2.695235933E+02  1.250000000E+02  0.00000E+00  9.000E+00
      25     1     1     2     0     0 -3.258420412E+02 -2.905851271E+02 -8.732097982E+02  9.842424009E+02  1.250000000E+02  0.00000E+00  9.000E+00
      21     1     1     2   501   512  2.836521694E+02  5.593051130E+01  1.671480795E+02  3.339539725E+02  3.814697266E-06  0.00000E+00  9.000E+00
#rwgt            1           1   2.5402928032630043E-002           6      192381           0
</event>
<event>
      5   9999  3.19816E-02  1.20687E+02 -1.00000E+00  1.20263E-01
      21    -1     0     0   502   511  0.000000000E+00  0.000000000E+00  4.723298585E+02  4.723298585E+02  0.000000000E+00  0.00000E+00  9.000E+00
      21    -1     0     0   501   502  0.000000000E+00  0.000000000E+00 -5.813117082E+02  5.813117082E+02  0.000000000E+00  0.00000E+00  9.000E+00
      25     1     1     2     0     0  3.920891431E+02 -4.940240034E+01  1.080051390E+02  4.283276822E+02  1.250000000E+02  0.00000E+00  9.000E+00
      25     1     1     2     0     0 -3.944490536E+02 -7.126155729E+01 -2.637990328E+02  4.958661061E+02  1.250000000E+02  0.00000E+00  9.000E+00
      21     1     1     2   501   511  2.359910472E+00  1.206639576E+02  4.681204407E+01  1.294477783E+02  6.743495762E-07  0.00000E+00  9.000E+00
#rwgt            1           1   3.0232145966244003E-002           6      192472           0
</event>
<event>
      5   9999  3.19816E-02  6.36915E+00 -1.00000E+00  2.21519E-01
      21    -1     0     0   502   512  0.000000000E+00  0.000000000E+00  1.565239622E+02  1.565239622E+02  0.000000000E+00  0.00000E+00  9.000E+00
      21    -1     0     0   501   502  0.000000000E+00  0.000000000E+00 -4.517499732E+02  4.517499732E+02  0.000000000E+00  0.00000E+00  9.000E+00
      25     1     1     2     0     0 -1.094896081E+02 -1.139503503E+02 -3.358626033E+02  3.916648375E+02  1.250000000E+02  0.00000E+00  9.000E+00
      25     1     1     2     0     0  1.156573331E+02  1.155394627E+02  3.647527882E+01  2.090010337E+02  1.250000000E+02  0.00000E+00  9.000E+00
      21     1     1     2   501   512 -6.167725000E+00 -1.589112325E+00  4.161313493E+00  7.608064119E+00  1.460009660E-07  0.00000E+00  9.000E+00
#rwgt            1           1   3.2084374076105329E-002           6      192553           0
</event>
<event>
      5   9999  3.19816E-02  9.65958E+01 -1.00000E+00  1.24508E-01
      21    -1     0     0   502   511  0.000000000E+00  0.000000000E+00  1.115950891E+03  1.115950891E+03  0.000000000E+00  0.00000E+00  9.000E+00
      21    -1     0     0   501   502  0.000000000E+00  0.000000000E+00 -4.699127386E+02  4.699127386E+02  0.000000000E+00  0.00000E+00  9.000E+00
      25     1     1     2     0     0  4.187897273E+01 -3.779353492E+02 -2.752870737E+02  4.857951724E+02  1.250000000E+02  0.00000E+00  9.000E+00
      25     1     1     2     0     0  4.678052484E+00  4.625710320E+02  6.197183817E+02  7.833707401E+02  1.250000000E+02  0.00000E+00  9.000E+00
      21     1     1     2   501   511 -4.655702521E+01 -8.463568280E+01  3.016068443E+02  3.166977170E+02  3.814697266E-06  0.00000E+00  9.000E+00
#rwgt            1           1   2.9358370065795770E-002           6      192823           0
</event>
<event>
      5   9999  3.19816E-02  5.90210E+01 -1.00000E+00  1.35086E-01
      21    -1     0     0   512   501  0.000000000E+00  0.000000000E+00  1.031469692E+03  1.031469692E+03  0.000000000E+00  0.00000E+00  9.000E+00
      21    -1     0     0   501   502  0.000000000E+00  0.000000000E+00 -5.456911772E+01  5.456911772E+01  0.000000000E+00  0.00000E+00  9.000E+00
      25     1     1     2     0     0  8.715194720E+01  1.004324591E+02  3.144232342E+02  3.635506993E+02  1.250000000E+02  0.00000E+00  9.000E+00
      25     1     1     2     0     0 -1.279303902E+02 -1.431009319E+02  5.376174536E+02  5.843813719E+02  1.250000000E+02  0.00000E+00  9.000E+00
      21     1     1     2   512   502  4.077844302E+01  4.266847279E+01  1.248598869E+02  1.381067390E+02  1.348699152E-06  0.00000E+00  9.000E+00
#rwgt            1           1   2.6071329384894811E-002           6      192956           0
</event>
<event>
      5   9999  3.19816E-02  2.98935E+01 -1.00000E+00  1.53147E-01
      21    -1     0     0   511   501  0.000000000E+00  0.000000000E+00  5.497025142E+02  5.497025142E+02  0.000000000E+00  0.00000E+00  9.000E+00
      21    -1     0     0   501   502  0.000000000E+00  0.000000000E+00 -1.360794468E+02  1.360794468E+02  0.000000000E+00  0.00000E+00  9.000E+00
      25     1     1     2     0     0 -1.677848603E+02 -9.235306387E+01  1.236690861E+02  2.599997896E+02  1.250000000E+02  0.00000E+00  9.000E+00
      25     1     1     2     0     0  1.423667043E+02  1.080863872E+02  1.117336051E+02  2.450721202E+02  1.250000000E+02  0.00000E+00  9.000E+00
      21     1     1     2   511   502  2.541815594E+01 -1.573332332E+01  1.782203762E+02  1.807100512E+02  3.303624740E-06  0.00000E+00  9.000E+00
#rwgt            1           1   2.9113281824581803E-002           6      193008           0
</event>
<event>
      5   9999  3.19816E-02  2.60065E+01 -1.00000E+00  1.57477E-01
      21    -1     0     0   502   501  0.000000000E+00  0.000000000E+00  1.525257690E+02  1.525257690E+02  0.000000000E+00  0.00000E+00  9.000E+00
      21    -1     0     0   512   502  0.000000000E+00  0.000000000E+00 -2.478950493E+02  2.478950493E+02  0.000000000E+00  0.00000E+00  9.000E+00
      25     1     1     2     0     0  5.759661916E+01  2.456207680E+01 -1.520163634E+02  2.065300000E+02  1.250000000E+02  0.00000E+00  9.000E+00
      25     1     1     2     0     0 -7.516154805E+01 -4.374053496E+01  6.639182102E+01  1.661185318E+02  1.250000000E+02  0.00000E+00  9.000E+00
      21     1     1     2   512   501  1.756492889E+01  1.917845816E+01 -9.744737890E+00  2.777228656E+01  5.717076687E-07  0.00000E+00  9.000E+00
#rwgt            1           1   2.7536147322984490E-002           6      193143           0
</event>
<event>
      5   9999  3.19816E-02  3.38699E+01 -1.00000E+00  1.49468E-01
      21    -1     0     0   511   501  0.000000000E+00  0.000000000E+00  1.206523211E+03  1.206523211E+03  0.000000000E+00  0.00000E+00  9.000E+00
      21    -1     0     0   501   502  0.000000000E+00  0.000000000E+00 -2.409675131E+02  2.409675131E+02  0.000000000E+00  0.00000E+00  9.000E+00
      25     1     1     2     0     0  3.228918866E+02 -2.300327139E+02  6.411420367E+01  4.206065275E+02  1.250000000E+02  0.00000E+00  9.000E+00
      25     1     1     2     0     0 -3.342673636E+02  2.619352405E+02  7.431498731E+02  8.650095227E+02  1.250000000E+02  0.00000E+00  9.000E+00
      21     1     1     2   511   502  1.137547700E+01 -3.190252662E+01  1.582916215E+02  1.618746742E+02  2.697398305E-06  0.00000E+00  9.000E+00
#rwgt            1           1   2.9942444130316603E-002           6      193277           0
</event>
<event>
      5   9999  3.19816E-02  9.34312E+01 -1.00000E+00  1.25170E-01
      21    -1     0     0   512   501  0.000000000E+00  0.000000000E+00  7.051076456E+02  7.051076456E+02  0.000000000E+00  0.00000E+00  9.000E+00
      21    -1     0     0   501   502  0.000000000E+00  0.000000000E+00 -9.589624941E+01  9.589624941E+01  0.000000000E+00  0.00000E+00  9.000E+00
      25     1     1     2     0     0 -1.584027636E+01 -1.957502362E+02  2.117138936E+02  3.146694171E+02  1.250000000E+02  0.00000E+00  9.000E+00
      25     1     1     2     0     0  6.782071604E+01  1.181137552E+02  2.363583039E+02  3.000679198E+02  1.250000000E+02  0.00000E+00  9.000E+00
      21     1     1     2   512   502 -5.198043968E+01  7.763648105E+01  1.611391987E+02  1.862665581E+02  0.000000000E+00  0.00000E+00  9.000E+00
#rwgt            1           1   2.7411690224809517E-002           6      193564           0
</event>
<event>
      5   9999  3.19816E-02  2.07400E+01 -1.00000E+00  1.65078E-01
      21    -1     0     0   502   501  0.000000000E+00  0.000000000E+00  3.000593955E+02  3.000593955E+02  0.000000000E+00  0.00000E+00  9.000E+00
      21    -1     0     0   511   502  0.000000000E+00  0.000000000E+00 -2.665157665E+03  2.665157665E+03  0.000000000E+00  0.00000E+00  9.000E+00
      25     1     1     2     0     0 -3.944946221E+02 -2.043704242E+02 -9.354027948E+01  4.709225637E+02  1.250000000E+02  0.00000E+00  9.000E+00
      25     1     1     2     0     0  3.860883056E+02  1.854104587E+02 -3.357751237E+02  5.584005297E+02  1.250000000E+02  0.00000E+00  9.000E+00
      21     1     1     2   511   501  8.406316506E+00  1.895996552E+01 -1.935782867E+03  1.935893967E+03  3.051757812E-05  0.00000E+00  9.000E+00
#rwgt            1           1   2.8110012009253095E-002           6      193647           0
</event>
<event>
      5   9999  3.19816E-02  1.22957E+02 -1.00000E+00  1.19921E-01
       2    -1     0     0   502     0  0.000000000E+00  0.000000000E+00  2.063780339E+03  2.063780339E+03  0.000000000E+00  0.00000E+00  9.000E+00
      21    -1     0     0   501   502  0.000000000E+00  0.000000000E+00 -9.578184888E+02  9.578184888E+02  0.000000000E+00  0.00000E+00  9.000E+00
      25     1     1     2     0     0 -3.753812879E+02 -9.851510184E+01 -7.903956006E+02  8.893629979E+02  1.250000000E+02  0.00000E+00  9.000E+00
      25     1     1     2     0     0  4.230706506E+02  2.118470197E+02  4.033667596E+02  6.341905691E+02  1.250000000E+02  0.00000E+00  9.000E+00
       2     1     1     2   501     0 -4.768936272E+01 -1.133319179E+02  1.492990691E+03  1.498045261E+03  2.157918644E-05  0.00000E+00  9.000E+00
#rwgt            2          18   5.2305526085392471E-003           6      194033           0
</event>
<event>
      5   9999  3.19816E-02  1.08183E+02 -1.00000E+00  1.22311E-01
      21    -1     0     0   502   501  0.000000000E+00  0.000000000E+00  2.940177052E+03  2.940177052E+03  0.000000000E+00  0.00000E+00  9.000E+00
      21    -1     0     0   511   502  0.000000000E+00  0.000000000E+00 -9.456961073E+01  9.456961073E+01  0.000000000E+00  0.00000E+00  9.000E+00
      25     1     1     2     0     0 -1.053129887E+02 -6.254339104E+01  2.719631793E+03  2.725256794E+03  1.250000000E+02  0.00000E+00  9.000E+00
      25     1     1     2     0     0  1.122076024E+02 -4.541941153E+01  8.658437969E+01  1.943587502E+02  1.250000000E+02  0.00000E+00  9.000E+00
      21     1     1     2   511   501 -6.894613753E+00  1.079628026E+02  3.939126812E+01  1.151311185E+02  1.168007728E-06  0.00000E+00  9.000E+00
#rwgt            1           1   5.4676144668414625E-002           6      194097           0
</event>
<event>
      5   9999  3.19816E-02  1.28958E+02 -1.00000E+00  1.19056E-01
       1    -1     0     0   502     0  0.000000000E+00  0.000000000E+00  1.440231714E+03  1.440231714E+03  0.000000000E+00  0.00000E+00  9.000E+00
      21    -1     0     0   501   502  0.000000000E+00  0.000000000E+00 -1.305529426E+02  1.305529426E+02  0.000000000E+00  0.00000E+00  9.000E+00
      25     1     1     2     0     0  1.612822412E+02 -2.353715014E+02  2.442955979E+02  3.958750360E+02  1.250000000E+02  0.00000E+00  9.000E+00
      25     1     1     2     0     0 -2.413678941E+02  1.342956632E+02  4.273349218E+02  5.239598466E+02  1.250000000E+02  0.00000E+00  9.000E+00
       1     1     1     2   501     0  8.008565287E+01  1.010758382E+02  6.380482514E+02  6.509497738E+02  0.000000000E+00  0.00000E+00  9.000E+00
#rwgt            1           1   2.6590526374911206E-002           6      194161           0
</event>
<event>
      5   9999  3.19816E-02  2.92343E+01 -1.00000E+00  1.53824E-01
      21    -1     0     0   502   501  0.000000000E+00  0.000000000E+00  3.272143713E+02  3.272143713E+02  0.000000000E+00  0.00000E+00  9.000E+00
      21    -1     0     0   511   502  0.000000000E+00  0.000000000E+00 -5.084998609E+02  5.084998609E+02  0.000000000E+00  0.00000E+00  9.000E+00
      25     1     1     2     0     0 -7.943535129E+01 -2.737427509E+02  1.576216436E+02  3.488762692E+02  1.250000000E+02  0.00000E+00  9.000E+00
      25     1     1     2     0     0  9.732480280E+01  2.506210504E+02 -2.333477347E+02  3.773051728E+02  1.250000000E+02  0.00000E+00  9.000E+00
      21     1     1     2   511   501 -1.788945151E+01  2.312170053E+01 -1.055593984E+02  1.095327901E+02  0.000000000E+00  0.00000E+00  9.000E+00
#rwgt            1           1   3.0134920078437710E-002           6      194194           0
</event>
<event>
      5   9999  3.19816E-02  4.25355E+01 -1.00000E+00  1.43204E-01
      21    -1     0     0   502   512  0.000000000E+00  0.000000000E+00  1.282052828E+03  1.282052828E+03  0.000000000E+00  0.00000E+00  9.000E+00
      21    -1     0     0   501   502  0.000000000E+00  0.000000000E+00 -5.993090225E+02  5.993090225E+02  0.000000000E+00  0.00000E+00  9.000E+00
      25     1     1     2     0     0  7.031205374E+01 -4.483672008E+02  1.015411094E+03  1.119223669E+03  1.250000000E+02  0.00000E+00  9.000E+00
      25     1     1     2     0     0 -3.500907568E+01  4.246402003E+02 -4.531058792E+02  6.344090738E+02  1.250000000E+02  0.00000E+00  9.000E+00
      21     1     1     2   501   512 -3.530297806E+01  2.372700046E+01  1.204385912E+02  1.277291081E+02  2.336015456E-06  0.00000E+00  9.000E+00
#rwgt            1           1   3.1078257484808858E-002           6      194310           0
</event>
<event>
      5   9999  3.19816E-02  1.04265E+02 -1.00000E+00  1.23018E-01
      21    -1     0     0   502   501  0.000000000E+00  0.000000000E+00  1.264904365E+03  1.264904365E+03  0.000000000E+00  0.00000E+00  9.000E+00
      21    -1     0     0   501   511  0.000000000E+00  0.000000000E+00 -2.892196477E+02  2.892196477E+02  0.000000000E+00  0.00000E+00  9.000E+00
      25     1     1     2     0     0 -2.000621612E+02  3.548950208E+02  5.496503532E+02  6.954968403E+02  1.250000000E+02  0.00000E+00  9.000E+00
      25     1     1     2     0     0  9.904053725E+01 -3.290915473E+02  5.722033813E+02  6.790817212E+02  1.250000000E+02  0.00000E+00  9.000E+00
      21     1     1     2   502   511  1.010216240E+02 -2.580347352E+01 -1.461690168E+02  1.795454517E+02  1.907348633E-06  0.00000E+00  9.000E+00
#rwgt            1           1   2.5528111811712401E-002           6      194446           0
</event>
<event>
      5   9999  3.19816E-02  1.08646E+02 -1.00000E+00  1.22229E-01
       2    -1     0     0   502     0  0.000000000E+00  0.000000000E+00  1.771570294E+03  1.771570294E+03  0.000000000E+00  0.00000E+00  9.000E+00
      21    -1     0     0   501   502  0.000000000E+00  0.000000000E+00 -1.530005334E+02  1.530005334E+02  0.000000000E+00  0.00000E+00  9.000E+00
      25     1     1     2     0     0  2.762246026E+02 -1.626973733E+00  6.704416181E+02  7.358122324E+02  1.250000000E+02  0.00000E+00  9.000E+00
      25     1     1     2     0     0 -1.944136262E+02  7.311820100E+01  1.026537363E+03  1.054773382E+03  1.250000000E+02  0.00000E+00  9.000E+00
       2     1     1     2   501     0 -8.181097634E+01 -7.149122726E+01 -7.840922059E+01  1.339852130E+02  3.303624740E-06  0.00000E+00  9.000E+00
#rwgt            1           1   3.2524481734684647E-002           6      194515           0
</event>
<event>
      5   9999  3.19816E-02  9.48948E+01 -1.00000E+00  1.24860E-01
      21    -1     0     0   502   511  0.000000000E+00  0.000000000E+00  7.735649846E+02  7.735649846E+02  0.000000000E+00  0.00000E+00  9.000E+00
      21    -1     0     0   501   502  0.000000000E+00  0.000000000E+00 -7.555056739E+02  7.555056739E+02  0.000000000E+00  0.00000E+00  9.000E+00
      25     1     1     2     0     0 -1.360809282E+02  4.941657344E+02 -5.128548021E+02  7.357736337E+02  1.250000000E+02  0.00000E+00  9.000E+00
      25     1     1     2     0     0  1.082306622E+02 -4.034497772E+02  2.632853515E+02  5.093424931E+02  1.250000000E+02  0.00000E+00  9.000E+00
      21     1     1     2   501   511  2.785026595E+01 -9.071595723E+01  2.676287613E+02  2.839545317E+02  0.000000000E+00  0.00000E+00  9.000E+00
#rwgt            1           1   3.0958573506656210E-002           6      194605           0
</event>
<event>
      5   9999  3.19816E-02  1.41844E+01 -1.00000E+00  1.79702E-01
      21    -1     0     0   502   501  0.000000000E+00  0.000000000E+00  1.399398520E+02  1.399398520E+02  0.000000000E+00  0.00000E+00  9.000E+00
       2    -1     0     0   501     0  0.000000000E+00  0.000000000E+00 -4.278702058E+02  4.278702058E+02  0.000000000E+00  0.00000E+00  9.000E+00
      25     1     1     2     0     0 -2.303138662E+01  1.654862857E+02 -7.387870902E+01  2.213576725E+02  1.250000000E+02  0.00000E+00  9.000E+00
      25     1     1     2     0     0  9.692104605E+00 -1.606632324E+02 -9.203044497E+01  2.236095122E+02  1.250000000E+02  0.00000E+00  9.000E+00
       2     1     1     2   502     0  1.333928202E+01 -4.823053352E+00 -1.220211998E+02  1.228428732E+02  1.348699152E-06  0.00000E+00  9.000E+00
#rwgt            1           1   2.7643547816783614E-002           6      194667           0
</event>
<event>
      5   9999  3.19816E-02  1.24465E+01 -1.00000E+00  1.85375E-01
      21    -1     0     0   502   511  0.000000000E+00  0.000000000E+00  1.144078582E+02  1.144078582E+02  0.000000000E+00  0.00000E+00  9.000E+00
      21    -1     0     0   501   502  0.000000000E+00  0.000000000E+00 -1.731656854E+03  1.731656854E+03  0.000000000E+00  0.00000E+00  9.000E+00
      25     1     1     2     0     0  1.457647719E+02 -2.687050278E+02 -1.366860280E+03  1.406194078E+03  1.250000000E+02  0.00000E+00  9.000E+00
      25     1     1     2     0     0 -1.469561431E+02  2.810944079E+02 -2.558723421E+02  4.262696677E+02  1.250000000E+02  0.00000E+00  9.000E+00
      21     1     1     2   501   511  1.191371229E+00 -1.238938005E+01  5.483626820E+00  1.360096565E+01  5.022376641E-07  0.00000E+00  9.000E+00
#rwgt            1           1   2.9344999783107971E-002           6      194863           0
</event>
<event>
      5   9999  3.19816E-02  9.11191E+01 -1.00000E+00  1.25672E-01
      21    -1     0     0   502   512  0.000000000E+00  0.000000000E+00  1.274946078E+02  1.274946078E+02  0.000000000E+00  0.00000E+00  9.000E+00
      21    -1     0     0   501   502  0.000000000E+00  0.000000000E+00 -5.021029420E+02  5.021029420E+02  0.000000000E+00  0.00000E+00  9.000E+00
      25     1     1     2     0     0  1.266167074E+02  9.638218212E+01 -2.202072792E+02  2.990611333E+02  1.250000000E+02  0.00000E+00  9.000E+00
      25     1     1     2     0     0 -5.120144870E+01 -1.475215235E+02 -1.192462227E+02  2.328708867E+02  1.250000000E+02  0.00000E+00  9.000E+00
      21     1     1     2   501   512 -7.541525874E+01  5.113934137E+01 -3.515483227E+01  9.766552984E+01  1.348699152E-06  0.00000E+00  9.000E+00
#rwgt            1           1   2.4842455793534987E-002           6      195166           0
</event>
<event>
      5   9999  3.19816E-02  2.38113E+02 -1.00000E+00  1.08958E-01
      21    -1     0     0   502   511  0.000000000E+00  0.000000000E+00  1.038079248E+03  1.038079248E+03  0.000000000E+00  0.00000E+00  9.000E+00
      21    -1     0     0   501   502  0.000000000E+00  0.000000000E+00 -2.647551411E+02  2.647551411E+02  0.000000000E+00  0.00000E+00  9.000E+00
      25     1     1     2     0     0 -9.967041519E+01  6.804811437E+00 -1.602738678E+02  2.264800429E+02  1.250000000E+02  0.00000E+00  9.000E+00
      25     1     1     2     0     0  1.327386352E+02  2.290008388E+02  5.856701390E+02  6.547483800E+02  1.250000000E+02  0.00000E+00  9.000E+00
      21     1     1     2   501   511 -3.306822004E+01 -2.358056502E+02  3.479278355E+02  4.216059660E+02  0.000000000E+00  0.00000E+00  9.000E+00
#rwgt            1           1   2.6151397432943018E-002           6      195221           0
</event>
<event>
      5   9999  3.19816E-02  4.18790E+01 -1.00000E+00  1.43614E-01
      21    -1     0     0   502   512  0.000000000E+00  0.000000000E+00  6.408735061E+02  6.408735061E+02  0.000000000E+00  0.00000E+00  9.000E+00
      21    -1     0     0   501   502  0.000000000E+00  0.000000000E+00 -7.820624446E+01  7.820624446E+01  0.000000000E+00  0.00000E+00  9.000E+00
      25     1     1     2     0     0  8.298226918E+01 -8.141250560E+01  3.100281510E+02  3.539159610E+02  1.250000000E+02  0.00000E+00  9.000E+00
      25     1     1     2     0     0 -1.088922922E+02  4.851083029E+01  8.526339154E+01  1.926283413E+02  1.250000000E+02  0.00000E+00  9.000E+00
      21     1     1     2   501   512  2.591002300E+01  3.290167531E+01  1.673757191E+02  1.725354481E+02  0.000000000E+00  0.00000E+00  9.000E+00
#rwgt            1           1   2.8450721122212013E-002           6      195261           0
</event>
<event>
      5   9999  3.19816E-02  1.76406E+02 -1.00000E+00  1.13669E-01
      21    -1     0     0   502   501  0.000000000E+00  0.000000000E+00  2.157202674E+02  2.157202674E+02  0.000000000E+00  0.00000E+00  9.000E+00
      21    -1     0     0   501   511  0.000000000E+00  0.000000000E+00 -9.638349456E+02  9.638349456E+02  0.000000000E+00  0.00000E+00  9.000E+00
      25     1     1     2     0     0  2.070119513E+02  5.950916848E+01 -4.402622155E+02  5.058172669E+02  1.250000000E+02  0.00000E+00  9.000E+00
      25     1     1     2     0     0 -2.935604942E+02 -2.132241509E+02 -9.136844800E+01  3.944812994E+02  1.250000000E+02  0.00000E+00  9.000E+00
      21     1     1     2   502   511  8.654854290E+01  1.537149824E+02 -2.164840148E+02  2.792566467E+02  0.000000000E+00  0.00000E+00  9.000E+00
#rwgt            2          11   3.4888942083472077E-003           6      195528           0
</event>
<event>
      5   9999  3.19816E-02  1.00352E+02 -1.00000E+00  1.23759E-01
      21    -1     0     0   502   501  0.000000000E+00  0.000000000E+00  5.303735797E+02  5.303735797E+02  0.000000000E+00  0.00000E+00  9.000E+00
      21    -1     0     0   512   502  0.000000000E+00  0.000000000E+00 -2.565255444E+02  2.565255444E+02  0.000000000E+00  0.00000E+00  9.000E+00
      25     1     1     2     0     0  1.981853418E+02 -7.466094145E+01  2.734184410E+02  3.677422056E+02  1.250000000E+02  0.00000E+00  9.000E+00
      25     1     1     2     0     0 -1.122686785E+02  1.265155861E+02  1.360173965E+02  2.504719183E+02  1.250000000E+02  0.00000E+00  9.000E+00
      21     1     1     2   512   501 -8.591666324E+01 -5.185464460E+01 -1.355878023E+02  1.686850003E+02  2.697398305E-06  0.00000E+00  9.000E+00
#rwgt            1           1   2.7672132414201089E-002           6      195563           0
</event>
<event>
      5   9999  3.19816E-02  3.45494E+01 -1.00000E+00  1.48899E-01
      21    -1     0     0   502   501  0.000000000E+00  0.000000000E+00  1.503648563E+03  1.503648563E+03  0.000000000E+00  0.00000E+00  9.000E+00
      21    -1     0     0   501   511  0.000000000E+00  0.000000000E+00 -1.923437869E+02  1.923437869E+02  0.000000000E+00  0.00000E+00  9.000E+00
      25     1     1     2     0     0  3.850156330E+02  3.037207378E+02  4.042495484E+02  6.477082843E+02  1.250000000E+02  0.00000E+00  9.000E+00
      25     1     1     2     0     0 -3.512735972E+02 -2.962955094E+02  8.907692446E+02  1.010088618E+03  1.250000000E+02  0.00000E+00  9.000E+00
      21     1     1     2   502   511 -3.374203574E+01 -7.425228386E+00  1.628598340E+01  3.819544800E+01  5.840038640E-07  0.00000E+00  9.000E+00
#rwgt            1           1   3.1376293602537943E-002           6      195635           0
</event>
<event>
      5   9999  3.19816E-02  1.42305E+02 -1.00000E+00  1.17307E-01
       2    -1     0     0   502     0  0.000000000E+00  0.000000000E+00  2.769503519E+03  2.769503519E+03  0.000000000E+00  0.00000E+00  9.000E+00
      21    -1     0     0   501   502  0.000000000E+00  0.000000000E+00 -1.011134050E+03  1.011134050E+03  0.000000000E+00  0.00000E+00  9.000E+00
      25     1     1     2     0     0  2.985939104E+02 -1.740041995E+02 -6.830084657E+02  7.756038608E+02  1.250000000E+02  0.00000E+00  9.000E+00
      25     1     1     2     0     0 -3.681178926E+02  4.983805284E+01 -1.426461235E+02  4.170941512E+02  1.250000000E+02  0.00000E+00  9.000E+00
       2     1     1     2   501     0  6.952398222E+01  1.241661467E+02  2.584024058E+03  2.587939557E+03  3.051757812E-05  0.00000E+00  9.000E+00
#rwgt            1           1   2.7319362608902824E-002           6      195796           0
</event>
<event>
      5   9999  3.19816E-02  2.45803E+02 -1.00000E+00  1.08482E-01
      21    -1     0     0   502   511  0.000000000E+00  0.000000000E+00  2.742504253E+02  2.742504253E+02  0.000000000E+00  0.00000E+00  9.000E+00
      21    -1     0     0   501   502  0.000000000E+00  0.000000000E+00 -9.176252618E+02  9.176252618E+02  0.000000000E+00  0.00000E+00  9.000E+00
      25     1     1     2     0     0  1.247482721E+02 -1.960145287E+02 -1.181280264E+02  2.890727546E+02  1.250000000E+02  0.00000E+00  9.000E+00
      25     1     1     2     0     0  8.646658195E+01  3.217418096E+02 -5.507274792E+02  6.556828640E+02  1.250000000E+02  0.00000E+00  9.000E+00
      21     1     1     2   501   511 -2.112148541E+02 -1.257272809E+02  2.548066909E+01  2.471200684E+02  2.185142372E-06  0.00000E+00  9.000E+00
#rwgt            2          11   3.9463703548756317E-003           6      196006           0
</event>
<event>
      5   9999  3.19816E-02  3.43826E+01 -1.00000E+00  1.49037E-01
      21    -1     0     0   512   501  0.000000000E+00  0.000000000E+00  1.529603532E+03  1.529603532E+03  0.000000000E+00  0.00000E+00  9.000E+00
      21    -1     0     0   501   502  0.000000000E+00  0.000000000E+00 -2.414731033E+01  2.414731033E+01  0.000000000E+00  0.00000E+00  9.000E+00
      25     1     1     2     0     0 -8.946739358E+01  5.972797569E+01  3.883844539E+02  4.219470697E+02  1.250000000E+02  0.00000E+00  9.000E+00
      25     1     1     2     0     0  7.084511093E+01 -3.082510725E+01  9.412113937E+02  9.526138277E+02  1.250000000E+02  0.00000E+00  9.000E+00
      21     1     1     2   512   502  1.862228265E+01 -2.890286845E+01  1.758603739E+02  1.791899448E+02  2.697398305E-06  0.00000E+00  9.000E+00
#rwgt            1           1   3.3909491924472658E-002           6      196026           0
</event>
<event>
      5   9999  3.23617E-02  1.69454E+01 -1.00000E+00  1.72535E-01
      21    -1     0     0   502   511  0.000000000E+00  0.000000000E+00  1.559505971E+02  1.559505971E+02  0.000000000E+00  0.00000E+00  9.000E+00
      21    -1     0     0   501   502  0.000000000E+00  0.000000000E+00 -2.540488259E+03  2.540488259E+03  0.000000000E+00  0.00000E+00  9.000E+00
      25     1     1     2     0     0  6.007414685E+01  4.662257842E+02 -6.056566801E+02  7.768013898E+02  1.250000000E+02  0.00000E+00  9.000E+00
      25     1     1     2     0     0 -7.096855019E+01 -4.532466386E+02 -1.816859423E+03  1.878050110E+03  1.250000000E+02  0.00000E+00  9.000E+00
      21     1     1     2   501   511  1.089440334E+01 -1.297914564E+01  3.797844131E+01  4.158735685E+01  1.168007728E-06  0.00000E+00  9.000E+00
#rwgt            1           1   9.6454556844527931E-002           6      196161           0
</event>
<event>
      5   9999  3.19816E-02  7.20461E+01 -1.00000E+00  1.30590E-01
      21    -1     0     0   502   501  0.000000000E+00  0.000000000E+00  2.119955772E+02  2.119955772E+02  0.000000000E+00  0.00000E+00  9.000E+00
      21    -1     0     0   512   502  0.000000000E+00  0.000000000E+00 -9.415658347E+02  9.415658347E+02  0.000000000E+00  0.00000E+00  9.000E+00
      25     1     1     2     0     0  2.982785427E+01  1.424307277E+02 -3.695936657E+02  4.164140857E+02  1.250000000E+02  0.00000E+00  9.000E+00
      25     1     1     2     0     0 -1.843619445E+01 -7.129097297E+01  1.578157381E+02  2.143667495E+02  1.250000000E+02  0.00000E+00  9.000E+00
      21     1     1     2   512   501 -1.139165983E+01 -7.113975469E+01 -5.177923299E+02  5.227805768E+02  7.629394531E-06  0.00000E+00  9.000E+00
#rwgt            1           1   2.6400295118612169E-002           6      196339           0
</event>
<event>
      5   9999  3.19816E-02  4.12547E+01 -1.00000E+00  1.44013E-01
      21    -1     0     0   502   511  0.000000000E+00  0.000000000E+00  1.048291143E+03  1.048291143E+03  0.000000000E+00  0.00000E+00  9.000E+00
      21    -1     0     0   501   502  0.000000000E+00  0.000000000E+00 -7.452958789E+02  7.452958789E+02  0.000000000E+00  0.00000E+00  9.000E+00
      25     1     1     2     0     0  8.267297144E+02  6.661996662E+01 -1.860087112E+01  8.389822602E+02  1.250000000E+02  0.00000E+00  9.000E+00
      25     1     1     2     0     0 -8.221459747E+02 -1.076192720E+02  2.553210516E+02  8.765385050E+02  1.250000000E+02  0.00000E+00  9.000E+00
      21     1     1     2   501   511 -4.583739679E+00  4.099930536E+01  6.627508359E+01  7.806625657E+01  1.651812370E-06  0.00000E+00  9.000E+00
#rwgt            2          11   1.8628794102181916E-002           6      196426           0
</event>
<event>
      5   9999  3.19816E-02  2.39281E+02 -1.00000E+00  1.08885E-01
      21    -1     0     0   502   512  0.000000000E+00  0.000000000E+00  1.594585843E+03  1.594585843E+03  0.000000000E+00  0.00000E+00  9.000E+00
      21    -1     0     0   501   502  0.000000000E+00  0.000000000E+00 -5.486314593E+02  5.486314593E+02  0.000000000E+00  0.00000E+00  9.000E+00
      25     1     1     2     0     0 -3.963998032E+02  7.479779849E+02  2.123101472E+02  8.816487217E+02  1.250000000E+02  0.00000E+00  9.000E+00
      25     1     1     2     0     0  4.626749135E+02 -5.180581310E+02  6.561344014E+02  9.636335691E+02  1.250000000E+02  0.00000E+00  9.000E+00
      21     1     1     2   501   512 -6.627511031E+01 -2.299198539E+02  1.775098349E+02  2.979350112E+02  2.697398305E-06  0.00000E+00  9.000E+00
#rwgt            1           1   3.0525642933674747E-002           6      196446           0
</event>
<event>
      5   9999  3.19816E-02  7.05587E+01 -1.00000E+00  1.31046E-01
      21    -1     0     0   502   511  0.000000000E+00  0.000000000E+00  8.037167229E+02  8.037167229E+02  0.000000000E+00  0.00000E+00  9.000E+00
      21    -1     0     0   501   502  0.000000000E+00  0.000000000E+00 -5.005854822E+02  5.005854822E+02  0.000000000E+00  0.00000E+00  9.000E+00
      25     1     1     2     0     0  1.791861531E+02 -2.369458744E+02  6.113400744E+02  6.910952984E+02  1.250000000E+02  0.00000E+00  9.000E+00
      25     1     1     2     0     0 -1.090379018E+02  2.445452390E+02 -4.000758987E+02  4.973704481E+02  1.250000000E+02  0.00000E+00  9.000E+00
      21     1     1     2   501   511 -7.014825131E+01 -7.599364580E+00  9.186706501E+01  1.158364586E+02  0.000000000E+00  0.00000E+00  9.000E+00
#rwgt            1           1   2.9811174410537992E-002           6      196519           0
</event>
<event>
      5   9999  3.19816E-02  3.13408E+01 -1.00000E+00  1.51733E-01
      21    -1     0     0   502   501  0.000000000E+00  0.000000000E+00  1.838305376E+03  1.838305376E+03  0.000000000E+00  0.00000E+00  9.000E+00
      21    -1     0     0   512   502  0.000000000E+00  0.000000000E+00 -7.375516461E+01  7.375516461E+01  0.000000000E+00  0.00000E+00  9.000E+00
      25     1     1     2     0     0 -2.311525597E+02 -1.143309986E+02  8.429260518E+02  8.903102897E+02  1.250000000E+02  0.00000E+00  9.000E+00
      25     1     1     2     0     0  2.238071653E+02  8.386311528E+01  9.449452362E+02  9.826846741E+02  1.250000000E+02  0.00000E+00  9.000E+00
      21     1     1     2   512   501  7.345394408E+00  3.046788329E+01 -2.332107617E+01  3.906557724E+01  9.536743164E-07  0.00000E+00  9.000E+00
#rwgt            1           1   2.0887602859703844E-002           6      196597           0
</event>
<event>
      5   9999  3.19816E-02  3.13292E+02 -1.00000E+00  1.04984E-01
       2    -1     0     0   502     0  0.000000000E+00  0.000000000E+00  1.706246762E+03  1.706246762E+03  0.000000000E+00  0.00000E+00  9.000E+00
      21    -1     0     0   501   502  0.000000000E+00  0.000000000E+00 -4.423493016E+02  4.423493016E+02  0.000000000E+00  0.00000E+00  9.000E+00
      25     1     1     2     0     0  2.956258377E+02  5.811817795E+02  2.422508437E+02  7.067371279E+02  1.250000000E+02  0.00000E+00  9.000E+00
      25     1     1     2     0     0 -2.514064714E-01 -6.856130649E+02  7.815635572E+02  1.047154206E+03  1.250000000E+02  0.00000E+00  9.000E+00
       2     1     1     2   501     0 -2.953744312E+02  1.044312855E+02  2.400830598E+02  3.947047297E+02  9.344061824E-06  0.00000E+00  9.000E+00
#rwgt            2          18   9.1018545402853470E-004           6      196725           0
</event>
<event>
      5   9999  3.19816E-02  4.04259E+02 -1.00000E+00  1.01547E-01
      21    -1     0     0   502   501  0.000000000E+00  0.000000000E+00  1.273962526E+02  1.273962526E+02  0.000000000E+00  0.00000E+00  9.000E+00
      21    -1     0     0   501   511  0.000000000E+00  0.000000000E+00 -2.372575251E+03  2.372575251E+03  0.000000000E+00  0.00000E+00  9.000E+00
      25     1     1     2     0     0  3.376114886E+02  2.940124590E+01 -7.777475999E+02  8.575326698E+02  1.250000000E+02  0.00000E+00  9.000E+00
      25     1     1     2     0     0 -8.656387156E+00  2.055745025E+02 -2.028597980E+02  3.148220239E+02  1.250000000E+02  0.00000E+00  9.000E+00
      21     1     1     2   502   511 -3.289551014E+02 -2.349757484E+02 -1.264571601E+03  1.327616810E+03  3.051757812E-05  0.00000E+00  9.000E+00
#rwgt            1           1   2.8078285541332543E-002           6      196744           0
</event>
<event>
      5   9999  3.19816E-02  2.33860E+01 -1.00000E+00  1.60953E-01
      21    -1     0     0   502   501  0.000000000E+00  0.000000000E+00  7.259524442E+02  7.259524442E+02  0.000000000E+00  0.00000E+00  9.000E+00
      21    -1     0     0   501   512  0.000000000E+00  0.000000000E+00 -5.404382870E+02  5.404382870E+02  0.000000000E+00  0.00000E+00  9.000E+00
      25     1     1     2     0     0  1.185191542E+02 -2.734723808E+02 -3.785093993E+02  4.977231141E+02  1.250000000E+02  0.00000E+00  9.000E+00
      25     1     1     2     0     0 -1.415819796E+02  2.695978645E+02  6.233354781E+02  7.049117559E+02  1.250000000E+02  0.00000E+00  9.000E+00
      21     1     1     2   502   512  2.306282543E+01  3.874516323E+00 -5.931192154E+01  6.375586114E+01  6.743495762E-07  0.00000E+00  9.000E+00
#rwgt            1           1   3.1413108313447277E-002           6      196804           0
</event>
<event>
      5   9999  3.19816E-02  4.76302E+01 -1.00000E+00  1.40289E-01
      21    -1     0     0   502   501  0.000000000E+00  0.000000000E+00  4.789269001E+02  4.789269001E+02  0.000000000E+00  0.00000E+00  9.000E+00
      21    -1     0     0   511   502  0.000000000E+00  0.000000000E+00 -2.819387181E+02  2.819387181E+02  0.000000000E+00  0.00000E+00  9.000E+00
      25     1     1     2     0     0  2.759335530E+02  1.714959057E+02  7.139698920E+01  3.553487040E+02  1.250000000E+02  0.00000E+00  9.000E+00
      25     1     1     2     0     0 -2.283040337E+02 -1.717441610E+02  1.563283954E+02  3.488299813E+02  1.250000000E+02  0.00000E+00  9.000E+00
      21     1     1     2   511   501 -4.762951932E+01  2.482552221E-01 -3.073720259E+01  5.668693293E+01  1.305872339E-06  0.00000E+00  9.000E+00
#rwgt            1           1   3.0104330586543753E-002           6      197040           0
</event>
<event>
      5   9999  3.19816E-02  3.66358E+01 -1.00000E+00  1.47247E-01
      21    -1     0     0   502   501  0.000000000E+00  0.000000000E+00  1.988334391E+02  1.988334391E+02  0.000000000E+00  0.00000E+00  9.000E+00
      21    -1     0     0   512   502  0.000000000E+00  0.000000000E+00 -6.884018851E+02  6.884018851E+02  0.000000000E+00  0.00000E+00  9.000E+00
      25     1     1     2     0     0  1.214447978E+02 -2.438682061E+02 -4.095912163E+02  5.075534507E+02  1.250000000E+02  0.00000E+00  9.000E+00
      25     1     1     2     0     0 -9.112896773E+01  2.232979607E+02  2.081085886E+01  2.724418468E+02  1.250000000E+02  0.00000E+00  9.000E+00
      21     1     1     2   512   501 -3.031583008E+01  2.057024541E+01 -1.007880886E+02  1.072400268E+02  2.336015456E-06  0.00000E+00  9.000E+00
#rwgt            1           1   2.7811935814946891E-002           6      197163           0
</event>
<event>
      5   9999  3.19816E-02  4.01751E+00 -1.00000E+00  2.63024E-01
      21    -1     0     0   502   501  0.000000000E+00  0.000000000E+00  3.757827991E+02  3.757827991E+02  0.000000000E+00  0.00000E+00  9.000E+00
      21    -1     0     0   501   511  0.000000000E+00  0.000000000E+00 -2.469992730E+02  2.469992730E+02  0.000000000E+00  0.00000E+00  9.000E+00
      25     1     1     2     0     0  1.774337212E+01 -1.692324043E+02  1.634345090E+02  2.670023832E+02  1.250000000E+02  0.00000E+00  9.000E+00
      25     1     1     2     0     0 -2.108000083E+01  1.714701110E+02  8.971832695E+01  2.313455069E+02  1.250000000E+02  0.00000E+00  9.000E+00
      21     1     1     2   502   511  3.336628703E+00 -2.237706698E+00 -1.243693098E+02  1.244341820E+02  1.348699152E-06  0.00000E+00  9.000E+00
#rwgt            1           1   3.0120229134164917E-002           6      197246           0
</event>
<event>
      5   9999  3.19816E-02  1.10252E+02 -1.00000E+00  1.21951E-01
      21    -1     0     0   502   501  0.000000000E+00  0.000000000E+00  1.117345479E+03  1.117345479E+03  0.000000000E+00  0.00000E+00  9.000E+00
      21    -1     0     0   501   512  0.000000000E+00  0.000000000E+00 -1.852928800E+02  1.852928800E+02  0.000000000E+00  0.00000E+00  9.000E+00
      25     1     1     2     0     0  3.185846254E+02 -7.730776430E+01  2.674499150E+02  4.411656276E+02  1.250000000E+02  0.00000E+00  9.000E+00
      25     1     1     2     0     0 -2.486816633E+02  1.625667745E+02  6.776970770E+02  7.504457702E+02  1.250000000E+02  0.00000E+00  9.000E+00
      21     1     1     2   502   512 -6.990296217E+01 -8.525901017E+01 -1.309439316E+01  1.110269610E+02  1.517286546E-06  0.00000E+00  9.000E+00
#rwgt            2          11   3.4881572443399762E-003           6      197659           0
</event>
<event>
      5   9999  3.19816E-02  1.29376E+02 -1.00000E+00  1.18998E-01
      21    -1     0     0   502   501  0.000000000E+00  0.000000000E+00  4.835158613E+02  4.835158613E+02  0.000000000E+00  0.00000E+00  9.000E+00
       2    -1     0     0   501     0  0.000000000E+00  0.000000000E+00 -5.058987054E+02  5.058987054E+02  0.000000000E+00  0.00000E+00  9.000E+00
      25     1     1     2     0     0  4.482396055E+01  6.842074587E+01 -5.341201331E+01  1.586456084E+02  1.250000000E+02  0.00000E+00  9.000E+00
      25     1     1     2     0     0 -1.447483691E+02 -1.505992171E+02  3.840994707E+02  4.547412648E+02  1.250000000E+02  0.00000E+00  9.000E+00
       2     1     1     2   502     0  9.992440855E+01  8.217847122E+01 -3.530703014E+02  3.760276935E+02  5.394796609E-06  0.00000E+00  9.000E+00
#rwgt            1           1   2.7520450441869435E-002           6      197679           0
</event>
<event>
      5   9999  3.19816E-02  4.31993E+01 -1.00000E+00  1.42798E-01
       2    -1     0     0   502     0  0.000000000E+00  0.000000000E+00  5.280204057E+03  5.280204057E+03  0.000000000E+00  0.00000E+00  9.000E+00
      21    -1     0     0   501   502  0.000000000E+00  0.000000000E+00 -1.585948176E+02  1.585948176E+02  0.000000000E+00  0.00000E+00  9.000E+00
      25     1     1     2     0     0 -2.049131551E+01 -4.656574432E+02  2.885572658E+02  5.622695475E+02  1.250000000E+02  0.00000E+00  9.000E+00
      25     1     1     2     0     0  6.279314272E+01  4.744173255E+02  2.822257911E+03  2.865271277E+03  1.250000000E+02  0.00000E+00  9.000E+00
       2     1     1     2   501     0 -4.230182721E+01 -8.759882320E+00  2.010794063E+03  2.011258050E+03  2.157918644E-05  0.00000E+00  9.000E+00
#rwgt            1           1   5.2149067534096011E-002           6      197754           0
</event>
<event>
      5   9999  3.19816E-02  7.15017E+01 -1.00000E+00  1.30756E-01
       1    -1     0     0   502     0  0.000000000E+00  0.000000000E+00  1.500833037E+03  1.500833037E+03  0.000000000E+00  0.00000E+00  9.000E+00
      21    -1     0     0   501   502  0.000000000E+00  0.000000000E+00 -5.728078482E+02  5.728078482E+02  0.000000000E+00  0.00000E+00  9.000E+00
      25     1     1     2     0     0  1.617394876E+02 -4.898403178E+01 -5.402351412E+02  5.796879376E+02  1.250000000E+02  0.00000E+00  9.000E+00
      25     1     1     2     0     0 -9.332712456E+01  2.819354504E+01  5.358951316E+02  5.588500874E+02  1.250000000E+02  0.00000E+00  9.000E+00
       1     1     1     2   501     0 -6.841236302E+01  2.079048673E+01  9.323651987E+02  9.351028603E+02  1.525878906E-05  0.00000E+00  9.000E+00
#rwgt            1           1   3.3717092451095311E-002           6      197972           0
</event>
<event>
      5   9999  3.19816E-02  1.22445E+02 -1.00000E+00  1.19998E-01
      21    -1     0     0   502   511  0.000000000E+00  0.000000000E+00  3.584252818E+02  3.584252818E+02  0.000000000E+00  0.00000E+00  9.000E+00
      21    -1     0     0   501   502  0.000000000E+00  0.000000000E+00 -4.449130944E+02  4.449130944E+02  0.000000000E+00  0.00000E+00  9.000E+00
      25     1     1     2     0     0 -2.151180148E+02 -6.469794936E+01  1.414204736E+02  2.934047295E+02  1.250000000E+02  0.00000E+00  9.000E+00
      25     1     1     2     0     0  2.891691842E+02 -3.281705575E+01 -2.230519259E+02  3.873924856E+02  1.250000000E+02  0.00000E+00  9.000E+00
      21     1     1     2   501   511 -7.405116943E+01  9.751500511E+01 -4.856360216E+00  1.225411610E+02  1.718227304E-06  0.00000E+00  9.000E+00
#rwgt            1           1   2.7829042972756013E-002           6      198108           0
</event>
<event>
      5   9999  3.19816E-02  1.37572E+01 -1.00000E+00  1.80997E-01
      21    -1     0     0   502   501  0.000000000E+00  0.000000000E+00  4.322038519E+01  4.322038519E+01  0.000000000E+00  0.00000E+00  9.000E+00
      21    -1     0     0   512   502  0.000000000E+00  0.000000000E+00 -8.666104153E+02  8.666104153E+02  0.000000000E+00  0.00000E+00  9.000E+00
      25     1     1     2     0     0 -2.024943028E+01 -1.344062488E+02 -3.472617194E+02  3.933074890E+02  1.250000000E+02  0.00000E+00  9.000E+00
      25     1     1     2     0     0  7.018662429E+00  1.381756076E+02 -4.455980289E+02  4.830366068E+02  1.250000000E+02  0.00000E+00  9.000E+00
      21     1     1     2   512   501  1.323076785E+01 -3.769358733E+00 -3.053028180E+01  3.348670467E+01  4.768371582E-07  0.00000E+00  9.000E+00
#rwgt            1           1   2.9456658432588337E-002           6      198214           0
</event>
<event>
      5   9999  3.19816E-02  1.00783E+02 -1.00000E+00  1.23676E-01
       2    -1     0     0   502     0  0.000000000E+00  0.000000000E+00  1.613212607E+03  1.613212607E+03  0.000000000E+00  0.00000E+00  9.000E+00
      21    -1     0     0   501   502  0.000000000E+00  0.000000000E+00 -5.514125197E+01  5.514125197E+01  0.000000000E+00  0.00000E+00  9.000E+00
      25     1     1     2     0     0  2.210912554E+02 -9.995782618E+01  9.091839972E+02  9.492699569E+02  1.250000000E+02  0.00000E+00  9.000E+00
      25     1     1     2     0     0 -1.391023168E+02  4.134921482E+01  5.281774845E+02  5.618324191E+02  1.250000000E+02  0.00000E+00  9.000E+00
       2     1     1     2   501     0 -8.198893865E+01  5.860861136E+01  1.207098736E+02  1.572514832E+02  0.000000000E+00  0.00000E+00  9.000E+00
#rwgt            1           1   2.8420707594415093E-002           6      198354           0
</event>
<event>
      5   9999  3.19816E-02  2.50754E+02 -1.00000E+00  1.08186E-01
       1    -1     0     0   502     0  0.000000000E+00  0.000000000E+00  1.185366055E+03  1.185366055E+03  0.000000000E+00  0.00000E+00  9.000E+00
      21    -1     0     0   501   502  0.000000000E+00  0.000000000E+00 -3.496637602E+02  3.496637602E+02  0.000000000E+00  0.00000E+00  9.000E+00
      25     1     1     2     0     0 -1.503863762E+01  1.569233376E+02 -2.214097062E+02  2.991627525E+02  1.250000000E+02  0.00000E+00  9.000E+00
      25     1     1     2     0     0 -2.320057758E+02 -1.139481490E+02  2.191642152E+02  3.612046704E+02  1.250000000E+02  0.00000E+00  9.000E+00
       1     1     1     2   501     0  2.470444134E+02 -4.297518852E+01  8.379477857E+02  8.746623923E+02  1.525878906E-05  0.00000E+00  9.000E+00
#rwgt            1           1   2.6590022262059518E-002           6      198463           0
</event>
<event>
      5   9999  3.19816E-02  5.78794E+01 -1.00000E+00  1.35544E-01
      21    -1     0     0   502   501  0.000000000E+00  0.000000000E+00  1.092207766E+02  1.092207766E+02  0.000000000E+00  0.00000E+00  9.000E+00
      21    -1     0     0   501   511  0.000000000E+00  0.000000000E+00 -9.366488579E+02  9.366488579E+02  0.000000000E+00  0.00000E+00  9.000E+00
      25     1     1     2     0     0 -1.308872256E+02 -1.442379921E+02 -7.061409654E+01  2.419657307E+02  1.250000000E+02  0.00000E+00  9.000E+00
      25     1     1     2     0     0  1.480502966E+02  8.896178861E+01 -5.924636160E+02  6.296596116E+02  1.250000000E+02  0.00000E+00  9.000E+00
      21     1     1     2   502   511 -1.716307097E+01  5.527620345E+01 -1.643503688E+02  1.742442923E+02  2.697398305E-06  0.00000E+00  9.000E+00
#rwgt            1           1   2.9035592403714446E-002           6      198504           0
</event>
<event>
      5   9999  3.19816E-02  1.97517E+01 -1.00000E+00  1.66818E-01
      21    -1     0     0   502   501  0.000000000E+00  0.000000000E+00  1.451857171E+02  1.451857171E+02  0.000000000E+00  0.00000E+00  9.000E+00
      21    -1     0     0   512   502  0.000000000E+00  0.000000000E+00 -1.624889841E+03  1.624889841E+03  0.000000000E+00  0.00000E+00  9.000E+00
      25     1     1     2     0     0 -9.874134372E+01 -2.008992460E+02 -2.129284643E+00  2.563979209E+02  1.250000000E+02  0.00000E+00  9.000E+00
      25     1     1     2     0     0  7.976905450E+01  2.063930561E+02 -8.848153165E+02  9.205891265E+02  1.250000000E+02  0.00000E+00  9.000E+00
      21     1     1     2   512   501  1.897228922E+01 -5.493810099E+00 -5.927595231E+02  5.930885110E+02  1.078959322E-05  0.00000E+00  9.000E+00
#rwgt            1           1   2.9184645579485493E-002           6      198580           0
</event>
<event>
      5   9999  3.19816E-02  3.44558E+01 -1.00000E+00  1.48977E-01
      21    -1     0     0   502   501  0.000000000E+00  0.000000000E+00  5.203020687E+02  5.203020687E+02  0.000000000E+00  0.00000E+00  9.000E+00
       1    -1     0     0   501     0  0.000000000E+00  0.000000000E+00 -2.906954527E+03  2.906954527E+03  0.000000000E+00  0.00000E+00  9.000E+00
      25     1     1     2     0     0 -2.756913326E+02 -1.697699460E+02  6.502546343E+01  3.531017649E+02  1.250000000E+02  0.00000E+00  9.000E+00
      25     1     1     2     0     0  2.537900055E+02  1.431704112E+02  2.303473782E+02  3.919082140E+02  1.250000000E+02  0.00000E+00  9.000E+00
       1     1     1     2   502     0  2.190132711E+01  2.659953480E+01 -2.682025300E+03  2.682246617E+03  0.000000000E+00  0.00000E+00  9.000E+00
#rwgt            1           1   2.7084710668605533E-002           6      198775           0
</event>
<event>
      5   9999  3.19816E-02  1.01374E+02 -1.00000E+00  1.23562E-01
      21    -1     0     0   502   511  0.000000000E+00  0.000000000E+00  6.436698811E+02  6.436698811E+02  0.000000000E+00  0.00000E+00  9.000E+00
      21    -1     0     0   501   502  0.000000000E+00  0.000000000E+00 -4.064973772E+02  4.064973772E+02  0.000000000E+00  0.00000E+00  9.000E+00
      25     1     1     2     0     0  4.148917070E+02 -9.278500365E+01  6.797559172E+01  4.483189340E+02  1.250000000E+02  0.00000E+00  9.000E+00
      25     1     1     2     0     0 -4.159247713E+02  1.941535855E+02  1.300713398E+02  4.931861551E+02  1.250000000E+02  0.00000E+00  9.000E+00
      21     1     1     2   501   511  1.033064243E+00 -1.013685818E+02  3.912557234E+01  1.086621692E+02  6.743495762E-07  0.00000E+00  9.000E+00
#rwgt            1           1   2.9629899384132810E-002           6      198891           0
</event>
<event>
      5   9999  3.19816E-02  1.35934E+02 -1.00000E+00  1.18114E-01
      21    -1     0     0   502   501  0.000000000E+00  0.000000000E+00  3.045329444E+02  3.045329444E+02  0.000000000E+00  0.00000E+00  9.000E+00
      21    -1     0     0   501   512  0.000000000E+00  0.000000000E+00 -6.793285803E+02  6.793285803E+02  0.000000000E+00  0.00000E+00  9.000E+00
      25     1     1     2     0     0  2.563054118E+02 -1.289976740E+02 -2.524987314E+02  4.021361379E+02  1.250000000E+02  0.00000E+00  9.000E+00
      25     1     1     2     0     0 -2.613573360E+02  2.648375040E+02  9.158304209E+00  3.926263302E+02  1.250000000E+02  0.00000E+00  9.000E+00
      21     1     1     2   502   512  5.051924196E+00 -1.358398300E+02 -1.314552087E+02  1.890990567E+02  3.814697266E-06  0.00000E+00  9.000E+00
#rwgt            1           1   2.8232442707291975E-002           6      198977           0
</event>
<event>
      5   9999  3.19816E-02  1.02914E+02 -1.00000E+00  1.23269E-01
      21    -1     0     0   502   501  0.000000000E+00  0.000000000E+00  8.807284690E+02  8.807284690E+02  0.000000000E+00  0.00000E+00  9.000E+00
      21    -1     0     0   511   502  0.000000000E+00  0.000000000E+00 -4.611993591E+02  4.611993591E+02  0.000000000E+00  0.00000E+00  9.000E+00
      25     1     1     2     0     0  1.319727070E+02 -4.164232950E+02  3.835942333E+02  5.946382866E+02  1.250000000E+02  0.00000E+00  9.000E+00
      25     1     1     2     0     0 -2.288750463E+02  4.510814328E+02  1.962587388E+02  5.567770993E+02  1.250000000E+02  0.00000E+00  9.000E+00
      21     1     1     2   511   501  9.690233922E+01 -3.465813772E+01 -1.603238622E+02  1.905124422E+02  1.907348633E-06  0.00000E+00  9.000E+00
#rwgt            1           1   3.4956783628594848E-002           6      199033           0
</event>
<event>
      5   9999  3.19816E-02  2.01953E+01 -1.00000E+00  1.66022E-01
      21    -1     0     0   502   501  0.000000000E+00  0.000000000E+00  1.134552340E+03  1.134552340E+03  0.000000000E+00  0.00000E+00  9.000E+00
      21    -1     0     0   501   512  0.000000000E+00  0.000000000E+00 -1.726290210E+02  1.726290210E+02  0.000000000E+00  0.00000E+00  9.000E+00
      25     1     1     2     0     0 -2.680936245E+02 -2.760737533E+02  2.852478422E+02  4.950578150E+02  1.250000000E+02  0.00000E+00  9.000E+00
      25     1     1     2     0     0  2.484299831E+02  2.806771011E+02  6.845891893E+02  7.904330773E+02  1.250000000E+02  0.00000E+00  9.000E+00
      21     1     1     2   502   512  1.966364136E+01 -4.603347792E+00 -7.913712241E+00  2.169046897E+01  5.778884718E-07  0.00000E+00  9.000E+00
#rwgt            1           1   2.8107568020090398E-002           6      199123           0
</event>
<event>
      5   9999  3.19816E-02  1.25026E+02 -1.00000E+00  1.19617E-01
      21    -1     0     0   511   501  0.000000000E+00  0.000000000E+00  2.993031905E+02  2.993031905E+02  0.000000000E+00  0.00000E+00  9.000E+00
      21    -1     0     0   501   502  0.000000000E+00  0.000000000E+00 -7.647777595E+02  7.647777595E+02  0.000000000E+00  0.00000E+00  9.000E+00
      25     1     1     2     0     0  2.390948710E+02  2.370483544E+01 -4.507887665E+02  5.258933243E+02  1.250000000E+02  0.00000E+00  9.000E+00
      25     1     1     2     0     0 -1.223616495E+02  2.107121690E+01 -2.296863266E+02  2.894774224E+02  1.250000000E+02  0.00000E+00  9.000E+00
      21     1     1     2   511   502 -1.167332215E+02 -4.477605234E+01  2.150005241E+02  2.487102033E+02  2.697398305E-06  0.00000E+00  9.000E+00
#rwgt            1           1   2.7037830722629858E-002           6      199308           0
</event>
<event>
      5   9999  3.19816E-02  5.85478E+01 -1.00000E+00  1.35274E-01
      21    -1     0     0   502   501  0.000000000E+00  0.000000000E+00  2.948827862E+02  2.948827862E+02  0.000000000E+00  0.00000E+00  9.000E+00
      21    -1     0     0   512   502  0.000000000E+00  0.000000000E+00 -1.484428588E+03  1.484428588E+03  0.000000000E+00  0.00000E+00  9.000E+00
      25     1     1     2     0     0 -6.789871948E+01  3.886535089E+02 -1.072638056E+03  1.149712653E+03  1.250000000E+02  0.00000E+00  9.000E+00
      25     1     1     2     0     0  1.024497464E+02 -3.413874879E+02  1.114847660E+02  3.938213053E+02  1.250000000E+02  0.00000E+00  9.000E+00
      21     1     1     2   512   501 -3.455102693E+01 -4.726602103E+01 -2.283925118E+02  2.357774155E+02  2.697398305E-06  0.00000E+00  9.000E+00
#rwgt            1           1   2.6135424512127178E-002           6      199381           0
</event>
<event>
      5   9999  3.19816E-02  1.38642E+02 -1.00000E+00  1.17765E-01
      21    -1     0     0   502   501  0.000000000E+00  0.000000000E+00  6.087554798E+02  6.087554798E+02  0.000000000E+00  0.00000E+00  9.000E+00
       2    -1     0     0   501     0  0.000000000E+00  0.000000000E+00 -9.069100341E+02  9.069100341E+02  0.000000000E+00  0.00000E+00  9.000E+00
      25     1     1     2     0     0 -1.242349983E+02  7.543614893E+01  3.153431133E+02  3.690409550E+02  1.250000000E+02  0.00000E+00  9.000E+00
      25     1     1     2     0     0  7.306305325E+01 -2.042888571E+02  2.005795521E+02  3.208259709E+02  1.250000000E+02  0.00000E+00  9.000E+00
       2     1     1     2   502     0  5.117194504E+01  1.288527082E+02 -8.140772197E+02  8.257985881E+02  1.078959322E-05  0.00000E+00  9.000E+00
#rwgt            1           1   2.6839704198656420E-002           6      199525           0
</event>
<event>
      5   9999  3.19816E-02  8.20539E+01 -1.00000E+00  1.27819E-01
      21    -1     0     0   502   501  0.000000000E+00  0.000000000E+00  1.329178560E+03  1.329178560E+03  0.000000000E+00  0.00000E+00  9.000E+00
      21    -1     0     0   511   502  0.000000000E+00  0.000000000E+00 -6.873708209E+02  6.873708209E+02  0.000000000E+00  0.00000E+00  9.000E+00
      25     1     1     2     0     0 -8.932641477E+01 -6.329973669E+02 -5.890494569E+01  6.540333841E+02  1.250000000E+02  0.00000E+00  9.000E+00
      25     1     1     2     0     0  1.217839288E+02  7.083588306E+02  8.931987547E+02  1.153270382E+03  1.250000000E+02  0.00000E+00  9.000E+00
      21     1     1     2   511   501 -3.245751402E+01 -7.536146376E+01 -1.924860698E+02  2.092456152E+02  2.697398305E-06  0.00000E+00  9.000E+00
#rwgt            1           1   3.1879301061674671E-002           6      199627           0
</event>
<event>
      5   9999  3.19816E-02  7.73574E+01 -1.00000E+00  1.29060E-01
      21    -1     0     0   502   501  0.000000000E+00  0.000000000E+00  2.652027637E+03  2.652027637E+03  0.000000000E+00  0.00000E+00  9.000E+00
      21    -1     0     0   501   512  0.000000000E+00  0.000000000E+00 -3.441429520E+01  3.441429520E+01  0.000000000E+00  0.00000E+00  9.000E+00
      25     1     1     2     0     0 -1.173818435E+02  1.308113648E+02  5.361397181E+02  5.778935089E+02  1.250000000E+02  0.00000E+00  9.000E+00
      25     1     1     2     0     0  5.861173236E+01 -1.811129273E+02  1.861310357E+03  1.875190250E+03  1.250000000E+02  0.00000E+00  9.000E+00
      21     1     1     2   502   512  5.877011117E+01  5.030156249E+01  2.201632670E+02  2.333581739E+02  2.697398305E-06  0.00000E+00  9.000E+00
#rwgt            1           1   4.9121544671896090E-002           6      199753           0
</event>
<event>
      5   9999  3.19816E-02  7.38983E+01 -1.00000E+00  1.30040E-01
      21    -1     0     0   502   501  0.000000000E+00  0.000000000E+00  1.238276433E+02  1.238276433E+02  0.000000000E+00  0.00000E+00  9.000E+00
       1    -1     0     0   501     0  0.000000000E+00  0.000000000E+00 -2.359074673E+03  2.359074673E+03  0.000000000E+00  0.00000E+00  9.000E+00
      25     1     1     2     0     0 -4.030071128E+02  2.675996017E+02 -1.420119110E+03  1.505452612E+03  1.250000000E+02  0.00000E+00  9.000E+00
      25     1     1     2     0     0  4.043220166E+02 -1.937129738E+02 -7.095184915E+02  8.485531799E+02  1.250000000E+02  0.00000E+00  9.000E+00
       1     1     1     2   502     0 -1.314903797E+00 -7.388662792E+01 -1.056094285E+02  1.288965250E+02  1.907348633E-06  0.00000E+00  9.000E+00
#rwgt            1           1   2.5118462695310942E-002           6      199842           0
</event>
<event>
      5   9999  3.19816E-02  4.04032E+01 -1.00000E+00  1.44571E-01
      21    -1     0     0   511   501  0.000000000E+00  0.000000000E+00  2.636512659E+02  2.636512659E+02  0.000000000E+00  0.00000E+00  9.000E+00
      21    -1     0     0   501   502  0.000000000E+00  0.000000000E+00 -2.748565969E+02  2.748565969E+02  0.000000000E+00  0.00000E+00  9.000E+00
      25     1     1     2     0     0 -5.546597083E+01  1.861086630E+02 -2.979478987E+01  2.328639900E+02  1.250000000E+02  0.00000E+00  9.000E+00
      25     1     1     2     0     0  5.308839574E+01 -2.264418275E+02  9.413589577E+00  2.642118368E+02  1.250000000E+02  0.00000E+00  9.000E+00
      21     1     1     2   511   502  2.377575086E+00  4.033316457E+01  9.175869307E+00  4.143203598E+01  7.817075878E-07  0.00000E+00  9.000E+00
#rwgt            1           1   2.7051955938346271E-002           6      199939           0
</event>
<event>
      5   9999  3.19816E-02  7.80985E+01 -1.00000E+00  1.28857E-01
      21    -1     0     0   512   501  0.000000000E+00  0.000000000E+00  1.027011973E+02  1.027011973E+02  0.000000000E+00  0.00000E+00  9.000E+00
      21    -1     0     0   501   502  0.000000000E+00  0.000000000E+00 -8.632165951E+02  8.632165951E+02  0.000000000E+00  0.00000E+00  9.000E+00
      25     1     1     2     0     0 -1.509419208E+01 -1.956541980E+02 -3.631837790E+02  4.313187419E+02  1.250000000E+02  0.00000E+00  9.000E+00
      25     1     1     2     0     0 -5.830236453E+01  1.689647109E+02 -4.009287745E+02  4.564177051E+02  1.250000000E+02  0.00000E+00  9.000E+00
      21     1     1     2   512   502  7.339655660E+01  2.668948711E+01  3.597155660E+00  7.818134543E+01  5.040030040E-07  0.00000E+00  9.000E+00
#rwgt            1           1   2.3617822378804682E-002           6      200011           0
</event>
<event>
      5   9999  3.19816E-02  3.04254E+02 -1.00000E+00  1.05394E-01
      -1    -1     0     0     0   501  0.000000000E+00  0.000000000E+00  8.190943798E+02  8.190943798E+02  0.000000000E+00  0.00000E+00  9.000E+00
      21    -1     0     0   501   502  0.000000000E+00  0.000000000E+00 -9.385573830E+02  9.385573830E+02  0.000000000E+00  0.00000E+00  9.000E+00
      25     1     1     2     0     0  2.074126014E+02  3.536931523E+02 -7.434015695E+02  8.581315323E+02  1.250000000E+02  0.00000E+00  9.000E+00
      25     1     1     2     0     0  9.299180875E+01 -3.054441829E+02  3.080850191E+02  4.609609575E+02  1.250000000E+02  0.00000E+00  9.000E+00
      -1     1     1     2     0   502 -3.004044102E+02 -4.824896940E+01  3.158535472E+02  4.385592731E+02  6.607249480E-06  0.00000E+00  9.000E+00
#rwgt            2           5   1.1508649731522725E-004           6      200133           0
</event>
<event>
      5   9999  3.19816E-02  6.28707E+01 -1.00000E+00  1.33628E-01
      21    -1     0     0   502   511  0.000000000E+00  0.000000000E+00  8.567838964E+02  8.567838964E+02  0.000000000E+00  0.00000E+00  9.000E+00
      21    -1     0     0   501   502  0.000000000E+00  0.000000000E+00 -4.439705817E+01  4.439705817E+01  0.000000000E+00  0.00000E+00  9.000E+00
      25     1     1     2     0     0 -5.621031007E+01 -2.771095488E+01  2.055304805E+02  2.485865532E+02  1.250000000E+02  0.00000E+00  9.000E+00
      25     1     1     2     0     0  1.137823449E+02  5.297335062E+01  4.490798346E+02  4.827528309E+02  1.250000000E+02  0.00000E+00  9.000E+00
      21     1     1     2   501   511 -5.757203487E+01 -2.526239574E+01  1.577765231E+02  1.698415705E+02  2.697398305E-06  0.00000E+00  9.000E+00
#rwgt            1           1   3.0128330283594452E-002           6      200227           0
</event>
<event>
      5   9999  3.19816E-02  5.76478E+01 -1.00000E+00  1.35638E-01
      21    -1     0     0   502   501  0.000000000E+00  0.000000000E+00  8.712518254E+02  8.712518254E+02  0.000000000E+00  0.00000E+00  9.000E+00
      21    -1     0     0   512   502  0.000000000E+00  0.000000000E+00 -2.763665032E+02  2.763665032E+02  0.000000000E+00  0.00000E+00  9.000E+00
      25     1     1     2     0     0 -3.911986476E+02  1.154950827E+01  2.948294553E+02  5.056868406E+02  1.250000000E+02  0.00000E+00  9.000E+00
      25     1     1     2     0     0  4.204228722E+02 -6.124065348E+01  3.509257472E+02  5.650483954E+02  1.250000000E+02  0.00000E+00  9.000E+00
      21     1     1     2   512   501 -2.922422461E+01  4.969114521E+01 -5.086988034E+01  7.688309269E+01  1.168007728E-06  0.00000E+00  9.000E+00
#rwgt            1           1   3.1382073275653850E-002           6      200299           0
</event>
<event>
      5   9999  3.19816E-02  1.40391E+01 -1.00000E+00  1.80136E-01
      21    -1     0     0   502   511  0.000000000E+00  0.000000000E+00  4.623732295E+02  4.623732295E+02  0.000000000E+00  0.00000E+00  9.000E+00
      21    -1     0     0   501   502  0.000000000E+00  0.000000000E+00 -6.209208867E+02  6.209208867E+02  0.000000000E+00  0.00000E+00  9.000E+00
      25     1     1     2     0     0  1.672515117E+02 -1.208207112E+02 -3.575640352E+02  4.313325303E+02  1.250000000E+02  0.00000E+00  9.000E+00
      25     1     1     2     0     0 -1.722035816E+02  1.339574572E+02 -1.564995911E+02  2.961685261E+02  1.250000000E+02  0.00000E+00  9.000E+00
      21     1     1     2   501   511  4.952069885E+00 -1.313674606E+01  3.555159691E+02  3.557930598E+02  5.394796609E-06  0.00000E+00  9.000E+00
#rwgt            1           1   2.6816690983196938E-002           6      200465           0
</event>
<event>
      5   9999  3.19816E-02  8.16721E+01 -1.00000E+00  1.27916E-01
      21    -1     0     0   512   501  0.000000000E+00  0.000000000E+00  3.981045592E+02  3.981045592E+02  0.000000000E+00  0.00000E+00  9.000E+00
      21    -1     0     0   501   502  0.000000000E+00  0.000000000E+00 -8.025283191E+02  8.025283191E+02  0.000000000E+00  0.00000E+00  9.000E+00
      25     1     1     2     0     0 -2.620343313E+02  3.700702964E+02 -3.524906363E+02  5.877828372E+02  1.250000000E+02  0.00000E+00  9.000E+00
      25     1     1     2     0     0  3.390710518E+02 -3.429470158E+02 -1.130173179E+02  5.108617699E+02  1.250000000E+02  0.00000E+00  9.000E+00
      21     1     1     2   512   502 -7.703672053E+01 -2.712328064E+01  6.108419427E+01  1.019882712E+02  6.743495762E-07  0.00000E+00  9.000E+00
#rwgt            1           1   3.3226934786182633E-002           6      200631           0
</event>
<event>
      5   9999  3.19816E-02  4.36841E+01 -1.00000E+00  1.42506E-01
      21    -1     0     0   502   501  0.000000000E+00  0.000000000E+00  1.262924947E+02  1.262924947E+02  0.000000000E+00  0.00000E+00  9.000E+00
      21    -1     0     0   501   511  0.000000000E+00  0.000000000E+00 -4.121531870E+02  4.121531870E+02  0.000000000E+00  0.00000E+00  9.000E+00
      25     1     1     2     0     0  1.418114433E+02  6.315019990E+01 -2.248310479E+01  2.005714915E+02  1.250000000E+02  0.00000E+00  9.000E+00
      25     1     1     2     0     0 -1.041022763E+02 -4.109760276E+01 -2.143574675E+02  2.722139246E+02  1.250000000E+02  0.00000E+00  9.000E+00
      21     1     1     2   502   511 -3.770916705E+01 -2.205259714E+01 -4.902011994E+01  6.566026561E+01  1.168007728E-06  0.00000E+00  9.000E+00
#rwgt            1           1   2.3906007299534394E-002           6      200705           0
</event>
<event>
      5   9999  3.19816E-02  9.15711E+01 -1.00000E+00  1.25573E-01
      21    -1     0     0   502   512  0.000000000E+00  0.000000000E+00  6.772617081E+02  6.772617081E+02  0.000000000E+00  0.00000E+00  9.000E+00
      21    -1     0     0   501   502  0.000000000E+00  0.000000000E+00 -2.536197117E+02  2.536197117E+02  0.000000000E+00  0.00000E+00  9.000E+00
      25     1     1     2     0     0 -1.270346426E+00  2.040510058E+01  3.805778811E+02  4.011016149E+02  1.250000000E+02  0.00000E+00  9.000E+00
      25     1     1     2     0     0  8.928258350E+01 -4.568564847E+01 -2.079762233E+02  2.625598363E+02  1.250000000E+02  0.00000E+00  9.000E+00
      21     1     1     2   501   512 -8.801223707E+01  2.528054789E+01  2.510403386E+02  2.672199686E+02  0.000000000E+00  0.00000E+00  9.000E+00
#rwgt            2          11   2.2608497232243664E-003           6      200796           0
</event>
<event>
      5   9999  3.19816E-02  5.49178E+01 -1.00000E+00  1.36790E-01
      21    -1     0     0   502   501  0.000000000E+00  0.000000000E+00  5.493541677E+02  5.493541677E+02  0.000000000E+00  0.00000E+00  9.000E+00
      21    -1     0     0   501   511  0.000000000E+00  0.000000000E+00 -2.508816640E+02  2.508816640E+02  0.000000000E+00  0.00000E+00  9.000E+00
      25     1     1     2     0     0 -9.881055399E+01 -8.493837761E+01 -6.793052866E+01  1.929186624E+02  1.250000000E+02  0.00000E+00  9.000E+00
      25     1     1     2     0     0  1.137131658E+02  1.377955409E+02  4.541615828E+02  5.037916618E+02  1.250000000E+02  0.00000E+00  9.000E+00
      21     1     1     2   502   511 -1.490261177E+01 -5.285716325E+01 -8.775855040E+01  1.035255075E+02  1.348699152E-06  0.00000E+00  9.000E+00
#rwgt            1           1   2.8239759539281144E-002           6      200831           0
</event>
<event>
      5   9999  3.19816E-02  2.19862E+00 -1.00000E+00  3.44913E-01
      21    -1     0     0   512   501  0.000000000E+00  0.000000000E+00  2.348824173E+02  2.348824173E+02  0.000000000E+00  0.00000E+00  9.000E+00
      21    -1     0     0   501   502  0.000000000E+00  0.000000000E+00 -1.790217843E+02  1.790217843E+02  0.000000000E+00  0.00000E+00  9.000E+00
      25     1     1     2     0     0 -6.365177365E+01  7.782604650E+01 -9.882607390E+01  1.884145289E+02  1.250000000E+02  0.00000E+00  9.000E+00
      25     1     1     2     0     0  6.343577679E+01 -7.563805900E+01  1.444699387E+02  2.150390126E+02  1.250000000E+02  0.00000E+00  9.000E+00
      21     1     1     2   512   502  2.159968611E-01 -2.187987503E+00  1.021676823E+01  1.045066013E+01  1.685873940E-07  0.00000E+00  9.000E+00
#rwgt            1           1   3.1887313756642874E-002           6      200923           0
</event>
<event>
      5   9999  3.19816E-02  1.99947E+02 -1.00000E+00  1.11652E-01
      21    -1     0     0   502   501  0.000000000E+00  0.000000000E+00  7.190101367E+02  7.190101367E+02  0.000000000E+00  0.00000E+00  9.000E+00
      21    -1     0     0   501   511  0.000000000E+00  0.000000000E+00 -2.222743062E+02  2.222743062E+02  0.000000000E+00  0.00000E+00  9.000E+00
      25     1     1     2     0     0 -9.305895592E+01  8.616662701E+01  3.358269891E+02  3.801176442E+02  1.250000000E+02  0.00000E+00  9.000E+00
      25     1     1     2     0     0  1.400230989E+02 -2.805193835E+02  9.503259715E+01  3.506476683E+02  1.250000000E+02  0.00000E+00  9.000E+00
      21     1     1     2   502   511 -4.696414300E+01  1.943527565E+02  6.587624425E+01  2.105191304E+02  3.438521648E-06  0.00000E+00  9.000E+00
#rwgt            1           1   3.2264397769110838E-002           6      201482           0
</event>
<event>
      5   9999  3.19816E-02  9.45431E+01 -1.00000E+00  1.24934E-01
      21    -1     0     0   502   512  0.000000000E+00  0.000000000E+00  1.077188057E+03  1.077188057E+03  0.000000000E+00  0.00000E+00  9.000E+00
      21    -1     0     0   501   502  0.000000000E+00  0.000000000E+00 -1.144314989E+02  1.144314989E+02  0.000000000E+00  0.00000E+00  9.000E+00
      25     1     1     2     0     0  7.382445017E+01 -1.321186128E+02  3.936910017E+01  2.002006577E+02  1.250000000E+02  0.00000E+00  9.000E+00
      25     1     1     2     0     0 -1.240655063E+02  5.202974578E+01  2.434830254E+02  3.049726676E+02  1.250000000E+02  0.00000E+00  9.000E+00
      21     1     1     2   501   512  5.024105610E+01  8.008886697E+01  6.799044326E+02  6.864462308E+02  0.000000000E+00  0.00000E+00  9.000E+00
#rwgt            1           1   2.6999413299845301E-002           6      201522           0
</event>
<event>
      5   9999  3.19816E-02  9.91918E+01 -1.00000E+00  1.23987E-01
       2    -1     0     0   502     0  0.000000000E+00  0.000000000E+00  1.276944500E+03  1.276944500E+03  0.000000000E+00  0.00000E+00  9.000E+00
      21    -1     0     0   501   502  0.000000000E+00  0.000000000E+00 -1.719857843E+02  1.719857843E+02  0.000000000E+00  0.00000E+00  9.000E+00
      25     1     1     2     0     0  1.310526996E+02  2.470805343E+02  9.701973916E+02  1.017414163E+03  1.250000000E+02  0.00000E+00  9.000E+00
      25     1     1     2     0     0 -1.323964899E+02 -1.478978174E+02 -3.273457186E+01  2.368525852E+02  1.250000000E+02  0.00000E+00  9.000E+00
       2     1     1     2   501     0  1.343790346E+00 -9.918271691E+01  1.674958962E+02  1.946635362E+02  2.697398305E-06  0.00000E+00  9.000E+00
#rwgt            1           1   2.9160041107561194E-002           6      201573           0
</event>
<event>
      5   9999  3.19816E-02  9.96607E+01 -1.00000E+00  1.23894E-01
      21    -1     0     0   502   501  0.000000000E+00  0.000000000E+00  2.194286916E+03  2.194286916E+03  0.000000000E+00  0.00000E+00  9.000E+00
      21    -1     0     0   501   511  0.000000000E+00  0.000000000E+00 -3.763547987E+02  3.763547987E+02  0.000000000E+00  0.00000E+00  9.000E+00
      25     1     1     2     0     0 -5.167964850E+02  3.140270318E+02  1.867534986E+02  6.451305704E+02  1.250000000E+02  0.00000E+00  9.000E+00
      25     1     1     2     0     0  5.957055497E+02 -2.531532310E+02  1.687038289E+03  1.811263330E+03  1.250000000E+02  0.00000E+00  9.000E+00
      21     1     1     2   502   511 -7.890906469E+01 -6.087380084E+01 -5.585967114E+01  1.142478139E+02  1.651812370E-06  0.00000E+00  9.000E+00
#rwgt            1           1   2.9073895269636031E-002           6      201622           0
</event>
<event>
      5   9999  3.19816E-02  1.97262E+01 -1.00000E+00  1.66865E-01
      21    -1     0     0   502   501  0.000000000E+00  0.000000000E+00  2.841072697E+02  2.841072697E+02  0.000000000E+00  0.00000E+00  9.000E+00
      21    -1     0     0   501   512  0.000000000E+00  0.000000000E+00 -5.143524909E+02  5.143524909E+02  0.000000000E+00  0.00000E+00  9.000E+00
      25     1     1     2     0     0  3.175694607E+02 -8.357232072E+01 -2.300516619E+02  4.199803118E+02  1.250000000E+02  0.00000E+00  9.000E+00
      25     1     1     2     0     0 -3.273095505E+02  6.641853693E+01  8.991903041E+00  3.567195232E+02  1.250000000E+02  0.00000E+00  9.000E+00
      21     1     1     2   502   512  9.740089825E+00  1.715378379E+01 -9.185462287E+00  2.175992568E+01  4.616955931E-07  0.00000E+00  9.000E+00
#rwgt            1           1   1.9985267419855787E-002           6      201714           0
</event>
<event>
      5   9999  3.19816E-02  2.34272E+02 -1.00000E+00  1.09203E-01
      21    -1     0     0   502   501  0.000000000E+00  0.000000000E+00  1.921744633E+02  1.921744633E+02  0.000000000E+00  0.00000E+00  9.000E+00
      21    -1     0     0   511   502  0.000000000E+00  0.000000000E+00 -2.136274806E+03  2.136274806E+03  0.000000000E+00  0.00000E+00  9.000E+00
      25     1     1     2     0     0 -5.924417937E+00 -1.398505361E+02 -1.974969372E+02  2.724395555E+02  1.250000000E+02  0.00000E+00  9.000E+00
      25     1     1     2     0     0 -2.220753749E+02  8.600405157E+01  2.395090955E+01  2.700237306E+02  1.250000000E+02  0.00000E+00  9.000E+00
      21     1     1     2   511   501  2.279997928E+02  5.384648450E+01 -1.770554315E+03  1.785985983E+03  0.000000000E+00  0.00000E+00  9.000E+00
#rwgt            2          11   1.6424912427072905E-003           6      201929           0
</event>
<event>
      5   9999  3.19816E-02  3.51299E+01 -1.00000E+00  1.48426E-01
      21    -1     0     0   502   512  0.000000000E+00  0.000000000E+00  6.987916486E+01  6.987916486E+01  0.000000000E+00  0.00000E+00  9.000E+00
      21    -1     0     0   501   502  0.000000000E+00  0.000000000E+00 -1.663507030E+03  1.663507030E+03  0.000000000E+00  0.00000E+00  9.000E+00
      25     1     1     2     0     0  2.524373310E+02 -1.195644194E+02 -7.653110988E+02  8.242246869E+02  1.250000000E+02  0.00000E+00  9.000E+00
      25     1     1     2     0     0 -2.575562985E+02  1.543193331E+02 -8.014803851E+02  8.649540515E+02  1.250000000E+02  0.00000E+00  9.000E+00
      21     1     1     2   501   512  5.118967478E+00 -3.475491367E+01 -2.683638111E+01  4.420745643E+01  4.768371582E-07  0.00000E+00  9.000E+00
#rwgt            1           1   4.1897519672335667E-002           6      201949           0
</event>
<event>
      5   9999  3.19816E-02  9.45820E+00 -1.00000E+00  1.98596E-01
      21    -1     0     0   502   501  0.000000000E+00  0.000000000E+00  2.497899063E+02  2.497899063E+02  0.000000000E+00  0.00000E+00  9.000E+00
      21    -1     0     0   501   511  0.000000000E+00  0.000000000E+00 -9.747363265E+01  9.747363265E+01  0.000000000E+00  0.00000E+00  9.000E+00
      25     1     1     2     0     0 -4.295876420E+01  7.195609722E+01  9.768195063E+01  1.794154364E+02  1.250000000E+02  0.00000E+00  9.000E+00
      25     1     1     2     0     0  3.377064057E+01 -7.420019351E+01  5.190519446E+01  1.580040319E+02  1.250000000E+02  0.00000E+00  9.000E+00
      21     1     1     2   502   511  9.188123631E+00  2.244096298E+00  2.729128573E+00  9.844070643E+00  1.192092896E-07  0.00000E+00  9.000E+00
#rwgt            1           1   4.6710111801991930E-002           6      202075           0
</event>
<event>
      5   9999  3.19816E-02  5.75685E+01 -1.00000E+00  1.35671E-01
      21    -1     0     0   502   501  0.000000000E+00  0.000000000E+00  4.163942537E+02  4.163942537E+02  0.000000000E+00  0.00000E+00  9.000E+00
      21    -1     0     0   512   502  0.000000000E+00  0.000000000E+00 -6.100535195E+02  6.100535195E+02  0.000000000E+00  0.00000E+00  9.000E+00
      25     1     1     2     0     0  1.390167029E+01  2.461242559E+02  2.422134626E+01  2.774564459E+02  1.250000000E+02  0.00000E+00  9.000E+00
      25     1     1     2     0     0 -3.868080875E+00 -3.028116425E+02  1.615032799E+02  3.652645101E+02  1.250000000E+02  0.00000E+00  9.000E+00
      21     1     1     2   512   501 -1.003358942E+01  5.668738664E+01 -3.793838920E+02  3.837268172E+02  0.000000000E+00  0.00000E+00  9.000E+00
#rwgt            1           1   2.6991820464361268E-002           6      202285           0
</event>
<event>
      5   9999  3.19816E-02  3.65137E+01 -1.00000E+00  1.47340E-01
      21    -1     0     0   502   511  0.000000000E+00  0.000000000E+00  9.072172978E+02  9.072172978E+02  0.000000000E+00  0.00000E+00  9.000E+00
      21    -1     0     0   501   502  0.000000000E+00  0.000000000E+00 -1.192688321E+02  1.192688321E+02  0.000000000E+00  0.00000E+00  9.000E+00
      25     1     1     2     0     0  4.740792272E+01  1.975129318E+02  1.189072488E+02  2.665010378E+02  1.250000000E+02  0.00000E+00  9.000E+00
      25     1     1     2     0     0 -3.467245130E+01 -2.317336590E+02  3.524920005E+02  4.413369212E+02  1.250000000E+02  0.00000E+00  9.000E+00
      21     1     1     2   501   511 -1.273547141E+01  3.422072720E+01  3.165492164E+02  3.186481708E+02  5.394796609E-06  0.00000E+00  9.000E+00
#rwgt            2          11   9.5541444217503901E-004           6      202389           0
</event>
<event>
      5   9999  3.19816E-02  1.88166E+02 -1.00000E+00  1.12621E-01
      21    -1     0     0   502   501  0.000000000E+00  0.000000000E+00  2.584972667E+02  2.584972667E+02  0.000000000E+00  0.00000E+00  9.000E+00
       2    -1     0     0   501     0  0.000000000E+00  0.000000000E+00 -1.591021238E+03  1.591021238E+03  0.000000000E+00  0.00000E+00  9.000E+00
      25     1     1     2     0     0 -6.529503441E+01 -3.408245163E+02 -7.915321970E+02  8.732542650E+02  1.250000000E+02  0.00000E+00  9.000E+00
      25     1     1     2     0     0  1.090698440E+02  1.578207058E+02  1.409232784E+02  2.688642342E+02  1.250000000E+02  0.00000E+00  9.000E+00
       2     1     1     2   502     0 -4.377480957E+01  1.830038106E+02 -6.819150524E+02  7.074000051E+02  0.000000000E+00  0.00000E+00  9.000E+00
#rwgt            1           1   2.7752235141804454E-002           6      202469           0
</event>
<event>
      5   9999  3.19816E-02  1.49089E+02 -1.00000E+00  1.16499E-01
       1    -1     0     0   502     0  0.000000000E+00  0.000000000E+00  1.597156840E+03  1.597156840E+03  0.000000000E+00  0.00000E+00  9.000E+00
      21    -1     0     0   501   502  0.000000000E+00  0.000000000E+00 -5.972444266E+01  5.972444266E+01  0.000000000E+00  0.00000E+00  9.000E+00
      25     1     1     2     0     0  9.303849585E+01  2.212553384E+02  5.948835884E+02  6.535453850E+02  1.250000000E+02  0.00000E+00  9.000E+00
      25     1     1     2     0     0 -2.719872085E+01 -8.749172544E+01  2.440401995E+02  2.890937416E+02  1.250000000E+02  0.00000E+00  9.000E+00
       1     1     1     2   501     0 -6.583977500E+01 -1.337636129E+02  6.985086093E+02  7.142421560E+02  1.705984480E-05  0.00000E+00  9.000E+00
#rwgt            1           1   2.8808514414650380E-002           6      202549           0
</event>
<event>
      5   9999  3.19816E-02  1.94472E+01 -1.00000E+00  1.67380E-01
       1    -1     0     0   502     0  0.000000000E+00  0.000000000E+00  5.547553308E+02  5.547553308E+02  0.000000000E+00  0.00000E+00  9.000E+00
      21    -1     0     0   501   502  0.000000000E+00  0.000000000E+00 -1.756328747E+02  1.756328747E+02  0.000000000E+00  0.00000E+00  9.000E+00
      25     1     1     2     0     0  1.865632599E+02 -9.397492442E+00  3.907610014E+02  4.507918844E+02  1.250000000E+02  0.00000E+00  9.000E+00
      25     1     1     2     0     0 -2.005746902E+02 -4.088522854E+00 -4.534455480E+01  2.406824693E+02  1.250000000E+02  0.00000E+00  9.000E+00
       1     1     1     2   501     0  1.401143033E+01  1.348601530E+01  3.370600951E+01  3.891385185E+01  4.768371582E-07  0.00000E+00  9.000E+00
#rwgt            1           1   2.7301313985094007E-002           6      202600           0
</event>
<event>
      5   9999  3.19816E-02  6.97631E+01 -1.00000E+00  1.31295E-01
      21    -1     0     0   502   511  0.000000000E+00  0.000000000E+00  1.027076123E+02  1.027076123E+02  0.000000000E+00  0.00000E+00  9.000E+00
      21    -1     0     0   501   502  0.000000000E+00  0.000000000E+00 -8.126234189E+02  8.126234189E+02  0.000000000E+00  0.00000E+00  9.000E+00
      25     1     1     2     0     0  4.864126690E+01 -1.462138363E+01 -6.598101189E+02  6.734642906E+02  1.250000000E+02  0.00000E+00  9.000E+00
      25     1     1     2     0     0  8.686453398E+00  5.437592736E+01  2.554490545E+01  1.389594838E+02  1.250000000E+02  0.00000E+00  9.000E+00
      21     1     1     2   501   511 -5.732772030E+01 -3.975454373E+01 -7.565059310E+01  1.029072568E+02  9.536743164E-07  0.00000E+00  9.000E+00
#rwgt            1           1   2.7052181286046587E-002           6      202800           0
</event>
<event>
      5   9999  3.19816E-02  2.01640E+01 -1.00000E+00  1.66077E-01
      21    -1     0     0   502   501  0.000000000E+00  0.000000000E+00  3.363848838E+02  3.363848838E+02  0.000000000E+00  0.00000E+00  9.000E+00
      21    -1     0     0   501   512  0.000000000E+00  0.000000000E+00 -2.278026727E+02  2.278026727E+02  0.000000000E+00  0.00000E+00  9.000E+00
      25     1     1     2     0     0  1.189102883E+02  3.040292280E+01 -1.513305330E+02  2.314949775E+02  1.250000000E+02  0.00000E+00  9.000E+00
      25     1     1     2     0     0 -1.142899207E+02 -5.003041693E+01  2.576976661E+02  3.124072914E+02  1.250000000E+02  0.00000E+00  9.000E+00
      21     1     1     2   502   512 -4.620367585E+00  1.962749413E+01  2.215078044E+00  2.028528760E+01  2.889442359E-07  0.00000E+00  9.000E+00
#rwgt            1           1   2.7878263471229830E-002           6      202866           0
</event>
<event>
      5   9999  3.19816E-02  3.12632E+01 -1.00000E+00  1.51806E-01
      21    -1     0     0   502   511  0.000000000E+00  0.000000000E+00  7.803209852E+01  7.803209852E+01  0.000000000E+00  0.00000E+00  9.000E+00
      21    -1     0     0   501   502  0.000000000E+00  0.000000000E+00 -2.363702319E+03  2.363702319E+03  0.000000000E+00  0.00000E+00  9.000E+00
      25     1     1     2     0     0  3.964300264E+02  2.556071266E+01 -1.236141166E+03  1.304407949E+03  1.250000000E+02  0.00000E+00  9.000E+00
      25     1     1     2     0     0 -3.833940072E+02 -5.397634829E+01 -9.794402208E+02  1.060581235E+03  1.250000000E+02  0.00000E+00  9.000E+00
      21     1     1     2   501   511 -1.303601920E+01  2.841563562E+01 -7.008883369E+01  7.674523277E+01  9.536743164E-07  0.00000E+00  9.000E+00
#rwgt            2          11   3.8590600095130469E-002           6      203141           0
</event>
<event>
      5   9999  3.19816E-02  1.58695E+02 -1.00000E+00  1.15432E-01
      21    -1     0     0   512   501  0.000000000E+00  0.000000000E+00  1.558848704E+03  1.558848704E+03  0.000000000E+00  0.00000E+00  9.000E+00
      21    -1     0     0   501   502  0.000000000E+00  0.000000000E+00 -6.605755049E+02  6.605755049E+02  0.000000000E+00  0.00000E+00  9.000E+00
      25     1     1     2     0     0 -5.022195371E+01  4.109605419E+02  1.646935709E+01  4.327898466E+02  1.250000000E+02  0.00000E+00  9.000E+00
      25     1     1     2     0     0  2.037451982E+00 -2.597573493E+02 -4.011027050E+02  4.939498068E+02  1.250000000E+02  0.00000E+00  9.000E+00
      21     1     1     2   512   502  4.818450172E+01 -1.512031926E+02  1.282906547E+03  1.292684556E+03  2.157918644E-05  0.00000E+00  9.000E+00
#rwgt            1           1   2.8363227552526567E-002           6      203161           0
</event>
<event>
      5   9999  3.19816E-02  4.04592E+01 -1.00000E+00  1.44533E-01
      21    -1     0     0   502   501  0.000000000E+00  0.000000000E+00  1.481159386E+03  1.481159386E+03  0.000000000E+00  0.00000E+00  9.000E+00
      21    -1     0     0   511   502  0.000000000E+00  0.000000000E+00 -5.244700050E+02  5.244700050E+02  0.000000000E+00  0.00000E+00  9.000E+00
      25     1     1     2     0     0  3.110898907E+02 -4.425242602E+01 -1.669213840E+02  3.771245759E+02  1.250000000E+02  0.00000E+00  9.000E+00
      25     1     1     2     0     0 -2.939220606E+02  8.088865023E+01  1.354551227E+03  1.394047050E+03  1.250000000E+02  0.00000E+00  9.000E+00
      21     1     1     2   511   501 -1.716783010E+01 -3.663622421E+01 -2.309404612E+02  2.344577658E+02  2.697398305E-06  0.00000E+00  9.000E+00
#rwgt            1           1   2.8410216799799305E-002           6      203197           0
</event>
<event>
      5   9999  3.19816E-02  5.83383E+02 -1.00000E+00  9.69856E-02
      21    -1     0     0   512   501  0.000000000E+00  0.000000000E+00  1.774924470E+03  1.774924470E+03  0.000000000E+00  0.00000E+00  9.000E+00
      21    -1     0     0   501   502  0.000000000E+00  0.000000000E+00 -3.367234639E+03  3.367234639E+03  0.000000000E+00  0.00000E+00  9.000E+00
      25     1     1     2     0     0  4.273099507E+02 -5.902935107E+02 -1.317858916E+03  1.511098060E+03  1.250000000E+02  0.00000E+00  9.000E+00
      25     1     1     2     0     0 -9.990754937E+02  4.744508076E+02 -1.733292047E+03  2.059898476E+03  1.250000000E+02  0.00000E+00  9.000E+00
      21     1     1     2   512   502  5.717655430E+02  1.158427031E+02  1.458840794E+03  1.571162573E+03  0.000000000E+00  0.00000E+00  9.000E+00
#rwgt            2          11   6.9675776080185747E-003           6      203323           0
</event>
<event>
      5   9999  3.19816E-02  2.72789E+01 -1.00000E+00  1.55964E-01
      21    -1     0     0   502   501  0.000000000E+00  0.000000000E+00  2.353425691E+02  2.353425691E+02  0.000000000E+00  0.00000E+00  9.000E+00
      21    -1     0     0   511   502  0.000000000E+00  0.000000000E+00 -2.163467869E+03  2.163467869E+03  0.000000000E+00  0.00000E+00  9.000E+00
      25     1     1     2     0     0 -8.759459131E+01  2.412576489E+02 -1.207682332E+01  2.857427432E+02  1.250000000E+02  0.00000E+00  9.000E+00
      25     1     1     2     0     0  1.117254098E+02 -2.539793382E+02 -1.368803032E+02  3.336904086E+02  1.250000000E+02  0.00000E+00  9.000E+00
      21     1     1     2   511   501 -2.413081853E+01  1.272168923E+01 -1.779168173E+03  1.779377286E+03  3.051757812E-05  0.00000E+00  9.000E+00
#rwgt            1           1   2.7649033082939138E-002           6      203343           0
</event>
<event>
      5   9999  3.19816E-02  5.11176E+01 -1.00000E+00  1.38530E-01
      21    -1     0     0   502   501  0.000000000E+00  0.000000000E+00  1.016029920E+03  1.016029920E+03  0.000000000E+00  0.00000E+00  9.000E+00
      21    -1     0     0   512   502  0.000000000E+00  0.000000000E+00 -7.785635491E+02  7.785635491E+02  0.000000000E+00  0.00000E+00  9.000E+00
      25     1     1     2     0     0  3.192823195E+02  5.194556585E+02 -2.646944176E+02  6.763604922E+02  1.250000000E+02  0.00000E+00  9.000E+00
      25     1     1     2     0     0 -3.289203999E+02 -5.696563730E+02  6.673319211E+02  9.453326958E+02  1.250000000E+02  0.00000E+00  9.000E+00
      21     1     1     2   512   501  9.638080465E+00  5.020071454E+01 -1.651711323E+02  1.729002813E+02  2.697398305E-06  0.00000E+00  9.000E+00
#rwgt            1           1   3.1391986315580905E-002           6      203465           0
</event>
<event>
      5   9999  3.19816E-02  1.10697E+01 -1.00000E+00  1.90790E-01
      21    -1     0     0   502   501  0.000000000E+00  0.000000000E+00  8.884350015E+01  8.884350015E+01  0.000000000E+00  0.00000E+00  9.000E+00
      21    -1     0     0   501   511  0.000000000E+00  0.000000000E+00 -4.023071049E+02  4.023071049E+02  0.000000000E+00  0.00000E+00  9.000E+00
      25     1     1     2     0     0  1.853292571E+01 -7.375767416E+01 -1.264826487E+01  1.468626652E+02  1.250000000E+02  0.00000E+00  9.000E+00
      25     1     1     2     0     0 -2.941859979E+01  7.174755250E+01 -2.328146513E+02  2.753921335E+02  1.250000000E+02  0.00000E+00  9.000E+00
      21     1     1     2   502   511  1.088567408E+01  2.010121656E+00 -6.800068859E+01  6.889580639E+01  1.348699152E-06  0.00000E+00  9.000E+00
#rwgt            1           1   3.0143682117517445E-002           6      203595           0
</event>
<event>
      5   9999  3.19816E-02  3.38957E+01 -1.00000E+00  1.49446E-01
      21    -1     0     0   502   501  0.000000000E+00  0.000000000E+00  5.522819110E+02  5.522819110E+02  0.000000000E+00  0.00000E+00  9.000E+00
      21    -1     0     0   501   512  0.000000000E+00  0.000000000E+00 -9.098195430E+01  9.098195430E+01  0.000000000E+00  0.00000E+00  9.000E+00
      25     1     1     2     0     0  7.379132566E+01 -9.666353926E+01  1.630005004E+02  2.387114633E+02  1.250000000E+02  0.00000E+00  9.000E+00
      25     1     1     2     0     0 -7.202529747E+01  1.305131993E+02  3.122529067E+02  3.678970187E+02  1.250000000E+02  0.00000E+00  9.000E+00
      21     1     1     2   502   512 -1.766028188E+00 -3.384966005E+01 -1.395345044E+01  3.665538323E+01  9.684608465E-07  0.00000E+00  9.000E+00
#rwgt            1           1   2.8116717045140144E-002           6      203846           0
</event>
<event>
      5   9999  3.19816E-02  1.37658E+02 -1.00000E+00  1.17891E-01
      21    -1     0     0   502   511  0.000000000E+00  0.000000000E+00  2.567072833E+02  2.567072833E+02  0.000000000E+00  0.00000E+00  9.000E+00
      21    -1     0     0   501   502  0.000000000E+00  0.000000000E+00 -1.086113257E+03  1.086113257E+03  0.000000000E+00  0.00000E+00  9.000E+00
      25     1     1     2     0     0  2.051694101E+02 -1.620741914E+02  7.490726898E+01  2.993303014E+02  1.250000000E+02  0.00000E+00  9.000E+00
      25     1     1     2     0     0 -9.927916922E+01  2.500338541E+02 -8.413539419E+02  8.921181184E+02  1.250000000E+02  0.00000E+00  9.000E+00
      21     1     1     2   501   511 -1.058902409E+02 -8.795966261E+01 -6.295930122E+01  1.513721209E+02  6.743495762E-07  0.00000E+00  9.000E+00
#rwgt            1           1   2.7671280324595655E-002           6      203929           0
</event>
<event>
      5   9999  3.19816E-02  3.52236E+01 -1.00000E+00  1.48350E-01
      21    -1     0     0   502   501  0.000000000E+00  0.000000000E+00  5.941997511E+01  5.941997511E+01  0.000000000E+00  0.00000E+00  9.000E+00
      21    -1     0     0   501   512  0.000000000E+00  0.000000000E+00 -3.222639175E+03  3.222639175E+03  0.000000000E+00  0.00000E+00  9.000E+00
      25     1     1     2     0     0  4.747929808E+01 -6.289484673E+01 -9.561631766E+01  1.760043343E+02  1.250000000E+02  0.00000E+00  9.000E+00
      25     1     1     2     0     0 -3.353834968E+01  3.054746756E+01 -2.121251153E+02  2.503598075E+02  1.250000000E+02  0.00000E+00  9.000E+00
      21     1     1     2   502   512 -1.394094840E+01  3.234737917E+01 -2.855477766E+03  2.855695008E+03  4.315837288E-05  0.00000E+00  9.000E+00
#rwgt            1           1   4.3264635192253272E-002           6      204015           0
</event>
<event>
      5   9999  3.19816E-02  3.46557E+01 -1.00000E+00  1.48812E-01
      21    -1     0     0   511   501  0.000000000E+00  0.000000000E+00  1.580589637E+02  1.580589637E+02  0.000000000E+00  0.00000E+00  9.000E+00
      21    -1     0     0   501   502  0.000000000E+00  0.000000000E+00 -1.246471543E+03  1.246471543E+03  0.000000000E+00  0.00000E+00  9.000E+00
      25     1     1     2     0     0  3.380671467E+02 -2.084052334E+01 -1.701563723E+02  3.991264388E+02  1.250000000E+02  0.00000E+00  9.000E+00
      25     1     1     2     0     0 -3.432322362E+02 -1.342813833E+01 -8.843694193E+02  9.569341423E+02  1.250000000E+02  0.00000E+00  9.000E+00
      21     1     1     2   511   502  5.165089446E+00  3.426866168E+01 -3.388678811E+01  4.846992604E+01  6.743495762E-07  0.00000E+00  9.000E+00
#rwgt            1           1   2.5939389570207295E-002           6      204103           0
</event>
<event>
      5   9999  3.19816E-02  2.79875E+02 -1.00000E+00  1.06581E-01
       2    -1     0     0   502     0  0.000000000E+00  0.000000000E+00  1.483037242E+03  1.483037242E+03  0.000000000E+00  0.00000E+00  9.000E+00
      21    -1     0     0   501   502  0.000000000E+00  0.000000000E+00 -2.587421897E+02  2.587421897E+02  0.000000000E+00  0.00000E+00  9.000E+00
      25     1     1     2     0     0  2.225160140E+02  6.394685228E+01  1.640674310E+02  3.100736982E+02  1.250000000E+02  0.00000E+00  9.000E+00
      25     1     1     2     0     0 -1.564602864E+02  2.080215437E+02 -4.442527175E+01  2.921495998E+02  1.250000000E+02  0.00000E+00  9.000E+00
       2     1     1     2   501     0 -6.605572759E+01 -2.719683960E+02  1.104652893E+03  1.139556134E+03  1.525878906E-05  0.00000E+00  9.000E+00
#rwgt            1           1   2.8329770670183146E-002           6      204280           0
</event>
<event>
      5   9999  3.19816E-02  2.01405E+02 -1.00000E+00  1.11538E-01
      21    -1     0     0   502   511  0.000000000E+00  0.000000000E+00  1.856848883E+03  1.856848883E+03  0.000000000E+00  0.00000E+00  9.000E+00
      21    -1     0     0   501   502  0.000000000E+00  0.000000000E+00 -1.275723319E+02  1.275723319E+02  0.000000000E+00  0.00000E+00  9.000E+00
      25     1     1     2     0     0 -2.540837815E+02  1.735149211E+02  2.569135587E+02  4.198756632E+02  1.250000000E+02  0.00000E+00  9.000E+00
      25     1     1     2     0     0  7.431294175E+01 -8.270594249E+01  1.432099553E+02  2.202198391E+02  1.250000000E+02  0.00000E+00  9.000E+00
      21     1     1     2   501   511  1.797708398E+02 -9.080897858E+01  1.329153037E+03  1.344325713E+03  1.525878906E-05  0.00000E+00  9.000E+00
#rwgt            1           1   2.8874693600802078E-002           6      204334           0
</event>
<event>
      5   9999  3.19816E-02  7.61251E+01 -1.00000E+00  1.29402E-01
      21    -1     0     0   502   501  0.000000000E+00  0.000000000E+00  2.394020905E+02  2.394020905E+02  0.000000000E+00  0.00000E+00  9.000E+00
      21    -1     0     0   501   512  0.000000000E+00  0.000000000E+00 -3.953517775E+02  3.953517775E+02  0.000000000E+00  0.00000E+00  9.000E+00
      25     1     1     2     0     0 -6.359026914E+01  1.149817864E+01  1.844465680E+02  2.319945406E+02  1.250000000E+02  0.00000E+00  9.000E+00
      25     1     1     2     0     0  2.367342470E+01  5.332216493E+01 -1.983708558E+02  2.416188750E+02  1.250000000E+02  0.00000E+00  9.000E+00
      21     1     1     2   502   512  3.991684444E+01 -6.482034357E+01 -1.420253991E+02  1.611404524E+02  1.907348633E-06  0.00000E+00  9.000E+00
#rwgt            1           1   2.6053141063496592E-002           6      204364           0
</event>
<event>
      5   9999  3.19816E-02  5.12036E+01 -1.00000E+00  1.38489E-01
      21    -1     0     0   502   501  0.000000000E+00  0.000000000E+00  4.010552736E+02  4.010552736E+02  0.000000000E+00  0.00000E+00  9.000E+00
      21    -1     0     0   511   502  0.000000000E+00  0.000000000E+00 -8.686040726E+02  8.686040726E+02  0.000000000E+00  0.00000E+00  9.000E+00
      25     1     1     2     0     0  2.749398371E+01 -3.056501672E+02  1.718900467E+02  3.732949665E+02  1.250000000E+02  0.00000E+00  9.000E+00
      25     1     1     2     0     0  1.830722387E+01  3.285424984E+02 -1.162772444E+02  3.707030149E+02  1.250000000E+02  0.00000E+00  9.000E+00
      21     1     1     2   511   501 -4.580120758E+01 -2.289233116E+01 -5.231616012E+02  5.256613648E+02  0.000000000E+00  0.00000E+00  9.000E+00
#rwgt            1           1   2.7979177489687083E-002           6      204435           0
</event>
<event>
      5   9999  3.19816E-02  4.26663E+01 -1.00000E+00  1.43123E-01
      21    -1     0     0   512   501  0.000000000E+00  0.000000000E+00  2.645121766E+02  2.645121766E+02  0.000000000E+00  0.00000E+00  9.000E+00
      21    -1     0     0   501   502  0.000000000E+00  0.000000000E+00 -8.101769319E+02  8.101769319E+02  0.000000000E+00  0.00000E+00  9.000E+00
      25     1     1     2     0     0 -5.327175523E+01  1.227282052E+02 -7.525004051E+02  7.744559070E+02  1.250000000E+02  0.00000E+00  9.000E+00
      25     1     1     2     0     0  1.063566609E+01 -1.211240131E+02  1.745112472E+02  2.467049236E+02  1.250000000E+02  0.00000E+00  9.000E+00
      21     1     1     2   512   502  4.263608914E+01 -1.604192132E+00  3.232440258E+01  5.352827787E+01  6.743495762E-07  0.00000E+00  9.000E+00
#rwgt            1           1   2.9686856276584586E-002           6      204522           0
</event>
<event>
      5   9999  3.19816E-02  4.35944E+01 -1.00000E+00  1.42560E-01
      21    -1     0     0   502   501  0.000000000E+00  0.000000000E+00  2.664677093E+02  2.664677093E+02  0.000000000E+00  0.00000E+00  9.000E+00
      21    -1     0     0   501   511  0.000000000E+00  0.000000000E+00 -3.307200860E+02  3.307200860E+02  0.000000000E+00  0.00000E+00  9.000E+00
      25     1     1     2     0     0  2.203980090E+02  8.848383965E+01 -5.537992533E+01  2.740376040E+02  1.250000000E+02  0.00000E+00  9.000E+00
      25     1     1     2     0     0 -2.021999230E+02 -1.280982719E+02  2.013851059E+01  2.707850360E+02  1.250000000E+02  0.00000E+00  9.000E+00
      21     1     1     2   502   511 -1.819808601E+01  3.961443225E+01 -2.901096188E+01  5.236515527E+01  5.840038640E-07  0.00000E+00  9.000E+00
#rwgt            1           1   2.9287243477731890E-002           6      204699           0
</event>
<event>
      5   9999  3.19816E-02  3.47030E+02 -1.00000E+00  1.03577E-01
      21    -1     0     0   502   501  0.000000000E+00  0.000000000E+00  1.008819290E+03  1.008819290E+03  0.000000000E+00  0.00000E+00  9.000E+00
      21    -1     0     0   501   512  0.000000000E+00  0.000000000E+00 -1.181146929E+03  1.181146929E+03  0.000000000E+00  0.00000E+00  9.000E+00
      25     1     1     2     0     0 -4.647724720E+01 -3.060979900E+02  9.119793003E+02  9.711783349E+02  1.250000000E+02  0.00000E+00  9.000E+00
      25     1     1     2     0     0 -1.541309184E+02  2.292619551E+01 -2.917937627E+02  3.536248724E+02  1.250000000E+02  0.00000E+00  9.000E+00
      21     1     1     2   502   512  2.006081656E+02  2.831717944E+02 -7.925131765E+02  8.651630114E+02  0.000000000E+00  0.00000E+00  9.000E+00
#rwgt            2          11   2.9419969379405344E-003           6      204783           0
</event>
<event>
      5   9999  3.19816E-02  1.32303E+02 -1.00000E+00  1.18596E-01
      21    -1     0     0   502   501  0.000000000E+00  0.000000000E+00  7.297095799E+02  7.297095799E+02  0.000000000E+00  0.00000E+00  9.000E+00
      21    -1     0     0   501   511  0.000000000E+00  0.000000000E+00 -1.019484359E+02  1.019484359E+02  0.000000000E+00  0.00000E+00  9.000E+00
      25     1     1     2     0     0 -2.783057088E+01  1.145191528E+02  3.106308162E+02  3.549727891E+02  1.250000000E+02  0.00000E+00  9.000E+00
      25     1     1     2     0     0  1.539955406E+02 -7.468882366E+01  2.518294408E+02  3.291445186E+02  1.250000000E+02  0.00000E+00  9.000E+00
      21     1     1     2   502   511 -1.261649697E+02 -3.983032910E+01  6.530088711E+01  1.475407081E+02  1.348699152E-06  0.00000E+00  9.000E+00
#rwgt            1           1   2.6355575437889082E-002           6      204818           0
</event>
<event>
      5   9999  3.19816E-02  1.15722E+02 -1.00000E+00  1.21041E-01
       1    -1     0     0   502     0  0.000000000E+00  0.000000000E+00  9.757670945E+02  9.757670945E+02  0.000000000E+00  0.00000E+00  9.000E+00
      21    -1     0     0   501   502  0.000000000E+00  0.000000000E+00 -1.498685254E+02  1.498685254E+02  0.000000000E+00  0.00000E+00  9.000E+00
      25     1     1     2     0     0 -7.464213031E+01 -1.608003007E+02  5.055991593E-02  2.169174656E+02  1.250000000E+02  0.00000E+00  9.000E+00
      25     1     1     2     0     0 -1.061939195E+01  8.255719687E+01  1.167002603E+02  1.901904651E+02  1.250000000E+02  0.00000E+00  9.000E+00
       1     1     1     2   501     0  8.526152226E+01  7.824310383E+01  7.091477489E+02  7.185276893E+02  7.629394531E-06  0.00000E+00  9.000E+00
#rwgt            1           1   2.9803300122232309E-002           6      204864           0
</event>
<event>
      5   9999  3.19816E-02  3.39379E+01 -1.00000E+00  1.49410E-01
      21    -1     0     0   502   501  0.000000000E+00  0.000000000E+00  1.618768891E+02  1.618768891E+02  0.000000000E+00  0.00000E+00  9.000E+00
      21    -1     0     0   501   511  0.000000000E+00  0.000000000E+00 -8.762014490E+02  8.762014490E+02  0.000000000E+00  0.00000E+00  9.000E+00
      25     1     1     2     0     0  9.106376609E+01 -2.034159088E+02  2.271915713E+00  2.555402180E+02  1.250000000E+02  0.00000E+00  9.000E+00
      25     1     1     2     0     0 -8.269105278E+01  2.363048175E+02 -6.222759446E+02  6.822976830E+02  1.250000000E+02  0.00000E+00  9.000E+00
      21     1     1     2   502   511 -8.372713312E+00 -3.288890874E+01 -9.432053103E+01  1.002404371E+02  1.907348633E-06  0.00000E+00  9.000E+00
#rwgt            2          11   2.0617793611544268E-003           6      204954           0
</event>
<event>
      5   9999  3.19816E-02  6.91939E+01 -1.00000E+00  1.31476E-01
      21    -1     0     0   502   501  0.000000000E+00  0.000000000E+00  6.465673416E+01  6.465673416E+01  0.000000000E+00  0.00000E+00  9.000E+00
      21    -1     0     0   512   502  0.000000000E+00  0.000000000E+00 -2.496788211E+03  2.496788211E+03  0.000000000E+00  0.00000E+00  9.000E+00
      25     1     1     2     0     0  1.401072969E+02 -2.440015385E+02 -4.019463455E+02  5.063128184E+02  1.250000000E+02  0.00000E+00  9.000E+00
      25     1     1     2     0     0 -1.180105368E+02  1.784307046E+02 -1.477193310E+03  1.497828120E+03  1.250000000E+02  0.00000E+00  9.000E+00
      21     1     1     2   512   501 -2.209676002E+01  6.557083382E+01 -5.529918210E+02  5.573040060E+02  1.078959322E-05  0.00000E+00  9.000E+00
#rwgt            1           1   3.1391787322949616E-002           6      204974           0
</event>
<event>
      5   9999  3.19816E-02  1.69067E+02 -1.00000E+00  1.14371E-01
      21    -1     0     0   502   501  0.000000000E+00  0.000000000E+00  1.923203753E+03  1.923203753E+03  0.000000000E+00  0.00000E+00  9.000E+00
      21    -1     0     0   501   511  0.000000000E+00  0.000000000E+00 -1.531196572E+02  1.531196572E+02  0.000000000E+00  0.00000E+00  9.000E+00
      25     1     1     2     0     0  4.298608253E+01  3.586756632E+02  1.246681782E+03  1.303969517E+03  1.250000000E+02  0.00000E+00  9.000E+00
      25     1     1     2     0     0  1.259201741E+02 -3.513137913E+02  3.157475611E+02  5.045778360E+02  1.250000000E+02  0.00000E+00  9.000E+00
      21     1     1     2   502   511 -1.689062566E+02 -7.361871876E+00  2.076547520E+02  2.677760570E+02  3.814697266E-06  0.00000E+00  9.000E+00
#rwgt            1           1   3.4391240263182056E-002           6      205037           0
</event>
<event>
      5   9999  3.19816E-02  1.75407E+01 -1.00000E+00  1.71212E-01
      21    -1     0     0   502   501  0.000000000E+00  0.000000000E+00  8.466391813E+01  8.466391813E+01  0.000000000E+00  0.00000E+00  9.000E+00
      21    -1     0     0   501   512  0.000000000E+00  0.000000000E+00 -8.377895466E+02  8.377895466E+02  0.000000000E+00  0.00000E+00  9.000E+00
      25     1     1     2     0     0  1.971576310E+02  2.892493650E+01 -5.324915964E+02  5.821340770E+02  1.250000000E+02  0.00000E+00  9.000E+00
      25     1     1     2     0     0 -1.880974653E+02 -1.390526875E+01 -1.598101839E+02  2.770168006E+02  1.250000000E+02  0.00000E+00  9.000E+00
      21     1     1     2   502   512 -9.060165639E+00 -1.501966775E+01 -6.082384823E+01  6.330258711E+01  9.536743164E-07  0.00000E+00  9.000E+00
#rwgt            1           1   3.1523509851495921E-002           6      205127           0
</event>
<event>
      5   9999  3.19816E-02  1.38761E+02 -1.00000E+00  1.17750E-01
      21    -1     0     0   502   501  0.000000000E+00  0.000000000E+00  7.997119120E+02  7.997119120E+02  0.000000000E+00  0.00000E+00  9.000E+00
      21    -1     0     0   511   502  0.000000000E+00  0.000000000E+00 -2.732005854E+02  2.732005854E+02  0.000000000E+00  0.00000E+00  9.000E+00
      25     1     1     2     0     0 -4.124260909E+02 -8.828173811E+01  3.712931787E+02  5.756496941E+02  1.250000000E+02  0.00000E+00  9.000E+00
      25     1     1     2     0     0  2.739606084E+02  9.733093339E+01  1.673138150E+02  3.579757509E+02  1.250000000E+02  0.00000E+00  9.000E+00
      21     1     1     2   511   501  1.384654826E+02 -9.049195284E+00 -1.209566707E+01  1.392870524E+02  2.274368290E-06  0.00000E+00  9.000E+00
#rwgt            2          11   4.1554872892601707E-003           6      205510           0
</event>
<event>
      5   9999  3.19816E-02  2.90342E+02 -1.00000E+00  1.06056E-01
       2    -1     0     0   502     0  0.000000000E+00  0.000000000E+00  4.417239552E+03  4.417239552E+03  0.000000000E+00  0.00000E+00  9.000E+00
      21    -1     0     0   501   502  0.000000000E+00  0.000000000E+00 -1.315531899E+02  1.315531899E+02  0.000000000E+00  0.00000E+00  9.000E+00
      25     1     1     2     0     0  1.228276067E+02 -3.078181998E+02  2.095623589E+02  4.115580729E+02  1.250000000E+02  0.00000E+00  9.000E+00
      25     1     1     2     0     0  1.110243396E+02  1.357371178E+02  4.434316227E+02  4.929579832E+02  1.250000000E+02  0.00000E+00  9.000E+00
       2     1     1     2   501     0 -2.338519464E+02  1.720810819E+02  3.632692380E+03  3.644276686E+03  6.103515625E-05  0.00000E+00  9.000E+00
#rwgt            1           1   2.6540829526273686E-002           6      205560           0
</event>
<event>
      5   9999  3.19816E-02  5.76101E+01 -1.00000E+00  1.35654E-01
      21    -1     0     0   502   501  0.000000000E+00  0.000000000E+00  1.131726263E+03  1.131726263E+03  0.000000000E+00  0.00000E+00  9.000E+00
      21    -1     0     0   501   511  0.000000000E+00  0.000000000E+00 -8.978904733E+02  8.978904733E+02  0.000000000E+00  0.00000E+00  9.000E+00
      25     1     1     2     0     0  6.312656654E+02 -6.139515660E+02 -2.290784552E+02  9.184415084E+02  1.250000000E+02  0.00000E+00  9.000E+00
      25     1     1     2     0     0 -6.888298500E+02  6.162499721E+02  4.828066178E+02  1.050227509E+03  1.250000000E+02  0.00000E+00  9.000E+00
      21     1     1     2   502   511  5.756418466E+01 -2.298406093E+00 -1.989237239E+01  6.094771944E+01  0.000000000E+00  0.00000E+00  9.000E+00
#rwgt            1           1   3.4060435201251182E-002           6      205595           0
</event>
<event>
      5   9999  3.19816E-02  4.30547E+01 -1.00000E+00  1.42885E-01
      21    -1     0     0   502   512  0.000000000E+00  0.000000000E+00  1.878275965E+02  1.878275965E+02  0.000000000E+00  0.00000E+00  9.000E+00
      21    -1     0     0   501   502  0.000000000E+00  0.000000000E+00 -8.873697336E+02  8.873697336E+02  0.000000000E+00  0.00000E+00  9.000E+00
      25     1     1     2     0     0  2.563065249E+02 -7.070105879E+01 -1.416084943E+02  3.261435881E+02  1.250000000E+02  0.00000E+00  9.000E+00
      25     1     1     2     0     0 -2.157096267E+02  5.636223486E+01 -6.216545332E+02  6.721508040E+02  1.250000000E+02  0.00000E+00  9.000E+00
      21     1     1     2   501   512 -4.059689816E+01  1.433882393E+01  6.372089041E+01  7.690293809E+01  1.907348633E-06  0.00000E+00  9.000E+00
#rwgt            1           1   2.9940692699537898E-002           6      205757           0
</event>
<event>
      5   9999  3.19816E-02  1.28128E+02 -1.00000E+00  1.19173E-01
      21    -1     0     0   502   501  0.000000000E+00  0.000000000E+00  1.758573274E+02  1.758573274E+02  0.000000000E+00  0.00000E+00  9.000E+00
      21    -1     0     0   511   502  0.000000000E+00  0.000000000E+00 -9.379059889E+02  9.379059889E+02  0.000000000E+00  0.00000E+00  9.000E+00
      25     1     1     2     0     0 -5.206682802E+01  2.799791538E+02 -2.415081644E+02  3.937644913E+02  1.250000000E+02  0.00000E+00  9.000E+00
      25     1     1     2     0     0  1.800599788E+02 -2.858452515E+02 -3.188996684E+02  4.810936523E+02  1.250000000E+02  0.00000E+00  9.000E+00
      21     1     1     2   511   501 -1.279931508E+02  5.866097698E+00 -2.016408287E+02  2.389051727E+02  4.672030912E-06  0.00000E+00  9.000E+00
#rwgt            1           1   2.8029607617127392E-002           6      205855           0
</event>
<event>
      5   9999  3.19816E-02  5.25187E+01 -1.00000E+00  1.37869E-01
      21    -1     0     0   502   501  0.000000000E+00  0.000000000E+00  7.861681493E+02  7.861681493E+02  0.000000000E+00  0.00000E+00  9.000E+00
      21    -1     0     0   512   502  0.000000000E+00  0.000000000E+00 -3.190518803E+03  3.190518803E+03  0.000000000E+00  0.00000E+00  9.000E+00
      25     1     1     2     0     0  3.948355288E+02  6.703426647E+01  6.609710911E+02  7.828770471E+02  1.250000000E+02  0.00000E+00  9.000E+00
      25     1     1     2     0     0 -4.435381295E+02 -4.738041152E+01 -7.750692457E+02  9.029553207E+02  1.250000000E+02  0.00000E+00  9.000E+00
      21     1     1     2   512   501  4.870260068E+01 -1.965385495E+01 -2.290252499E+03  2.290854585E+03  5.285799584E-05  0.00000E+00  9.000E+00
#rwgt            1           1   2.0472361472759257E-002           6      205895           0
</event>
<event>
      5   9999  3.19816E-02  3.99158E+01 -1.00000E+00  1.44897E-01
      21    -1     0     0   502   501  0.000000000E+00  0.000000000E+00  3.617739877E+02  3.617739877E+02  0.000000000E+00  0.00000E+00  9.000E+00
      21    -1     0     0   501   511  0.000000000E+00  0.000000000E+00 -1.538581844E+03  1.538581844E+03  0.000000000E+00  0.00000E+00  9.000E+00
      25     1     1     2     0     0  1.866360352E+02  4.243447664E+02 -1.625881279E+02  5.069135920E+02  1.250000000E+02  0.00000E+00  9.000E+00
      25     1     1     2     0     0 -1.981156353E+02 -4.625741666E+02 -1.662128227E+02  5.444964343E+02  1.250000000E+02  0.00000E+00  9.000E+00
      21     1     1     2   502   511  1.147960010E+01  3.822940022E+01 -8.480069053E+02  8.489458049E+02  1.078959322E-05  0.00000E+00  9.000E+00
#rwgt            1           1   2.9069012103568895E-002           6      206071           0
</event>
<event>
      5   9999  3.19816E-02  1.38633E+01 -1.00000E+00  1.80670E-01
      21    -1     0     0   512   501  0.000000000E+00  0.000000000E+00  8.179442319E+02  8.179442319E+02  0.000000000E+00  0.00000E+00  9.000E+00
      21    -1     0     0   501   502  0.000000000E+00  0.000000000E+00 -5.042330958E+01  5.042330958E+01  0.000000000E+00  0.00000E+00  9.000E+00
      25     1     1     2     0     0  9.730633016E+01  2.007521104E+01  1.194797628E+02  1.994290593E+02  1.250000000E+02  0.00000E+00  9.000E+00
      25     1     1     2     0     0 -8.344958867E+01 -2.050137955E+01  6.046480575E+02  6.233846436E+02  1.250000000E+02  0.00000E+00  9.000E+00
      21     1     1     2   512   502 -1.385674149E+01  4.261685099E-01  4.339310195E+01  4.555383849E+01  0.000000000E+00  0.00000E+00  9.000E+00
#rwgt            1           1   2.3285848219569024E-002           6      206286           0
</event>
<event>
      5   9999  3.19816E-02  1.53315E+02 -1.00000E+00  1.16019E-01
      21    -1     0     0   502   511  0.000000000E+00  0.000000000E+00  7.763420218E+02  7.763420218E+02  0.000000000E+00  0.00000E+00  9.000E+00
      21    -1     0     0   501   502  0.000000000E+00  0.000000000E+00 -1.000625701E+03  1.000625701E+03  0.000000000E+00  0.00000E+00  9.000E+00
      25     1     1     2     0     0 -5.490492490E+02  6.184945399E+02 -3.303698306E+02  8.993107353E+02  1.250000000E+02  0.00000E+00  9.000E+00
      25     1     1     2     0     0  5.204993298E+02 -4.678608564E+02  4.417451864E+01  7.123129378E+02  1.250000000E+02  0.00000E+00  9.000E+00
      21     1     1     2   501   511  2.854991920E+01 -1.506336835E+02  6.191163278E+01  1.653440497E+02  2.132480600E-06  0.00000E+00  9.000E+00
#rwgt            1           1   2.3971963462454674E-002           6      206531           0
</event>
<event>
      5   9999  3.19816E-02  7.15197E+01 -1.00000E+00  1.30750E-01
      21    -1     0     0   512   501  0.000000000E+00  0.000000000E+00  7.606995259E+01  7.606995259E+01  0.000000000E+00  0.00000E+00  9.000E+00
      21    -1     0     0   501   502  0.000000000E+00  0.000000000E+00 -1.636647535E+03  1.636647535E+03  0.000000000E+00  0.00000E+00  9.000E+00
      25     1     1     2     0     0  2.398431828E+01  1.720793972E+02 -1.307385419E+03  1.324789870E+03  1.250000000E+02  0.00000E+00  9.000E+00
      25     1     1     2     0     0 -7.330799690E+01 -1.202890556E+02 -2.542450754E+02  3.164001859E+02  1.250000000E+02  0.00000E+00  9.000E+00
      21     1     1     2   512   502  4.932367862E+01 -5.179034164E+01  1.052912391E+00  7.152743099E+01  1.639804917E-06  0.00000E+00  9.000E+00
#rwgt            1           1   2.8747001189705072E-002           6      206627           0
</event>
<event>
      5   9999  3.19816E-02  7.14101E+00 -1.00000E+00  2.14337E-01
      21    -1     0     0   502   511  0.000000000E+00  0.000000000E+00  7.544797697E+02  7.544797697E+02  0.000000000E+00  0.00000E+00  9.000E+00
      21    -1     0     0   501   502  0.000000000E+00  0.000000000E+00 -2.428287464E+02  2.428287464E+02  0.000000000E+00  0.00000E+00  9.000E+00
      25     1     1     2     0     0  8.759354817E+01 -2.402177783E+02  5.652353033E+02  6.328452882E+02  1.250000000E+02  0.00000E+00  9.000E+00
      25     1     1     2     0     0 -8.955578050E+01  2.470839075E+02 -1.073741685E+02  3.102013979E+02  1.250000000E+02  0.00000E+00  9.000E+00
      21     1     1     2   501   511  1.962232329E+00 -6.866129194E+00  5.378988860E+01  5.426183006E+01  0.000000000E+00  0.00000E+00  9.000E+00
#rwgt            1           1   3.0073769375767397E-002           6      206712           0
</event>
<event>
      5   9999  3.19816E-02  5.98797E+01 -1.00000E+00  1.34750E-01
      21    -1     0     0   502   501  0.000000000E+00  0.000000000E+00  9.796059145E+02  9.796059145E+02  0.000000000E+00  0.00000E+00  9.000E+00
      21    -1     0     0   501   512  0.000000000E+00  0.000000000E+00 -6.842364320E+02  6.842364320E+02  0.000000000E+00  0.00000E+00  9.000E+00
      25     1     1     2     0     0  1.944198674E+02  4.065800982E+01  3.579863322E+02  4.280553383E+02  1.250000000E+02  0.00000E+00  9.000E+00
      25     1     1     2     0     0 -1.348408246E+02 -4.665070265E+01  5.697978225E+02  6.005438324E+02  1.250000000E+02  0.00000E+00  9.000E+00
      21     1     1     2   502   512 -5.957904279E+01  5.992692831E+00 -6.324146722E+02  6.352431758E+02  7.629394531E-06  0.00000E+00  9.000E+00
#rwgt            1           1   2.6056233574216700E-002           6      207100           0
</event>
<event>
      5   9999  3.19816E-02  2.93869E+01 -1.00000E+00  1.53665E-01
      21    -1     0     0   502   501  0.000000000E+00  0.000000000E+00  9.544525778E+02  9.544525778E+02  0.000000000E+00  0.00000E+00  9.000E+00
      21    -1     0     0   511   502  0.000000000E+00  0.000000000E+00 -1.043727516E+02  1.043727516E+02  0.000000000E+00  0.00000E+00  9.000E+00
      25     1     1     2     0     0 -1.632176943E+00  6.687940593E+00  8.697233821E+02  8.786871764E+02  1.250000000E+02  0.00000E+00  9.000E+00
      25     1     1     2     0     0  1.747878087E+01 -3.143616951E+01  1.914620171E+01  1.314736383E+02  1.250000000E+02  0.00000E+00  9.000E+00
      21     1     1     2   511   501 -1.584660393E+01  2.474822891E+01 -3.878975762E+01  4.866451466E+01  1.507891493E-06  0.00000E+00  9.000E+00
#rwgt            1           1   2.8881410252492367E-002           6      207170           0
</event>
<event>
      5   9999  3.19816E-02  1.80339E+01 -1.00000E+00  1.70164E-01
      21    -1     0     0   512   501  0.000000000E+00  0.000000000E+00  6.769904791E+02  6.769904791E+02  0.000000000E+00  0.00000E+00  9.000E+00
      21    -1     0     0   501   502  0.000000000E+00  0.000000000E+00 -1.249573344E+02  1.249573344E+02  0.000000000E+00  0.00000E+00  9.000E+00
      25     1     1     2     0     0  7.427029568E+01 -2.471157376E+02  3.130778763E+02  4.245291759E+02  1.250000000E+02  0.00000E+00  9.000E+00
      25     1     1     2     0     0 -7.890684536E+01  2.296880457E+02  2.160174789E+02  3.482404913E+02  1.250000000E+02  0.00000E+00  9.000E+00
      21     1     1     2   512   502  4.636549676E+00  1.742769184E+01  2.293778951E+01  2.917814634E+01  5.840038640E-07  0.00000E+00  9.000E+00
#rwgt            1           1   3.3788837989244244E-002           6      207275           0
</event>
<event>
      5   9999  3.19816E-02  4.90248E+02 -1.00000E+00  9.90956E-02
      21    -1     0     0   502   501  0.000000000E+00  0.000000000E+00  4.399532782E+02  4.399532782E+02  0.000000000E+00  0.00000E+00  9.000E+00
       1    -1     0     0   501     0  0.000000000E+00  0.000000000E+00 -1.229426113E+03  1.229426113E+03  0.000000000E+00  0.00000E+00  9.000E+00
      25     1     1     2     0     0 -5.910822284E+01 -4.713138976E+02  1.546343920E+02  5.149440428E+02  1.250000000E+02  0.00000E+00  9.000E+00
      25     1     1     2     0     0 -1.094793415E+02  1.096469382E+01 -1.686823205E+02  2.370330694E+02  1.250000000E+02  0.00000E+00  9.000E+00
       1     1     1     2   502     0  1.685875643E+02  4.603492038E+02 -7.754249057E+02  9.174022785E+02  1.078959322E-05  0.00000E+00  9.000E+00
#rwgt            1           1   2.8616639588604966E-002           6      207430           0
</event>
<event>
      5   9999  3.19816E-02  1.03778E+02 -1.00000E+00  1.23108E-01
      21    -1     0     0   502   501  0.000000000E+00  0.000000000E+00  1.184660656E+02  1.184660656E+02  0.000000000E+00  0.00000E+00  9.000E+00
      21    -1     0     0   501   511  0.000000000E+00  0.000000000E+00 -1.403934351E+03  1.403934351E+03  0.000000000E+00  0.00000E+00  9.000E+00
      25     1     1     2     0     0 -7.252206875E+01 -2.641107534E+02 -5.378412831E+02  6.163701698E+02  1.250000000E+02  0.00000E+00  9.000E+00
      25     1     1     2     0     0  9.768894966E+01  3.647905634E+02 -5.104847388E+02  6.471745935E+02  1.250000000E+02  0.00000E+00  9.000E+00
      21     1     1     2   502   511 -2.516688091E+01 -1.006798099E+02 -2.371422631E+02  2.588556528E+02  4.672030912E-06  0.00000E+00  9.000E+00
#rwgt            1           1   3.0230973828937940E-002           6      207459           0
</event>
<event>
      5   9999  3.19816E-02  7.76455E+01 -1.00000E+00  1.28981E-01
      21    -1     0     0   502   501  0.000000000E+00  0.000000000E+00  8.436853148E+02  8.436853148E+02  0.000000000E+00  0.00000E+00  9.000E+00
      21    -1     0     0   512   502  0.000000000E+00  0.000000000E+00 -1.055538574E+03  1.055538574E+03  0.000000000E+00  0.00000E+00  9.000E+00
      25     1     1     2     0     0  1.186254727E+02  1.937785000E+02  7.979838538E+02  8.390621794E+02  1.250000000E+02  0.00000E+00  9.000E+00
      25     1     1     2     0     0 -7.098346423E+01 -1.324673428E+02 -3.979547288E+02  4.433725468E+02  1.250000000E+02  0.00000E+00  9.000E+00
      21     1     1     2   512   501 -4.764200846E+01 -6.131115727E+01 -6.118823838E+02  6.167891622E+02  0.000000000E+00  0.00000E+00  9.000E+00
#rwgt            1           1   2.7690597495714803E-002           6      207546           0
</event>
<event>
      5   9999  3.19816E-02  3.63469E+02 -1.00000E+00  1.02953E-01
      21    -1     0     0   502   501  0.000000000E+00  0.000000000E+00  6.792103739E+02  6.792103739E+02  0.000000000E+00  0.00000E+00  9.000E+00
      -1    -1     0     0     0   502  0.000000000E+00  0.000000000E+00 -1.159547662E+03  1.159547662E+03  0.000000000E+00  0.00000E+00  9.000E+00
      25     1     1     2     0     0  2.098967027E+02 -1.543260500E+02  5.475832970E+02  6.191491118E+02  1.250000000E+02  0.00000E+00  9.000E+00
      25     1     1     2     0     0  1.482899992E+02  9.258259777E+01 -1.306291696E+02  2.514964040E+02  1.250000000E+02  0.00000E+00  9.000E+00
      -1     1     1     2     0   501 -3.581867019E+02  6.174345218E+01 -8.972914151E+02  9.681125197E+02  0.000000000E+00  0.00000E+00  9.000E+00
#rwgt            1           1   2.8419237621849801E-002           6      207681           0
</event>
<event>
      5   9999  3.19816E-02  9.91688E+01 -1.00000E+00  1.23991E-01
      21    -1     0     0   502   501  0.000000000E+00  0.000000000E+00  2.112555370E+02  2.112555370E+02  0.000000000E+00  0.00000E+00  9.000E+00
      21    -1     0     0   501   511  0.000000000E+00  0.000000000E+00 -1.482553642E+03  1.482553642E+03  0.000000000E+00  0.00000E+00  9.000E+00
      25     1     1     2     0     0 -3.307367541E+02  5.255655385E+01 -8.835782632E+02  9.531445530E+02  1.250000000E+02  0.00000E+00  9.000E+00
      25     1     1     2     0     0  3.821243090E+02  3.225955305E+01 -7.197605084E+01  4.097135807E+02  1.250000000E+02  0.00000E+00  9.000E+00
      21     1     1     2   502   511 -5.138755496E+01 -8.481610690E+01 -3.157437906E+02  3.309510448E+02  0.000000000E+00  0.00000E+00  9.000E+00
#rwgt            2          11   2.8283447098264038E-003           6      207856           0
</event>
<event>
      5   9999  3.19816E-02  3.39834E+01 -1.00000E+00  1.49372E-01
      21    -1     0     0   502   501  0.000000000E+00  0.000000000E+00  1.292683794E+02  1.292683794E+02  0.000000000E+00  0.00000E+00  9.000E+00
      21    -1     0     0   512   502  0.000000000E+00  0.000000000E+00 -1.680306961E+03  1.680306961E+03  0.000000000E+00  0.00000E+00  9.000E+00
      25     1     1     2     0     0  2.677072835E+02  3.477117369E+02 -7.734353491E+02  8.979965929E+02  1.250000000E+02  0.00000E+00  9.000E+00
      25     1     1     2     0     0 -2.814467003E+02 -3.166295931E+02 -7.187785509E+02  8.436433782E+02  1.250000000E+02  0.00000E+00  9.000E+00
      21     1     1     2   512   501  1.373941674E+01 -3.108214379E+01 -5.882468120E+01  6.793536894E+01  9.536743164E-07  0.00000E+00  9.000E+00
#rwgt            1           1   2.7753583153168174E-002           6      207936           0
</event>
<event>
      5   9999  3.19816E-02  7.51805E+01 -1.00000E+00  1.29669E-01
      21    -1     0     0   502   501  0.000000000E+00  0.000000000E+00  2.414919995E+03  2.414919995E+03  0.000000000E+00  0.00000E+00  9.000E+00
      21    -1     0     0   511   502  0.000000000E+00  0.000000000E+00 -2.960642078E+02  2.960642078E+02  0.000000000E+00  0.00000E+00  9.000E+00
      25     1     1     2     0     0  6.593308365E+01  3.140227424E+02  1.973220470E+03  2.003043054E+03  1.250000000E+02  0.00000E+00  9.000E+00
      25     1     1     2     0     0 -1.450363507E+01 -3.688599680E+02  3.288275891E+02  5.099221654E+02  1.250000000E+02  0.00000E+00  9.000E+00
      21     1     1     2   511   501 -5.142944858E+01  5.483722567E+01 -1.831922715E+02  1.980189835E+02  5.394796609E-06  0.00000E+00  9.000E+00
#rwgt            1           1   2.8402489929000255E-002           6      208159           0
</event>
<event>
      5   9999  3.19816E-02  2.80959E+01 -1.00000E+00  1.55044E-01
      21    -1     0     0   502   501  0.000000000E+00  0.000000000E+00  8.837965275E+02  8.837965275E+02  0.000000000E+00  0.00000E+00  9.000E+00
      -4    -1     0     0     0   502  0.000000000E+00  0.000000000E+00 -2.499543350E+02  2.499543350E+02  0.000000000E+00  0.00000E+00  9.000E+00
      25     1     1     2     0     0  1.342963823E+02 -6.858989627E+00 -3.609190962E+00  1.836316702E+02  1.250000000E+02  0.00000E+00  9.000E+00
      25     1     1     2     0     0 -1.555586809E+02  2.522460703E+01  7.796459446E+02  8.051754982E+02  1.250000000E+02  0.00000E+00  9.000E+00
      -4     1     1     2     0   501  2.126229861E+01 -1.836561741E+01 -1.421945612E+02  1.449436941E+02  4.264961200E-06  0.00000E+00  9.000E+00
#rwgt            1           1   2.1569547498567047E-002           6      208281           0
</event>
<event>
      5   9999  3.19816E-02  4.38824E+02 -1.00000E+00  1.00489E-01
      21    -1     0     0   511   501  0.000000000E+00  0.000000000E+00  2.511968926E+03  2.511968926E+03  0.000000000E+00  0.00000E+00  9.000E+00
      21    -1     0     0   501   502  0.000000000E+00  0.000000000E+00 -2.501179607E+02  2.501179607E+02  0.000000000E+00  0.00000E+00  9.000E+00
      25     1     1     2     0     0 -1.690490471E+02  2.197566661E+02  1.580311603E+03  1.609310515E+03  1.250000000E+02  0.00000E+00  9.000E+00
      25     1     1     2     0     0 -4.489014484E+01  1.633836885E+02 -1.175322957E+02  2.411393691E+02  1.250000000E+02  0.00000E+00  9.000E+00
      21     1     1     2   511   502  2.139391919E+02 -3.831403546E+02  7.990716578E+02  9.116370020E+02  1.078959322E-05  0.00000E+00  9.000E+00
#rwgt            1           1   2.3846281119798609E-002           6      208428           0
</event>
<event>
      5   9999  3.19816E-02  2.16434E+02 -1.00000E+00  1.10414E-01
      21    -1     0     0   502   501  0.000000000E+00  0.000000000E+00  2.029596152E+02  2.029596152E+02  0.000000000E+00  0.00000E+00  9.000E+00
       2    -1     0     0   501     0  0.000000000E+00  0.000000000E+00 -1.604276903E+03  1.604276903E+03  0.000000000E+00  0.00000E+00  9.000E+00
      25     1     1     2     0     0  1.951688041E+02  3.665591549E+02 -1.370621506E+02  4.548269003E+02  1.250000000E+02  0.00000E+00  9.000E+00
      25     1     1     2     0     0 -3.872872544E+01 -2.169928299E+02 -5.398486810E+02  5.963618036E+02  1.250000000E+02  0.00000E+00  9.000E+00
       2     1     1     2   502     0 -1.564400786E+02 -1.495663251E+02 -7.244064561E+02  7.560478143E+02  1.525878906E-05  0.00000E+00  9.000E+00
#rwgt            1           1   2.9743674139347628E-002           6      208481           0
</event>
<event>
      5   9999  3.19816E-02  9.29352E+01 -1.00000E+00  1.25276E-01
      21    -1     0     0   502   501  0.000000000E+00  0.000000000E+00  1.229094066E+03  1.229094066E+03  0.000000000E+00  0.00000E+00  9.000E+00
       1    -1     0     0   501     0  0.000000000E+00  0.000000000E+00 -3.069349143E+02  3.069349143E+02  0.000000000E+00  0.00000E+00  9.000E+00
      25     1     1     2     0     0  6.882580354E+01 -1.424544516E+02  1.122063104E+03  1.140035469E+03  1.250000000E+02  0.00000E+00  9.000E+00
      25     1     1     2     0     0 -1.570240435E+02  1.131623660E+02 -7.916117647E+01  2.436262777E+02  1.250000000E+02  0.00000E+00  9.000E+00
       1     1     1     2   502     0  8.819824000E+01  2.929208560E+01 -1.207427759E+02  1.523672332E+02  3.303624740E-06  0.00000E+00  9.000E+00
#rwgt            1           1   2.2205145968929644E-002           6      208520           0
</event>
<event>
      5   9999  3.19816E-02  2.03756E+01 -1.00000E+00  1.65705E-01
      21    -1     0     0   502   501  0.000000000E+00  0.000000000E+00  3.523312897E+02  3.523312897E+02  0.000000000E+00  0.00000E+00  9.000E+00
      21    -1     0     0   501   511  0.000000000E+00  0.000000000E+00 -2.316977261E+02  2.316977261E+02  0.000000000E+00  0.00000E+00  9.000E+00
      25     1     1     2     0     0  1.666855173E+02 -1.276377351E+02  1.696046087E+02  2.974326417E+02  1.250000000E+02  0.00000E+00  9.000E+00
      25     1     1     2     0     0 -1.843245704E+02  1.174383090E+02 -2.192077601E+01  2.527307344E+02  1.250000000E+02  0.00000E+00  9.000E+00
      21     1     1     2   502   511  1.763905315E+01  1.019942608E+01 -2.705026910E+01  3.386563962E+01  0.000000000E+00  0.00000E+00  9.000E+00
#rwgt            1           1   2.6642251437598952E-002           6      208619           0
</event>
<event>
      5   9999  3.19816E-02  5.05423E+01 -1.00000E+00  1.38809E-01
      21    -1     0     0   502   501  0.000000000E+00  0.000000000E+00  6.032061049E+02  6.032061049E+02  0.000000000E+00  0.00000E+00  9.000E+00
      21    -1     0     0   501   512  0.000000000E+00  0.000000000E+00 -1.029582548E+02  1.029582548E+02  0.000000000E+00  0.00000E+00  9.000E+00
      25     1     1     2     0     0  1.054315646E+02  1.504477987E+02  3.293924091E+02  3.973345117E+02  1.250000000E+02  0.00000E+00  9.000E+00
      25     1     1     2     0     0 -5.663299451E+01 -1.372863280E+02  1.703863185E+02  2.582853644E+02  1.250000000E+02  0.00000E+00  9.000E+00
      21     1     1     2   502   512 -4.879857012E+01 -1.316147073E+01  4.691225145E-01  5.054448371E+01  1.476080176E-07  0.00000E+00  9.000E+00
#rwgt            1           1   3.0438482068402939E-002           6      208780           0
</event>
<event>
      5   9999  3.19816E-02  2.18590E+01 -1.00000E+00  1.63246E-01
      21    -1     0     0   511   501  0.000000000E+00  0.000000000E+00  6.305453290E+02  6.305453290E+02  0.000000000E+00  0.00000E+00  9.000E+00
      21    -1     0     0   501   502  0.000000000E+00  0.000000000E+00 -5.854458108E+02  5.854458108E+02  0.000000000E+00  0.00000E+00  9.000E+00
      25     1     1     2     0     0  2.004131413E+02  4.742417830E+01 -4.605509777E+02  5.197563688E+02  1.250000000E+02  0.00000E+00  9.000E+00
      25     1     1     2     0     0 -2.023040346E+02 -2.564715659E+01  5.548221654E+01  2.455360980E+02  1.250000000E+02  0.00000E+00  9.000E+00
      21     1     1     2   511   502  1.890893300E+00 -2.177702171E+01  4.501682793E+02  4.506986730E+02  0.000000000E+00  0.00000E+00  9.000E+00
#rwgt            1           1   2.8511765079459170E-002           6      208874           0
</event>
<event>
      5   9999  3.19816E-02  2.82619E+01 -1.00000E+00  1.54862E-01
      21    -1     0     0   512   501  0.000000000E+00  0.000000000E+00  3.274360583E+02  3.274360583E+02  0.000000000E+00  0.00000E+00  9.000E+00
      21    -1     0     0   501   502  0.000000000E+00  0.000000000E+00 -1.796122031E+03  1.796122031E+03  0.000000000E+00  0.00000E+00  9.000E+00
      25     1     1     2     0     0  1.215331327E+02 -7.436595925E+02 -6.616133903E+02  1.010523216E+03  1.250000000E+02  0.00000E+00  9.000E+00
      25     1     1     2     0     0 -1.082946283E+02  7.186900709E+02 -7.858183652E+02  1.077672792E+03  1.250000000E+02  0.00000E+00  9.000E+00
      21     1     1     2   512   502 -1.323850450E+01  2.496952161E+01 -2.125421723E+01  3.536208083E+01  3.371747881E-07  0.00000E+00  9.000E+00
#rwgt            1           1   3.0620565124674003E-002           6      208968           0
</event>
<event>
      5   9999  3.19816E-02  8.42127E+01 -1.00000E+00  1.27280E-01
      21    -1     0     0   502   501  0.000000000E+00  0.000000000E+00  1.610033699E+02  1.610033699E+02  0.000000000E+00  0.00000E+00  9.000E+00
      21    -1     0     0   501   511  0.000000000E+00  0.000000000E+00 -1.796746580E+03  1.796746580E+03  0.000000000E+00  0.00000E+00  9.000E+00
      25     1     1     2     0     0 -4.331877265E+02 -8.055861786E+01 -6.667309697E+02  8.088859520E+02  1.250000000E+02  0.00000E+00  9.000E+00
      25     1     1     2     0     0  4.137725211E+02  1.625026652E+02 -5.348710693E+02  7.066306505E+02  1.250000000E+02  0.00000E+00  9.000E+00
      21     1     1     2   502   511  1.941520537E+01 -8.194404733E+01 -4.341411709E+02  4.422333472E+02  7.629394531E-06  0.00000E+00  9.000E+00
#rwgt            1           1   2.4989286977244788E-002           6      209181           0
</event>
<event>
      5   9999  3.19816E-02  4.55912E+01 -1.00000E+00  1.41402E-01
      21    -1     0     0   502   501  0.000000000E+00  0.000000000E+00  3.309473698E+02  3.309473698E+02  0.000000000E+00  0.00000E+00  9.000E+00
      21    -1     0     0   512   502  0.000000000E+00  0.000000000E+00 -1.558048261E+02  1.558048261E+02  0.000000000E+00  0.00000E+00  9.000E+00
      25     1     1     2     0     0 -2.503454554E+01  1.116016153E+02  1.640388743E+02  2.358291782E+02  1.250000000E+02  0.00000E+00  9.000E+00
      25     1     1     2     0     0  3.027911877E+01 -1.568901124E+02 -3.956552177E+00  2.029088137E+02  1.250000000E+02  0.00000E+00  9.000E+00
      21     1     1     2   512   501 -5.244573234E+00  4.528849701E+01  1.506022162E+01  4.801420400E+01  7.152557373E-07  0.00000E+00  9.000E+00
#rwgt            1           1   2.7408987912855870E-002           6      209310           0
</event>
<event>
      5   9999  3.19816E-02  5.86964E+01 -1.00000E+00  1.35215E-01
      21    -1     0     0   502   511  0.000000000E+00  0.000000000E+00  7.478131722E+02  7.478131722E+02  0.000000000E+00  0.00000E+00  9.000E+00
      21    -1     0     0   501   502  0.000000000E+00  0.000000000E+00 -2.299864245E+02  2.299864245E+02  0.000000000E+00  0.00000E+00  9.000E+00
      25     1     1     2     0     0  2.353122933E+02  2.778805773E+02  1.280805105E+02  4.057328034E+02  1.250000000E+02  0.00000E+00  9.000E+00
      25     1     1     2     0     0 -2.455041703E+02 -2.200757886E+02  2.909343682E+02  4.571361471E+02  1.250000000E+02  0.00000E+00  9.000E+00
      21     1     1     2   501   511  1.019187702E+01 -5.780478867E+01  9.881186907E+01  1.149306461E+02  1.348699152E-06  0.00000E+00  9.000E+00
#rwgt            1           1   2.5887544253310524E-002           6      209418           0
</event>
<event>
      5   9999  3.19816E-02  2.36709E+02 -1.00000E+00  1.09047E-01
       2    -1     0     0   502     0  0.000000000E+00  0.000000000E+00  4.947896260E+03  4.947896260E+03  0.000000000E+00  0.00000E+00  9.000E+00
      21    -1     0     0   501   502  0.000000000E+00  0.000000000E+00 -4.701690060E+02  4.701690060E+02  0.000000000E+00  0.00000E+00  9.000E+00
      25     1     1     2     0     0 -1.055293779E+03  3.073467832E+02  8.575033337E+02  1.399658520E+03  1.250000000E+02  0.00000E+00  9.000E+00
      25     1     1     2     0     0  8.253433069E+02 -2.511889291E+02  7.842980181E+02  1.172619219E+03  1.250000000E+02  0.00000E+00  9.000E+00
       2     1     1     2   501     0  2.299504721E+02 -5.615785404E+01  2.835925902E+03  2.845787526E+03  4.315837288E-05  0.00000E+00  9.000E+00
#rwgt            2          18   5.0780868231341020E-004           6      209625           0
</event>
<event>
      5   9999  3.19816E-02  1.94649E+02 -1.00000E+00  1.12079E-01
      21    -1     0     0   502   501  0.000000000E+00  0.000000000E+00  6.646734471E+02  6.646734471E+02  0.000000000E+00  0.00000E+00  9.000E+00
       2    -1     0     0   501     0  0.000000000E+00  0.000000000E+00 -2.013018547E+03  2.013018547E+03  0.000000000E+00  0.00000E+00  9.000E+00
      25     1     1     2     0     0 -5.629411325E+01 -4.913475879E+02  5.860511309E+01  5.134696082E+02  1.250000000E+02  0.00000E+00  9.000E+00
      25     1     1     2     0     0  2.659122211E+01  2.989787278E+02  3.022753988E+02  4.439490843E+02  1.250000000E+02  0.00000E+00  9.000E+00
       2     1     1     2   502     0  2.970289114E+01  1.923688601E+02 -1.709225612E+03  1.720273301E+03  0.000000000E+00  0.00000E+00  9.000E+00
#rwgt            1           1   2.4895567157954879E-002           6      209644           0
</event>
<event>
      5   9999  3.19816E-02  1.76303E+02 -1.00000E+00  1.13679E-01
      21    -1     0     0   502   501  0.000000000E+00  0.000000000E+00  1.254202022E+03  1.254202022E+03  0.000000000E+00  0.00000E+00  9.000E+00
      21    -1     0     0   511   502  0.000000000E+00  0.000000000E+00 -1.599376451E+02  1.599376451E+02  0.000000000E+00  0.00000E+00  9.000E+00
      25     1     1     2     0     0  2.665262699E+02 -4.163234954E+01  9.940590672E+02  1.037568279E+03  1.250000000E+02  0.00000E+00  9.000E+00
      25     1     1     2     0     0 -9.075552807E+01  5.532447847E+01 -1.685606276E+01  1.649439015E+02  1.250000000E+02  0.00000E+00  9.000E+00
      21     1     1     2   511   501 -1.757707418E+02 -1.369212893E+01  1.170613726E+02  2.116274865E+02  3.015782986E-06  0.00000E+00  9.000E+00
#rwgt            1           1   3.0277439821798570E-002           6      209708           0
</event>
<event>
      5   9999  3.19816E-02  6.51573E+01 -1.00000E+00  1.32817E-01
       1    -1     0     0   502     0  0.000000000E+00  0.000000000E+00  1.926000393E+02  1.926000393E+02  0.000000000E+00  0.00000E+00  9.000E+00
      21    -1     0     0   501   502  0.000000000E+00  0.000000000E+00 -3.253558247E+02  3.253558247E+02  0.000000000E+00  0.00000E+00  9.000E+00
      25     1     1     2     0     0  2.876826068E+01  4.519951595E+01 -2.435719428E+02  2.789675615E+02  1.250000000E+02  0.00000E+00  9.000E+00
      25     1     1     2     0     0  3.484774806E+01 -5.928788926E+01  5.402596825E+01  1.525556443E+02  1.250000000E+02  0.00000E+00  9.000E+00
       1     1     1     2   501     0 -6.361600874E+01  1.408837331E+01  5.679018911E+01  8.643265824E+01  1.168007728E-06  0.00000E+00  9.000E+00
#rwgt            1           1   2.8088820711966535E-002           6      209749           0
</event>
<event>
      5   9999  3.19816E-02  1.25551E+02 -1.00000E+00  1.19540E-01
      21    -1     0     0   511   501  0.000000000E+00  0.000000000E+00  1.620664306E+02  1.620664306E+02  0.000000000E+00  0.00000E+00  9.000E+00
      21    -1     0     0   501   502  0.000000000E+00  0.000000000E+00 -2.231983336E+03  2.231983336E+03  0.000000000E+00  0.00000E+00  9.000E+00
      25     1     1     2     0     0 -3.037634717E+02  2.119414087E+02 -2.567723446E+02  4.677055103E+02  1.250000000E+02  0.00000E+00  9.000E+00
      25     1     1     2     0     0  2.642896837E+02 -9.275670746E+01 -1.765676305E+03  1.792119041E+03  1.250000000E+02  0.00000E+00  9.000E+00
      21     1     1     2   511   502  3.947378801E+01 -1.191847013E+02 -4.746825536E+01  1.342252146E+02  1.907348633E-06  0.00000E+00  9.000E+00
#rwgt            2          11   4.3350526617964083E-003           6      209954           0
</event>
<event>
      5   9999  3.19816E-02  3.13110E+01 -1.00000E+00  1.51761E-01
      21    -1     0     0   502   501  0.000000000E+00  0.000000000E+00  3.229587451E+02  3.229587451E+02  0.000000000E+00  0.00000E+00  9.000E+00
      21    -1     0     0   501   512  0.000000000E+00  0.000000000E+00 -1.033336690E+03  1.033336690E+03  0.000000000E+00  0.00000E+00  9.000E+00
      25     1     1     2     0     0  3.221413931E+02 -2.274912118E+02 -6.053175524E+02  7.331859708E+02  1.250000000E+02  0.00000E+00  9.000E+00
      25     1     1     2     0     0 -3.192123026E+02  2.586648658E+02  7.878320149E+01  4.366185976E+02  1.250000000E+02  0.00000E+00  9.000E+00
      21     1     1     2   502   512 -2.929090519E+00 -3.117365403E+01 -1.838435941E+02  1.864908667E+02  2.697398305E-06  0.00000E+00  9.000E+00
#rwgt            1           1   2.5618828778443476E-002           6      209989           0
</event>
<event>
      5   9999  3.19816E-02  2.74753E+02 -1.00000E+00  1.06848E-01
      21    -1     0     0   502   501  0.000000000E+00  0.000000000E+00  1.545745625E+02  1.545745625E+02  0.000000000E+00  0.00000E+00  9.000E+00
       2    -1     0     0   501     0  0.000000000E+00  0.000000000E+00 -1.164924158E+03  1.164924158E+03  0.000000000E+00  0.00000E+00  9.000E+00
      25     1     1     2     0     0 -6.086875180E+01 -2.228452165E+02 -2.288754733E+02  3.483876831E+02  1.250000000E+02  0.00000E+00  9.000E+00
      25     1     1     2     0     0  4.265696383E+01 -5.130386705E+01 -6.522915171E+02  6.675035031E+02  1.250000000E+02  0.00000E+00  9.000E+00
       2     1     1     2   502     0  1.821178797E+01  2.741490836E+02 -1.291826046E+02  3.036075338E+02  0.000000000E+00  0.00000E+00  9.000E+00
#rwgt            1           1   2.7688687985986695E-002           6      210101           0
</event>
<event>
      5   9999  3.19816E-02  3.97655E+01 -1.00000E+00  1.44999E-01
      21    -1     0     0   502   511  0.000000000E+00  0.000000000E+00  6.610174499E+02  6.610174499E+02  0.000000000E+00  0.00000E+00  9.000E+00
      21    -1     0     0   501   502  0.000000000E+00  0.000000000E+00 -9.588128240E+01  9.588128240E+01  0.000000000E+00  0.00000E+00  9.000E+00
      25     1     1     2     0     0  2.796686969E+01  6.997110754E+01  3.177471008E+01  1.493744754E+02  1.250000000E+02  0.00000E+00  9.000E+00
      25     1     1     2     0     0 -3.957742542E+01 -1.080038946E+02  1.643029325E+02  2.363295739E+02  1.250000000E+02  0.00000E+00  9.000E+00
      21     1     1     2   501   511  1.161055573E+01  3.803278711E+01  3.690585249E+02  3.711946830E+02  5.394796609E-06  0.00000E+00  9.000E+00
#rwgt            1           1   3.1496125601995120E-002           6      210128           0
</event>
<event>
      5   9999  3.19816E-02  1.11059E+02 -1.00000E+00  1.21813E-01
      21    -1     0     0   512   501  0.000000000E+00  0.000000000E+00  1.634302136E+03  1.634302136E+03  0.000000000E+00  0.00000E+00  9.000E+00
      21    -1     0     0   501   502  0.000000000E+00  0.000000000E+00 -3.249611230E+01  3.249611230E+01  0.000000000E+00  0.00000E+00  9.000E+00
      25     1     1     2     0     0  1.009087879E+02  7.461185390E+01  3.618201387E+02  4.028502513E+02  1.250000000E+02  0.00000E+00  9.000E+00
      25     1     1     2     0     0  1.499740177E+00 -3.163868344E+01  7.902837798E+02  8.007351049E+02  1.250000000E+02  0.00000E+00  9.000E+00
      21     1     1     2   512   502 -1.024085281E+02 -4.297317046E+01  4.497021047E+02  4.632128917E+02  5.394796609E-06  0.00000E+00  9.000E+00
#rwgt            1           1   2.8171758893113307E-002           6      210220           0
</event>
<event>
      5   9999  3.19816E-02  7.81715E+01 -1.00000E+00  1.28837E-01
      21    -1     0     0   502   501  0.000000000E+00  0.000000000E+00  3.037860446E+02  3.037860446E+02  0.000000000E+00  0.00000E+00  9.000E+00
      21    -1     0     0   511   502  0.000000000E+00  0.000000000E+00 -2.733855267E+03  2.733855267E+03  0.000000000E+00  0.00000E+00  9.000E+00
      25     1     1     2     0     0  6.675396842E+02 -4.153992066E+02 -4.790098123E+02  9.291077070E+02  1.250000000E+02  0.00000E+00  9.000E+00
      25     1     1     2     0     0 -5.952053622E+02  3.857591421E+02 -1.723793175E+03  1.868198985E+03  1.250000000E+02  0.00000E+00  9.000E+00
      21     1     1     2   511   501 -7.233432207E+01  2.964006451E+01 -2.272662353E+02  2.403346194E+02  2.697398305E-06  0.00000E+00  9.000E+00
#rwgt            1           1   2.5522908206481221E-002           6      210299           0
</event>
<event>
      5   9999  3.22007E-02  2.71557E+01 -1.00000E+00  1.56107E-01
      21    -1     0     0   502   512  0.000000000E+00  0.000000000E+00  4.426166548E+02  4.426166548E+02  0.000000000E+00  0.00000E+00  9.000E+00
      21    -1     0     0   501   502  0.000000000E+00  0.000000000E+00 -6.239891567E+02  6.239891567E+02  0.000000000E+00  0.00000E+00  9.000E+00
      25     1     1     2     0     0  4.117855650E+02 -1.847593407E+01 -1.935365145E+02  4.722182696E+02  1.250000000E+02  0.00000E+00  9.000E+00
      25     1     1     2     0     0 -4.389384179E+02  1.886685470E+01 -1.095069602E+02  4.697229686E+02  1.250000000E+02  0.00000E+00  9.000E+00
      21     1     1     2   501   512  2.715285288E+01 -3.909206265E-01  1.216709728E+02  1.246645733E+02  1.907348633E-06  0.00000E+00  9.000E+00
#rwgt            1           1   3.1193036237011692E-002           6      210400           0
</event>
<event>
      5   9999  3.19816E-02  1.60985E+02 -1.00000E+00  1.15190E-01
      21    -1     0     0   502   511  0.000000000E+00  0.000000000E+00  2.569876611E+03  2.569876611E+03  0.000000000E+00  0.00000E+00  9.000E+00
      21    -1     0     0   501   502  0.000000000E+00  0.000000000E+00 -1.186505915E+02  1.186505915E+02  0.000000000E+00  0.00000E+00  9.000E+00
      25     1     1     2     0     0 -2.233335621E+01 -1.479465151E+02  8.550840793E+02  8.770294937E+02  1.250000000E+02  0.00000E+00  9.000E+00
      25     1     1     2     0     0  1.832207656E+02  1.423406634E+02  6.437302077E+01  2.712924606E+02  1.250000000E+02  0.00000E+00  9.000E+00
      21     1     1     2   501   511 -1.608874094E+02  5.605851771E+00  1.531768920E+03  1.540205249E+03  2.157918644E-05  0.00000E+00  9.000E+00
#rwgt            1           1   2.7686873068162466E-002           6      210577           0
</event>
<event>
      5   9999  3.19816E-02  8.41321E+00 -1.00000E+00  2.04851E-01
      21    -1     0     0   512   501  0.000000000E+00  0.000000000E+00  1.749642324E+02  1.749642324E+02  0.000000000E+00  0.00000E+00  9.000E+00
      21    -1     0     0   501   502  0.000000000E+00  0.000000000E+00 -2.834624151E+02  2.834624151E+02  0.000000000E+00  0.00000E+00  9.000E+00
      25     1     1     2     0     0 -6.649477179E+01  1.255728815E+02  7.382251194E-01  1.892502265E+02  1.250000000E+02  0.00000E+00  9.000E+00
      25     1     1     2     0     0  6.701767874E+01 -1.339698216E+02 -1.381523564E+02  2.390614062E+02  1.250000000E+02  0.00000E+00  9.000E+00
      21     1     1     2   512   502 -5.229069448E-01  8.396940053E+00  2.891594864E+01  3.011501485E+01  4.768371582E-07  0.00000E+00  9.000E+00
#rwgt            1           1   2.6127421650274478E-002           6      210619           0
</event>
<event>
      5   9999  3.19816E-02  2.98289E+01 -1.00000E+00  1.53213E-01
      21    -1     0     0   502   501  0.000000000E+00  0.000000000E+00  2.583416329E+02  2.583416329E+02  0.000000000E+00  0.00000E+00  9.000E+00
      -1    -1     0     0     0   502  0.000000000E+00  0.000000000E+00 -3.192230648E+02  3.192230648E+02  0.000000000E+00  0.00000E+00  9.000E+00
      25     1     1     2     0     0  1.334239780E+02  4.619917728E+01 -1.880254020E+02  2.662984673E+02  1.250000000E+02  0.00000E+00  9.000E+00
      25     1     1     2     0     0 -1.149254732E+02 -2.279903563E+01  1.812966750E+02  2.494416661E+02  1.250000000E+02  0.00000E+00  9.000E+00
      -1     1     1     2     0   501 -1.849850482E+01 -2.340014165E+01 -5.415270485E+01  6.182456431E+01  9.536743164E-07  0.00000E+00  9.000E+00
#rwgt            1           1   2.8368286653609468E-002           6      210816           0
</event>
<event>
      5   9999  3.19816E-02  1.10382E+01 -1.00000E+00  1.90926E-01
      21    -1     0     0   502   511  0.000000000E+00  0.000000000E+00  2.556264856E+02  2.556264856E+02  0.000000000E+00  0.00000E+00  9.000E+00
      21    -1     0     0   501   502  0.000000000E+00  0.000000000E+00 -4.607223285E+02  4.607223285E+02  0.000000000E+00  0.00000E+00  9.000E+00
      25     1     1     2     0     0 -1.785275953E+02 -2.080224634E+02  6.100872317E+01  3.073963433E+02  1.250000000E+02  0.00000E+00  9.000E+00
      25     1     1     2     0     0  1.787100101E+02  1.969857986E+02 -2.680261653E+02  3.977482846E+02  1.250000000E+02  0.00000E+00  9.000E+00
      21     1     1     2   501   511 -1.824148297E-01  1.103666480E+01  1.921599307E+00  1.120418623E+01  5.575503985E-08  0.00000E+00  9.000E+00
#rwgt            2          11   3.0615443865849310E-003           6      211037           0
</event>
<event>
      5   9999  3.19816E-02  2.27220E+02 -1.00000E+00  1.09667E-01
       3    -1     0     0   502     0  0.000000000E+00  0.000000000E+00  2.655540762E+02  2.655540762E+02  0.000000000E+00  0.00000E+00  9.000E+00
      21    -1     0     0   501   502  0.000000000E+00  0.000000000E+00 -1.384644881E+03  1.384644881E+03  0.000000000E+00  0.00000E+00  9.000E+00
      25     1     1     2     0     0 -3.354753591E+02  9.100163999E+01 -2.123657693E+02  4.260859479E+02  1.250000000E+02  0.00000E+00  9.000E+00
      25     1     1     2     0     0  5.617419753E+02 -7.021368782E+01 -7.506024902E+02  9.484266482E+02  1.250000000E+02  0.00000E+00  9.000E+00
       3     1     1     2   501     0 -2.262666162E+02 -2.078795217E+01 -1.561225453E+02  2.756863612E+02  6.031565972E-06  0.00000E+00  9.000E+00
#rwgt            2          19   2.9991058799188166E-005           6      211132           0
</event>
<event>
      5   9999  3.19816E-02  4.51249E+01 -1.00000E+00  1.41666E-01
      21    -1     0     0   511   501  0.000000000E+00  0.000000000E+00  4.635020685E+02  4.635020685E+02  0.000000000E+00  0.00000E+00  9.000E+00
      21    -1     0     0   501   502  0.000000000E+00  0.000000000E+00 -9.107176036E+02  9.107176036E+02  0.000000000E+00  0.00000E+00  9.000E+00
      25     1     1     2     0     0  3.973570144E+02  9.129197659E+01  2.509832053E+02  4.948175333E+02  1.250000000E+02  0.00000E+00  9.000E+00
      25     1     1     2     0     0 -3.897454207E+02 -1.357702591E+02 -7.118301480E+02  8.322633092E+02  1.250000000E+02  0.00000E+00  9.000E+00
      21     1     1     2   511   502 -7.611593739E+00  4.447828252E+01  1.363140769E+01  4.713882954E+01  1.685873940E-07  0.00000E+00  9.000E+00
#rwgt            1           1   2.8733158837246246E-002           6      211151           0
</event>
<event>
      5   9999  3.19816E-02  2.46618E+02 -1.00000E+00  1.08433E-01
      21    -1     0     0   502   501  0.000000000E+00  0.000000000E+00  7.262581562E+02  7.262581562E+02  0.000000000E+00  0.00000E+00  9.000E+00
      21    -1     0     0   512   502  0.000000000E+00  0.000000000E+00 -1.268399482E+03  1.268399482E+03  0.000000000E+00  0.00000E+00  9.000E+00
      25     1     1     2     0     0  2.170408826E+02  7.046930497E+02 -1.251461935E+02  7.582780551E+02  1.250000000E+02  0.00000E+00  9.000E+00
      25     1     1     2     0     0  2.886615783E+01 -7.234082092E+02  1.958747252E+01  7.349567071E+02  1.250000000E+02  0.00000E+00  9.000E+00
      21     1     1     2   512   501 -2.459070405E+02  1.871515945E+01 -4.365826049E+02  5.014228760E+02  7.629394531E-06  0.00000E+00  9.000E+00
#rwgt            2          11   3.2048094731416997E-003           6      211468           0
</event>
<event>
      5   9999  3.19816E-02  2.82838E+02 -1.00000E+00  1.06430E-01
      21    -1     0     0   502   511  0.000000000E+00  0.000000000E+00  1.206799232E+03  1.206799232E+03  0.000000000E+00  0.00000E+00  9.000E+00
      21    -1     0     0   501   502  0.000000000E+00  0.000000000E+00 -1.964666844E+02  1.964666844E+02  0.000000000E+00  0.00000E+00  9.000E+00
      25     1     1     2     0     0 -1.595657092E+02 -1.839008900E+02  1.848329638E+02  3.302559271E+02  1.250000000E+02  0.00000E+00  9.000E+00
      25     1     1     2     0     0 -5.911551966E+01  4.525060752E+00 -5.448388512E+01  1.486896586E+02  1.250000000E+02  0.00000E+00  9.000E+00
      21     1     1     2   501   511  2.186812289E+02  1.793758292E+02  8.799834689E+02  9.243203305E+02  1.525878906E-05  0.00000E+00  9.000E+00
#rwgt            1           1   2.9070397985354851E-002           6      211488           0
</event>
<event>
      5   9999  3.19816E-02  8.70153E+01 -1.00000E+00  1.26607E-01
      21    -1     0     0   502   501  0.000000000E+00  0.000000000E+00  1.728348244E+03  1.728348244E+03  0.000000000E+00  0.00000E+00  9.000E+00
      21    -1     0     0   501   512  0.000000000E+00  0.000000000E+00 -6.378272290E+02  6.378272290E+02  0.000000000E+00  0.00000E+00  9.000E+00
      25     1     1     2     0     0  3.071796566E+02 -3.222255090E+02 -1.971224229E+02  5.026637740E+02  1.250000000E+02  0.00000E+00  9.000E+00
      25     1     1     2     0     0 -2.290062509E+02  3.604430965E+02  1.536630994E+03  1.599757138E+03  1.250000000E+02  0.00000E+00  9.000E+00
      21     1     1     2   502   512 -7.817340565E+01 -3.821758742E+01 -2.489875562E+02  2.637545610E+02  0.000000000E+00  0.00000E+00  9.000E+00
#rwgt            1           1   3.0157682374785527E-002           6      211531           0
</event>
<event>
      5   9999  3.19816E-02  6.33582E+01 -1.00000E+00  1.33452E-01
      21    -1     0     0   511   501  0.000000000E+00  0.000000000E+00  2.953854798E+02  2.953854798E+02  0.000000000E+00  0.00000E+00  9.000E+00
      21    -1     0     0   501   502  0.000000000E+00  0.000000000E+00 -3.400583518E+02  3.400583518E+02  0.000000000E+00  0.00000E+00  9.000E+00
      25     1     1     2     0     0  5.245771746E+01  4.785062403E+01  4.273919503E+01  1.499771087E+02  1.250000000E+02  0.00000E+00  9.000E+00
      25     1     1     2     0     0 -4.566906263E+01  1.514286611E+01 -2.649940948E+02  2.969205954E+02  1.250000000E+02  0.00000E+00  9.000E+00
      21     1     1     2   511   502 -6.788654829E+00 -6.299349014E+01  1.775820277E+02  1.885461275E+02  3.814697266E-06  0.00000E+00  9.000E+00
#rwgt            1           1   2.7754719375025091E-002           6      211635           0
</event>
<event>
      5   9999  3.19816E-02  3.89730E+01 -1.00000E+00  1.45544E-01
      21    -1     0     0   512   501  0.000000000E+00  0.000000000E+00  1.038767890E+02  1.038767890E+02  0.000000000E+00  0.00000E+00  9.000E+00
      21    -1     0     0   501   502  0.000000000E+00  0.000000000E+00 -1.238178531E+03  1.238178531E+03  0.000000000E+00  0.00000E+00  9.000E+00
      25     1     1     2     0     0 -1.218055010E+01  2.735847214E+02 -7.893054597E+02  8.447633244E+02  1.250000000E+02  0.00000E+00  9.000E+00
      25     1     1     2     0     0 -1.215000489E+01 -2.431394032E+02 -3.628063614E+02  4.544423483E+02  1.250000000E+02  0.00000E+00  9.000E+00
      21     1     1     2   512   502  2.433055500E+01 -3.044531815E+01  1.781007954E+01  4.284964687E+01  0.000000000E+00  0.00000E+00  9.000E+00
#rwgt            1           1   3.0186235477121539E-002           6      211683           0
</event>
<event>
      5   9999  3.19816E-02  3.00746E+01 -1.00000E+00  1.52965E-01
      21    -1     0     0   502   501  0.000000000E+00  0.000000000E+00  3.569080136E+02  3.569080136E+02  0.000000000E+00  0.00000E+00  9.000E+00
      21    -1     0     0   501   511  0.000000000E+00  0.000000000E+00 -5.399588754E+02  5.399588754E+02  0.000000000E+00  0.00000E+00  9.000E+00
      25     1     1     2     0     0  7.858407791E+01  3.482687181E+02  7.267173604E+01  3.851918205E+02  1.250000000E+02  0.00000E+00  9.000E+00
      25     1     1     2     0     0 -5.420964192E+01 -3.658859543E+02 -1.794666108E+02  4.297027824E+02  1.250000000E+02  0.00000E+00  9.000E+00
      21     1     1     2   502   511 -2.437443599E+01  1.761723616E+01 -7.625598705E+01  8.197228618E+01  1.348699152E-06  0.00000E+00  9.000E+00
#rwgt            2          11   2.0164739720807743E-003           6      211819           0
</event>
<event>
      5   9999  3.19816E-02  1.27769E+02 -1.00000E+00  1.19223E-01
       1    -1     0     0   502     0  0.000000000E+00  0.000000000E+00  1.473294700E+03  1.473294700E+03  0.000000000E+00  0.00000E+00  9.000E+00
      21    -1     0     0   501   502  0.000000000E+00  0.000000000E+00 -2.470039585E+02  2.470039585E+02  0.000000000E+00  0.00000E+00  9.000E+00
      25     1     1     2     0     0  2.023198303E+02 -2.747212096E+02  6.387756923E+02  7.348907686E+02  1.250000000E+02  0.00000E+00  9.000E+00
      25     1     1     2     0     0 -2.586710592E+02  3.893918376E+02  6.750175578E+02  8.305482668E+02  1.250000000E+02  0.00000E+00  9.000E+00
       1     1     1     2   501     0  5.635122892E+01 -1.146706280E+02 -8.750250844E+01  1.548596232E+02  3.814697266E-06  0.00000E+00  9.000E+00
#rwgt            1           1   2.8800084028734851E-002           6      211839           0
</event>
<event>
      5   9999  3.19816E-02  1.21712E+02 -1.00000E+00  1.20108E-01
      21    -1     0     0   511   501  0.000000000E+00  0.000000000E+00  6.939979725E+02  6.939979725E+02  0.000000000E+00  0.00000E+00  9.000E+00
      21    -1     0     0   501   502  0.000000000E+00  0.000000000E+00 -2.207654047E+03  2.207654047E+03  0.000000000E+00  0.00000E+00  9.000E+00
      25     1     1     2     0     0 -5.311551304E+02 -8.971768911E+02 -1.085424302E+02  1.055679215E+03  1.250000000E+02  0.00000E+00  9.000E+00
      25     1     1     2     0     0  4.095966015E+02  9.032831403E+02 -1.404905902E+03  1.724260827E+03  1.250000000E+02  0.00000E+00  9.000E+00
      21     1     1     2   511   502  1.215585289E+02 -6.106249225E+00 -2.077427764E-01  1.217119771E+02  2.698878338E-06  0.00000E+00  9.000E+00
#rwgt            2          11   1.5732248612943284E-002           6      211921           0
</event>
<event>
      5   9999  3.19816E-02  2.00092E+02 -1.00000E+00  1.11641E-01
      21    -1     0     0   502   501  0.000000000E+00  0.000000000E+00  3.287555615E+02  3.287555615E+02  0.000000000E+00  0.00000E+00  9.000E+00
       2    -1     0     0   501     0  0.000000000E+00  0.000000000E+00 -9.916689609E+02  9.916689609E+02  0.000000000E+00  0.00000E+00  9.000E+00
      25     1     1     2     0     0  3.460272088E+02 -1.253300865E+02  9.271703393E+01  3.995796644E+02  1.250000000E+02  0.00000E+00  9.000E+00
      25     1     1     2     0     0 -1.464145308E+02  1.391679479E+02 -1.450936943E+02  2.783560897E+02  1.250000000E+02  0.00000E+00  9.000E+00
       2     1     1     2   502     0 -1.996126780E+02 -1.383786139E+01 -6.105367391E+02  6.424887683E+02  1.078959322E-05  0.00000E+00  9.000E+00
#rwgt            2          13   9.8504101492199471E-004           6      211941           0
</event>
<event>
      5   9999  3.19816E-02  3.96988E+02 -1.00000E+00  1.01784E-01
      21    -1     0     0   502   501  0.000000000E+00  0.000000000E+00  1.000317080E+03  1.000317080E+03  0.000000000E+00  0.00000E+00  9.000E+00
       4    -1     0     0   501     0  0.000000000E+00  0.000000000E+00 -1.541264687E+03  1.541264687E+03  0.000000000E+00  0.00000E+00  9.000E+00
      25     1     1     2     0     0  3.436956981E+02  1.200456044E+02  3.830510079E+02  5.430384467E+02  1.250000000E+02  0.00000E+00  9.000E+00
      25     1     1     2     0     0 -3.241978594E+02 -5.165541583E+02  3.148581370E+02  6.976339276E+02  1.250000000E+02  0.00000E+00  9.000E+00
       4     1     1     2   502     0 -1.949783863E+01  3.965085539E+02 -1.238856752E+03  1.300909393E+03  0.000000000E+00  0.00000E+00  9.000E+00
#rwgt            1           1   2.7124961649862247E-002           6      211990           0
</event>
<event>
      5   9999  3.19816E-02  2.32087E+02 -1.00000E+00  1.09345E-01
      21    -1     0     0   502   511  0.000000000E+00  0.000000000E+00  7.430553081E+02  7.430553081E+02  0.000000000E+00  0.00000E+00  9.000E+00
      21    -1     0     0   501   502  0.000000000E+00  0.000000000E+00 -3.288352682E+02  3.288352682E+02  0.000000000E+00  0.00000E+00  9.000E+00
      25     1     1     2     0     0  1.520138649E+02 -2.151219430E+02 -1.662743436E+02  3.356453825E+02  1.250000000E+02  0.00000E+00  9.000E+00
      25     1     1     2     0     0  5.731404778E+01  1.148903298E+02  1.064237325E+02  2.084123288E+02  1.250000000E+02  0.00000E+00  9.000E+00
      21     1     1     2   501   511 -2.093279127E+02  1.002316132E+02  4.740706509E+02  5.278328650E+02  5.394796609E-06  0.00000E+00  9.000E+00
#rwgt            1           1   2.7730343222254310E-002           6      212049           0
</event>
<event>
      5   9999  3.19816E-02  3.97525E+01 -1.00000E+00  1.45008E-01
      21    -1     0     0   502   501  0.000000000E+00  0.000000000E+00  7.553281885E+02  7.553281885E+02  0.000000000E+00  0.00000E+00  9.000E+00
      21    -1     0     0   501   512  0.000000000E+00  0.000000000E+00 -8.556493513E+01  8.556493513E+01  0.000000000E+00  0.00000E+00  9.000E+00
      25     1     1     2     0     0  1.421195672E+02 -9.841596861E+01  4.938657940E+02  5.379703493E+02  1.250000000E+02  0.00000E+00  9.000E+00
      25     1     1     2     0     0 -1.529488271E+02  6.016694334E+01  1.411374269E+02  2.501163291E+02  1.250000000E+02  0.00000E+00  9.000E+00
      21     1     1     2   502   512  1.082925988E+01  3.824902527E+01  3.476003248E+01  5.280644527E+01  9.536743164E-07  0.00000E+00  9.000E+00
#rwgt            1           1   2.7608966523570550E-002           6      212110           0
</event>
<event>
      5   9999  3.19816E-02  5.91665E+01 -1.00000E+00  1.35029E-01
      21    -1     0     0   502   501  0.000000000E+00  0.000000000E+00  8.732222539E+02  8.732222539E+02  0.000000000E+00  0.00000E+00  9.000E+00
      21    -1     0     0   501   511  0.000000000E+00  0.000000000E+00 -1.658274318E+02  1.658274318E+02  0.000000000E+00  0.00000E+00  9.000E+00
      25     1     1     2     0     0 -5.632667686E+01  2.430406153E+02  3.707286768E+02  4.640109772E+02  1.250000000E+02  0.00000E+00  9.000E+00
      25     1     1     2     0     0  1.148812284E+02 -2.515278694E+02  3.908395047E+02  4.948176272E+02  1.250000000E+02  0.00000E+00  9.000E+00
      21     1     1     2   502   511 -5.855455156E+01  8.487254168E+00 -5.417335948E+01  8.022108120E+01  1.651812370E-06  0.00000E+00  9.000E+00
#rwgt            1           1   2.7563715887841223E-002           6      212205           0
</event>
<event>
      5   9999  3.19816E-02  8.48149E+01 -1.00000E+00  1.27133E-01
      21    -1     0     0   502   501  0.000000000E+00  0.000000000E+00  3.171103956E+02  3.171103956E+02  0.000000000E+00  0.00000E+00  9.000E+00
      21    -1     0     0   501   512  0.000000000E+00  0.000000000E+00 -5.952579279E+02  5.952579279E+02  0.000000000E+00  0.00000E+00  9.000E+00
      25     1     1     2     0     0  8.766658834E+00  1.543630085E+02  1.279801328E+02  2.364502212E+02  1.250000000E+02  0.00000E+00  9.000E+00
      25     1     1     2     0     0  5.541845521E+01 -9.892076003E+01  7.692956755E+01  1.854715081E+02  1.250000000E+02  0.00000E+00  9.000E+00
      21     1     1     2   502   512 -6.418511404E+01 -5.544224849E+01 -4.830572326E+02  4.904465942E+02  0.000000000E+00  0.00000E+00  9.000E+00
#rwgt            1           1   2.8461127997988760E-002           6      212271           0
</event>
<event>
      5   9999  3.19816E-02  3.42414E+01 -1.00000E+00  1.49155E-01
      21    -1     0     0   502   511  0.000000000E+00  0.000000000E+00  2.357194802E+02  2.357194802E+02  0.000000000E+00  0.00000E+00  9.000E+00
      21    -1     0     0   501   502  0.000000000E+00  0.000000000E+00 -4.175259431E+02  4.175259431E+02  0.000000000E+00  0.00000E+00  9.000E+00
      25     1     1     2     0     0 -1.420777639E+02 -2.695699302E+01 -2.991185350E+02  3.549784056E+02  1.250000000E+02  0.00000E+00  9.000E+00
      25     1     1     2     0     0  1.342925544E+02 -6.387591413E+00  8.036411927E+00  1.837522120E+02  1.250000000E+02  0.00000E+00  9.000E+00
      21     1     1     2   501   511  7.785209445E+00  3.334458443E+01  1.092756602E+02  1.145148056E+02  2.697398305E-06  0.00000E+00  9.000E+00
#rwgt            1           1   2.7240172467112706E-002           6      212350           0
</event>
<event>
      5   9999  3.19816E-02  1.65960E+01 -1.00000E+00  1.73344E-01
      21    -1     0     0   502   512  0.000000000E+00  0.000000000E+00  1.981046238E+02  1.981046238E+02  0.000000000E+00  0.00000E+00  9.000E+00
      21    -1     0     0   501   502  0.000000000E+00  0.000000000E+00 -4.791630380E+02  4.791630380E+02  0.000000000E+00  0.00000E+00  9.000E+00
      25     1     1     2     0     0  1.640347053E+02 -6.568491644E+01  2.821649602E+01  2.182729104E+02  1.250000000E+02  0.00000E+00  9.000E+00
      25     1     1     2     0     0 -1.725600597E+02  5.144600534E+01 -3.511502264E+02  4.139506578E+02  1.250000000E+02  0.00000E+00  9.000E+00
      21     1     1     2   501   512  8.525354393E+00  1.423891109E+01  4.187531613E+01  4.504409348E+01  4.768371582E-07  0.00000E+00  9.000E+00
#rwgt            1           1   2.6537762855057056E-002           6      212422           0
</event>
<event>
      5   9999  3.19816E-02  1.64092E+02 -1.00000E+00  1.14869E-01
      21    -1     0     0   511   501  0.000000000E+00  0.000000000E+00  7.832093744E+02  7.832093744E+02  0.000000000E+00  0.00000E+00  9.000E+00
      21    -1     0     0   501   502  0.000000000E+00  0.000000000E+00 -3.377075460E+02  3.377075460E+02  0.000000000E+00  0.00000E+00  9.000E+00
      25     1     1     2     0     0  2.185331767E+00  5.708710679E+01 -2.669734400E+02  3.002724281E+02  1.250000000E+02  0.00000E+00  9.000E+00
      25     1     1     2     0     0 -1.558458102E+02  4.849378195E-01  2.006125774E+02  2.831228672E+02  1.250000000E+02  0.00000E+00  9.000E+00
      21     1     1     2   511   502  1.536604784E+02 -5.757204461E+01  5.118626910E+02  5.375216251E+02  9.344061824E-06  0.00000E+00  9.000E+00
#rwgt            1           1   2.8590953824364211E-002           6      212580           0
</event>
<event>
      5   9999  3.44575E-02  1.38985E+01 -1.00000E+00  1.80562E-01
      21    -1     0     0   502   501  0.000000000E+00  0.000000000E+00  7.299476316E+02  7.299476316E+02  0.000000000E+00  0.00000E+00  9.000E+00
      21    -1     0     0   501   512  0.000000000E+00  0.000000000E+00 -5.647125786E+02  5.647125786E+02  0.000000000E+00  0.00000E+00  9.000E+00
      25     1     1     2     0     0 -4.194113569E+02  9.935954021E+01  3.692060577E+02  5.811336486E+02  1.250000000E+02  0.00000E+00  9.000E+00
      25     1     1     2     0     0  4.236566357E+02 -8.612526961E+01  5.571733174E+01  4.534665678E+02  1.250000000E+02  0.00000E+00  9.000E+00
      21     1     1     2   502   512 -4.245278771E+00 -1.323427060E+01 -2.596883365E+02  2.600599938E+02  3.814697266E-06  0.00000E+00  9.000E+00
#rwgt            1           1   3.4037434666001704E-002           6      212644           0
</event>
<event>
      5   9999  3.19816E-02  5.58054E+01 -1.00000E+00  1.36407E-01
      21    -1     0     0   502   501  0.000000000E+00  0.000000000E+00  1.248651332E+02  1.248651332E+02  0.000000000E+00  0.00000E+00  9.000E+00
      21    -1     0     0   511   502  0.000000000E+00  0.000000000E+00 -1.124764771E+03  1.124764771E+03  0.000000000E+00  0.00000E+00  9.000E+00
      25     1     1     2     0     0  1.284482816E+02 -7.993523128E+01  2.305268605E+01  1.975981492E+02  1.250000000E+02  0.00000E+00  9.000E+00
      25     1     1     2     0     0 -8.200132387E+01  1.108694716E+02 -7.014792238E+02  7.257508927E+02  1.250000000E+02  0.00000E+00  9.000E+00
      21     1     1     2   511   501 -4.644695768E+01 -3.093424031E+01 -3.214730997E+02  3.262808620E+02  0.000000000E+00  0.00000E+00  9.000E+00
#rwgt            1           1   2.6420451562360413E-002           6      212813           0
</event>
<event>
      5   9999  3.19816E-02  1.46165E+02 -1.00000E+00  1.16841E-01
       1    -1     0     0   502     0  0.000000000E+00  0.000000000E+00  2.556895107E+03  2.556895107E+03  0.000000000E+00  0.00000E+00  9.000E+00
      21    -1     0     0   501   502  0.000000000E+00  0.000000000E+00 -2.782990142E+02  2.782990142E+02  0.000000000E+00  0.00000E+00  9.000E+00
      25     1     1     2     0     0 -4.177329957E+01 -2.410706039E+02 -1.626817743E+02  3.192967339E+02  1.250000000E+02  0.00000E+00  9.000E+00
      25     1     1     2     0     0  1.689006915E+02  1.689391155E+02  4.910437612E+02  5.601935770E+02  1.250000000E+02  0.00000E+00  9.000E+00
       1     1     1     2   501     0 -1.271273919E+02  7.213148848E+01  1.950234106E+03  1.955703811E+03  2.157918644E-05  0.00000E+00  9.000E+00
#rwgt            1           1   2.8519116393025519E-002           6      212898           0
</event>
<event>
      5   9999  3.19816E-02  1.53022E+01 -1.00000E+00  1.76571E-01
      21    -1     0     0   502   511  0.000000000E+00  0.000000000E+00  1.499836311E+03  1.499836311E+03  0.000000000E+00  0.00000E+00  9.000E+00
      21    -1     0     0   501   502  0.000000000E+00  0.000000000E+00 -6.175650923E+01  6.175650923E+01  0.000000000E+00  0.00000E+00  9.000E+00
      25     1     1     2     0     0 -1.597230743E+01 -2.232926858E+02  8.264760011E+02  8.653336458E+02  1.250000000E+02  0.00000E+00  9.000E+00
      25     1     1     2     0     0  7.006514940E-01  2.223265259E+02  3.441181019E+02  4.283361333E+02  1.250000000E+02  0.00000E+00  9.000E+00
      21     1     1     2   501   511  1.527165593E+01  9.661598983E-01  2.674856992E+02  2.679230416E+02  0.000000000E+00  0.00000E+00  9.000E+00
#rwgt            2          11   8.0703039247839985E-004           6      212955           0
</event>
<event>
      5   9999  3.19816E-02  2.56066E+02 -1.00000E+00  1.07876E-01
      21    -1     0     0   502   501  0.000000000E+00  0.000000000E+00  7.472200512E+02  7.472200512E+02  0.000000000E+00  0.00000E+00  9.000E+00
      -1    -1     0     0     0   502  0.000000000E+00  0.000000000E+00 -5.112524791E+02  5.112524791E+02  0.000000000E+00  0.00000E+00  9.000E+00
      25     1     1     2     0     0 -8.670297015E+01  4.404014934E+02  3.646691193E+02  5.916751195E+02  1.250000000E+02  0.00000E+00  9.000E+00
      25     1     1     2     0     0 -1.195154183E+02 -2.886004808E+02  6.880176884E+01  3.434135351E+02  1.250000000E+02  0.00000E+00  9.000E+00
      -1     1     1     2     0   501  2.062183884E+02 -1.518010126E+02 -1.975033161E+02  3.233838757E+02  5.394796609E-06  0.00000E+00  9.000E+00
#rwgt            2          10   1.1638867390549281E-004           6      213080           0
</event>
<event>
      5   9999  3.19816E-02  5.30252E+01 -1.00000E+00  1.37635E-01
      21    -1     0     0   502   501  0.000000000E+00  0.000000000E+00  2.165996317E+02  2.165996317E+02  0.000000000E+00  0.00000E+00  9.000E+00
       2    -1     0     0   501     0  0.000000000E+00  0.000000000E+00 -1.168382589E+03  1.168382589E+03  0.000000000E+00  0.00000E+00  9.000E+00
      25     1     1     2     0     0  9.154706572E+00 -1.306740151E+02  1.656140821E+02  2.453824180E+02  1.250000000E+02  0.00000E+00  9.000E+00
      25     1     1     2     0     0 -5.368535580E+01  1.018870593E+02 -8.067305024E+02  8.244405339E+02  1.250000000E+02  0.00000E+00  9.000E+00
       2     1     1     2   502     0  4.453064923E+01  2.878695585E+01 -3.106665374E+02  3.151592692E+02  0.000000000E+00  0.00000E+00  9.000E+00
#rwgt            2          13   2.5311871005937787E-004           6      213144           0
</event>
<event>
      5   9999  3.19816E-02  1.15150E+01 -1.00000E+00  1.88932E-01
      21    -1     0     0   511   501  0.000000000E+00  0.000000000E+00  2.083457073E+02  2.083457073E+02  0.000000000E+00  0.00000E+00  9.000E+00
      21    -1     0     0   501   502  0.000000000E+00  0.000000000E+00 -1.170502792E+03  1.170502792E+03  0.000000000E+00  0.00000E+00  9.000E+00
      25     1     1     2     0     0 -1.506574856E+01 -4.797605965E+01 -1.139405114E+03  1.147343755E+03  1.250000000E+02  0.00000E+00  9.000E+00
      25     1     1     2     0     0  8.462098100E+00  3.854270990E+01  1.766538398E+02  2.199743774E+02  1.250000000E+02  0.00000E+00  9.000E+00
      21     1     1     2   511   502  6.603650463E+00  9.433349756E+00  5.941896637E-01  1.153036636E+01  4.194220288E-07  0.00000E+00  9.000E+00
#rwgt            1           1   2.7321382305677537E-002           6      213163           0
</event>
<event>
      5   9999  3.19816E-02  1.82573E+02 -1.00000E+00  1.13109E-01
      21    -1     0     0   512   501  0.000000000E+00  0.000000000E+00  1.437531906E+03  1.437531906E+03  0.000000000E+00  0.00000E+00  9.000E+00
      21    -1     0     0   501   502  0.000000000E+00  0.000000000E+00 -2.405053191E+02  2.405053191E+02  0.000000000E+00  0.00000E+00  9.000E+00
      25     1     1     2     0     0 -5.589575786E+01  1.299745203E+02  7.825339970E+01  2.043680656E+02  1.250000000E+02  0.00000E+00  9.000E+00
      25     1     1     2     0     0  1.578768497E+02  2.146134402E+01 -1.106466180E+02  2.307669020E+02  1.250000000E+02  0.00000E+00  9.000E+00
      21     1     1     2   512   502 -1.019810919E+02 -1.514358643E+02  1.229419805E+03  1.242902258E+03  1.525878906E-05  0.00000E+00  9.000E+00
#rwgt            1           1   2.5662912957665925E-002           6      213516           0
</event>
<event>
      5   9999  3.19816E-02  1.39490E+02 -1.00000E+00  1.17658E-01
      21    -1     0     0   511   501  0.000000000E+00  0.000000000E+00  3.752324268E+02  3.752324268E+02  0.000000000E+00  0.00000E+00  9.000E+00
      21    -1     0     0   501   502  0.000000000E+00  0.000000000E+00 -2.055749785E+02  2.055749785E+02  0.000000000E+00  0.00000E+00  9.000E+00
      25     1     1     2     0     0 -9.347539133E+01  7.160997015E+00 -8.597805755E+00  1.564859448E+02  1.250000000E+02  0.00000E+00  9.000E+00
      25     1     1     2     0     0  1.890250814E+02  9.446373879E+01  1.101804204E+02  2.691070501E+02  1.250000000E+02  0.00000E+00  9.000E+00
      21     1     1     2   511   502 -9.554969011E+01 -1.016247358E+02  6.807483369E+01  1.552144104E+02  1.907348633E-06  0.00000E+00  9.000E+00
#rwgt            1           1   3.1520950014468849E-002           6      213578           0
</event>
<event>
      5   9999  3.19816E-02  2.21694E+01 -1.00000E+00  1.62762E-01
      21    -1     0     0   502   512  0.000000000E+00  0.000000000E+00  4.830599580E+02  4.830599580E+02  0.000000000E+00  0.00000E+00  9.000E+00
      21    -1     0     0   501   502  0.000000000E+00  0.000000000E+00 -2.408941955E+02  2.408941955E+02  0.000000000E+00  0.00000E+00  9.000E+00
      25     1     1     2     0     0  1.080668209E+00 -1.610068048E+02 -1.490401979E+02  2.525120584E+02  1.250000000E+02  0.00000E+00  9.000E+00
      25     1     1     2     0     0 -1.543569068E+01  1.779011034E+02  2.641771370E+02  3.424932450E+02  1.250000000E+02  0.00000E+00  9.000E+00
      21     1     1     2   501   512  1.435502247E+01 -1.689429851E+01  1.270288233E+02  1.289488501E+02  1.348699152E-06  0.00000E+00  9.000E+00
#rwgt            1           1   2.8205720398813697E-002           6      213634           0
</event>
<event>
      5   9999  3.19816E-02  4.56144E+02 -1.00000E+00  9.99980E-02
      21    -1     0     0   502   511  0.000000000E+00  0.000000000E+00  1.296367013E+03  1.296367013E+03  0.000000000E+00  0.00000E+00  9.000E+00
      21    -1     0     0   501   502  0.000000000E+00  0.000000000E+00 -3.230391586E+02  3.230391586E+02  0.000000000E+00  0.00000E+00  9.000E+00
      25     1     1     2     0     0  6.882774405E+01 -4.790651309E+02  3.290947892E+01  5.009477935E+02  1.250000000E+02  0.00000E+00  9.000E+00
      25     1     1     2     0     0 -1.805536480E+01  2.575517136E+01  1.035074052E+02  1.653121532E+02  1.250000000E+02  0.00000E+00  9.000E+00
      21     1     1     2   501   511 -5.077237926E+01  4.533099596E+02  8.369109700E+02  9.531462247E+02  1.078959322E-05  0.00000E+00  9.000E+00
#rwgt            2          11   2.5657816310070999E-003           6      213935           0
</event>
<event>
      5   9999  3.19816E-02  5.24521E+02 -1.00000E+00  9.82649E-02
      21    -1     0     0   512   501  0.000000000E+00  0.000000000E+00  4.953351720E+02  4.953351720E+02  0.000000000E+00  0.00000E+00  9.000E+00
      21    -1     0     0   501   502  0.000000000E+00  0.000000000E+00 -1.232185576E+03  1.232185576E+03  0.000000000E+00  0.00000E+00  9.000E+00
      25     1     1     2     0     0  2.632249673E+02  1.674867507E+02 -2.041634820E+02  3.932517291E+02  1.250000000E+02  0.00000E+00  9.000E+00
      25     1     1     2     0     0  9.618713096E+01 -5.495145169E+02 -5.714334746E+02  8.083188631E+02  1.250000000E+02  0.00000E+00  9.000E+00
      21     1     1     2   512   502 -3.594120982E+02  3.820277662E+02  3.874655322E+01  5.259501553E+02  1.112165812E-05  0.00000E+00  9.000E+00
#rwgt            2          11   2.6513599677792936E-003           6      214135           0
</event>
<event>
      5   9999  3.19816E-02  1.17453E+02 -1.00000E+00  1.20765E-01
      21    -1     0     0   502   511  0.000000000E+00  0.000000000E+00  1.346927952E+02  1.346927952E+02  0.000000000E+00  0.00000E+00  9.000E+00
      21    -1     0     0   501   502  0.000000000E+00  0.000000000E+00 -7.321676104E+02  7.321676104E+02  0.000000000E+00  0.00000E+00  9.000E+00
      25     1     1     2     0     0 -2.422020305E+01 -1.377017782E+02 -7.649159994E+01  2.025447181E+02  1.250000000E+02  0.00000E+00  9.000E+00
      25     1     1     2     0     0  4.643584868E+01  2.236855219E+01 -5.295609148E+02  5.465495427E+02  1.250000000E+02  0.00000E+00  9.000E+00
      21     1     1     2   501   511 -2.221564563E+01  1.153332260E+02  8.577699463E+00  1.177661448E+02  7.817075878E-07  0.00000E+00  9.000E+00
#rwgt            1           1   3.0935616357222324E-002           6      214170           0
</event>
<event>
      5   9999  3.19816E-02  3.49028E+02 -1.00000E+00  1.03499E-01
      21    -1     0     0   502   501  0.000000000E+00  0.000000000E+00  8.614332468E+02  8.614332468E+02  0.000000000E+00  0.00000E+00  9.000E+00
      21    -1     0     0   512   502  0.000000000E+00  0.000000000E+00 -2.953322042E+02  2.953322042E+02  0.000000000E+00  0.00000E+00  9.000E+00
      25     1     1     2     0     0 -4.171207632E+02 -9.543812946E+01  3.905740760E+02  5.926814292E+02  1.250000000E+02  0.00000E+00  9.000E+00
      25     1     1     2     0     0  6.822621252E+01  1.051029416E+02  1.116296722E+02  2.092549357E+02  1.250000000E+02  0.00000E+00  9.000E+00
      21     1     1     2   512   501  3.488945507E+02 -9.664812157E+00  6.389729432E+01  3.548290860E+02  6.143617023E-06  0.00000E+00  9.000E+00
#rwgt            1           1   2.7621572718158224E-002           6      214213           0
</event>
<event>
      5   9999  3.19816E-02  3.12373E+01 -1.00000E+00  1.51831E-01
      21    -1     0     0   511   501  0.000000000E+00  0.000000000E+00  7.653403520E+02  7.653403520E+02  0.000000000E+00  0.00000E+00  9.000E+00
      21    -1     0     0   501   502  0.000000000E+00  0.000000000E+00 -1.322597103E+02  1.322597103E+02  0.000000000E+00  0.00000E+00  9.000E+00
      25     1     1     2     0     0 -6.471874384E+01 -1.057139140E+02 -5.433405772E+01  1.842312059E+02  1.250000000E+02  0.00000E+00  9.000E+00
      25     1     1     2     0     0  5.098023994E+01  7.766000275E+01  6.167146617E+02  6.360754946E+02  1.250000000E+02  0.00000E+00  9.000E+00
      21     1     1     2   511   502  1.373850390E+01  2.805391124E+01  7.070003781E+01  7.729336175E+01  9.536743164E-07  0.00000E+00  9.000E+00
#rwgt            1           1   3.1346205835686626E-002           6      214247           0
</event>
<event>
      5   9999  3.19816E-02  1.01577E+02 -1.00000E+00  1.23523E-01
      -2    -1     0     0     0   501  0.000000000E+00  0.000000000E+00  3.858072439E+02  3.858072439E+02  0.000000000E+00  0.00000E+00  9.000E+00
      21    -1     0     0   501   502  0.000000000E+00  0.000000000E+00 -7.050361281E+02  7.050361281E+02  0.000000000E+00  0.00000E+00  9.000E+00
      25     1     1     2     0     0  7.397394106E+01  5.205134328E+01  2.452422941E+01  1.562303560E+02  1.250000000E+02  0.00000E+00  9.000E+00
      25     1     1     2     0     0  1.848127484E+01 -9.412239299E+01 -6.203015835E+02  6.399997163E+02  1.250000000E+02  0.00000E+00  9.000E+00
      -2     1     1     2     0   502 -9.245521590E+01  4.207104971E+01  2.765484699E+02  2.946132997E+02  6.607249480E-06  0.00000E+00  9.000E+00
#rwgt            1           1   2.5511659270016220E-002           6      214430           0
</event>
<event>
      5   9999  3.19816E-02  6.14846E+01 -1.00000E+00  1.34139E-01
      21    -1     0     0   502   501  0.000000000E+00  0.000000000E+00  1.064545702E+03  1.064545702E+03  0.000000000E+00  0.00000E+00  9.000E+00
      21    -1     0     0   511   502  0.000000000E+00  0.000000000E+00 -2.413452915E+02  2.413452915E+02  0.000000000E+00  0.00000E+00  9.000E+00
      25     1     1     2     0     0 -2.331109711E+01  4.558639623E+02  4.004294698E+02  6.199388032E+02  1.250000000E+02  0.00000E+00  9.000E+00
      25     1     1     2     0     0 -3.810573965E+01 -4.587505226E+02  3.908286384E+02  6.166653176E+02  1.250000000E+02  0.00000E+00  9.000E+00
      21     1     1     2   511   501  6.141683677E+01  2.886560298E+00  3.194230256E+01  6.928687294E+01  5.840038640E-07  0.00000E+00  9.000E+00
#rwgt            1           1   2.8403109396872486E-002           6      214480           0
</event>
<event>
      5   9999  3.19816E-02  4.87083E+01 -1.00000E+00  1.39727E-01
      21    -1     0     0   502   501  0.000000000E+00  0.000000000E+00  2.114504983E+03  2.114504983E+03  0.000000000E+00  0.00000E+00  9.000E+00
      21    -1     0     0   501   512  0.000000000E+00  0.000000000E+00 -9.116582911E+01  9.116582911E+01  0.000000000E+00  0.00000E+00  9.000E+00
      25     1     1     2     0     0 -3.176194615E+02  2.005794649E+02  8.907871364E+02  9.748030398E+02  1.250000000E+02  0.00000E+00  9.000E+00
      25     1     1     2     0     0  3.656622378E+02 -1.925550341E+02  1.044981975E+03  1.130662921E+03  1.250000000E+02  0.00000E+00  9.000E+00
      21     1     1     2   502   512 -4.804277633E+01 -8.024430733E+00  8.757004279E+01  1.002048514E+02  1.907348633E-06  0.00000E+00  9.000E+00
#rwgt            1           1   3.0930034718294128E-002           6      214618           0
</event>
<event>
      5   9999  3.19816E-02  3.45527E+01 -1.00000E+00  1.48897E-01
      21    -1     0     0   502   511  0.000000000E+00  0.000000000E+00  5.758460276E+02  5.758460276E+02  0.000000000E+00  0.00000E+00  9.000E+00
      21    -1     0     0   501   502  0.000000000E+00  0.000000000E+00 -1.096243648E+02  1.096243648E+02  0.000000000E+00  0.00000E+00  9.000E+00
      25     1     1     2     0     0  1.842932736E+02 -1.262478360E+01  2.198729033E+02  3.131972054E+02  1.250000000E+02  0.00000E+00  9.000E+00
      25     1     1     2     0     0 -2.039419801E+02  4.104692350E+01  2.001505098E+02  3.145829107E+02  1.250000000E+02  0.00000E+00  9.000E+00
      21     1     1     2   501   511  1.964870647E+01 -2.842213990E+01  4.619824971E+01  5.769027629E+01  9.536743164E-07  0.00000E+00  9.000E+00
#rwgt            1           1   2.6554693236803525E-002           6      214751           0
</event>
<event>
      5   9999  3.19816E-02  4.50957E+01 -1.00000E+00  1.41683E-01
      21    -1     0     0   502   512  0.000000000E+00  0.000000000E+00  5.524412862E+02  5.524412862E+02  0.000000000E+00  0.00000E+00  9.000E+00
      21    -1     0     0   501   502  0.000000000E+00  0.000000000E+00 -2.794219361E+03  2.794219361E+03  0.000000000E+00  0.00000E+00  9.000E+00
      25     1     1     2     0     0  6.512143423E+01 -7.623717040E+02 -2.167943665E+03  2.302402257E+03  1.250000000E+02  0.00000E+00  9.000E+00
      25     1     1     2     0     0 -1.093495393E+02  7.711751503E+02 -2.770554521E+02  8.360939886E+02  1.250000000E+02  0.00000E+00  9.000E+00
      21     1     1     2   501   512  4.422810504E+01 -8.803446314E+00  2.032210428E+02  2.081644018E+02  5.394796609E-06  0.00000E+00  9.000E+00
#rwgt            1           1   2.5579349015253765E-002           6      214809           0
</event>
<event>
      5   9999  3.19816E-02  1.90513E+01 -1.00000E+00  1.68130E-01
      21    -1     0     0   502   501  0.000000000E+00  0.000000000E+00  1.386938239E+02  1.386938239E+02  0.000000000E+00  0.00000E+00  9.000E+00
      21    -1     0     0   511   502  0.000000000E+00  0.000000000E+00 -4.584332899E+02  4.584332899E+02  0.000000000E+00  0.00000E+00  9.000E+00
      25     1     1     2     0     0  3.337063576E+01  1.755831888E+02 -4.148187316E+01  2.220108136E+02  1.250000000E+02  0.00000E+00  9.000E+00
      25     1     1     2     0     0 -2.831275256E+01 -1.939507710E+02 -2.553471482E+02  3.453196774E+02  1.250000000E+02  0.00000E+00  9.000E+00
      21     1     1     2   511   501 -5.057883205E+00  1.836758217E+01 -2.291044468E+01  2.979662285E+01  5.840038640E-07  0.00000E+00  9.000E+00
#rwgt            1           1   2.9610087988570365E-002           6      214986           0
</event>
<event>
      5   9999  3.19816E-02  6.65672E+02 -1.00000E+00  9.54448E-02
      21    -1     0     0   502   501  0.000000000E+00  0.000000000E+00  5.793766874E+02  5.793766874E+02  0.000000000E+00  0.00000E+00  9.000E+00
       1    -1     0     0   501     0  0.000000000E+00  0.000000000E+00 -2.042228842E+03  2.042228842E+03  0.000000000E+00  0.00000E+00  9.000E+00
      25     1     1     2     0     0 -3.304908441E+02 -1.476532467E+02 -2.067925910E+02  4.352170205E+02  1.250000000E+02  0.00000E+00  9.000E+00
      25     1     1     2     0     0  9.325917980E+02  4.315429570E+02 -4.186248258E+02  1.116614764E+03  1.250000000E+02  0.00000E+00  9.000E+00
       1     1     1     2   502     0 -6.021009539E+02 -2.838897103E+02 -8.374347380E+02  1.069773746E+03  1.525878906E-05  0.00000E+00  9.000E+00
#rwgt            1           1   2.1413751914013939E-002           6      215180           0
</event>
<event>
      5   9999  3.19816E-02  4.03003E+01 -1.00000E+00  1.44639E-01
       1    -1     0     0   502     0  0.000000000E+00  0.000000000E+00  1.197594371E+03  1.197594371E+03  0.000000000E+00  0.00000E+00  9.000E+00
      21    -1     0     0   501   502  0.000000000E+00  0.000000000E+00 -1.226399208E+02  1.226399208E+02  0.000000000E+00  0.00000E+00  9.000E+00
      25     1     1     2     0     0  1.990430331E+01  1.102642233E+02 -2.520313162E+01  1.697485731E+02  1.250000000E+02  0.00000E+00  9.000E+00
      25     1     1     2     0     0  1.756268727E+01 -9.542034236E+01  2.287443180E+02  2.781410662E+02  1.250000000E+02  0.00000E+00  9.000E+00
       1     1     1     2   501     0 -3.746699058E+01 -1.484388096E+01  8.714132636E+02  8.723446522E+02  1.078959322E-05  0.00000E+00  9.000E+00
#rwgt            1           1   2.2933343476168391E-002           6      215209           0
</event>
<event>
      5   9999  3.19816E-02  3.60489E+01 -1.00000E+00  1.47698E-01
      21    -1     0     0   502   501  0.000000000E+00  0.000000000E+00  4.768317881E+02  4.768317881E+02  0.000000000E+00  0.00000E+00  9.000E+00
      21    -1     0     0   511   502  0.000000000E+00  0.000000000E+00 -1.081385790E+02  1.081385790E+02  0.000000000E+00  0.00000E+00  9.000E+00
      25     1     1     2     0     0 -4.984677037E+01 -5.625477901E+01  3.704227480E+02  3.981046507E+02  1.250000000E+02  0.00000E+00  9.000E+00
      25     1     1     2     0     0  2.361059206E+01  8.097700224E+01 -5.676831554E-01  1.507980677E+02  1.250000000E+02  0.00000E+00  9.000E+00
      21     1     1     2   511   501  2.623617831E+01 -2.472222323E+01 -1.161855722E+00  3.606764870E+01  4.826228243E-07  0.00000E+00  9.000E+00
#rwgt            1           1   2.8775093183805167E-002           6      215268           0
</event>
<event>
      5   9999  3.19816E-02  1.27463E+02 -1.00000E+00  1.19266E-01
      21    -1     0     0   502   501  0.000000000E+00  0.000000000E+00  1.793475134E+02  1.793475134E+02  0.000000000E+00  0.00000E+00  9.000E+00
      21    -1     0     0   501   512  0.000000000E+00  0.000000000E+00 -1.953007583E+03  1.953007583E+03  0.000000000E+00  0.00000E+00  9.000E+00
      25     1     1     2     0     0  6.348695690E+01 -8.099724197E+01 -8.596285787E+02  8.747442142E+02  1.250000000E+02  0.00000E+00  9.000E+00
      25     1     1     2     0     0 -1.899104382E+02  6.475033187E+01  8.444837196E+01  2.510281011E+02  1.250000000E+02  0.00000E+00  9.000E+00
      21     1     1     2   502   512  1.264234813E+02  1.624691009E+01 -9.984798629E+02  1.006582781E+03  1.868812365E-05  0.00000E+00  9.000E+00
#rwgt            1           1   2.6066158505118748E-002           6      215407           0
</event>
<event>
      5   9999  3.19816E-02  2.56971E+01 -1.00000E+00  1.57861E-01
      21    -1     0     0   502   511  0.000000000E+00  0.000000000E+00  4.778015377E+01  4.778015377E+01  0.000000000E+00  0.00000E+00  9.000E+00
      21    -1     0     0   501   502  0.000000000E+00  0.000000000E+00 -3.994841451E+03  3.994841451E+03  0.000000000E+00  0.00000E+00  9.000E+00
      25     1     1     2     0     0 -2.564136725E+02  8.966791282E+01 -1.920443305E+03  1.943583235E+03  1.250000000E+02  0.00000E+00  9.000E+00
      25     1     1     2     0     0  2.818878987E+02 -8.629056109E+01 -2.043406720E+03  2.068343026E+03  1.250000000E+02  0.00000E+00  9.000E+00
      21     1     1     2   501   511 -2.547422618E+01 -3.377351729E+00  1.678872808E+01  3.069534321E+01  2.454669509E-06  0.00000E+00  9.000E+00
#rwgt            1           1   6.2682318188110433E-003           6      215518           0
</event>
<event>
      5   9999  3.19816E-02  5.67198E+01 -1.00000E+00  1.36021E-01
      21    -1     0     0   512   501  0.000000000E+00  0.000000000E+00  1.546864972E+03  1.546864972E+03  0.000000000E+00  0.00000E+00  9.000E+00
      21    -1     0     0   501   502  0.000000000E+00  0.000000000E+00 -4.742766504E+01  4.742766504E+01  0.000000000E+00  0.00000E+00  9.000E+00
      25     1     1     2     0     0 -5.791362029E+01 -1.509693413E+02  6.794992816E+02  7.095702946E+02  1.250000000E+02  0.00000E+00  9.000E+00
      25     1     1     2     0     0  1.097039821E+02  1.740971439E+02  4.490746925E+02  5.095467188E+02  1.250000000E+02  0.00000E+00  9.000E+00
      21     1     1     2   512   502 -5.179036177E+01 -2.312780269E+01  3.708633329E+02  3.751756235E+02  0.000000000E+00  0.00000E+00  9.000E+00
#rwgt            2          11   1.4581294480897806E-003           6      215641           0
</event>
<event>
      5   9999  3.19816E-02  1.81032E+02 -1.00000E+00  1.13246E-01
      21    -1     0     0   502   501  0.000000000E+00  0.000000000E+00  1.245285578E+03  1.245285578E+03  0.000000000E+00  0.00000E+00  9.000E+00
      21    -1     0     0   501   511  0.000000000E+00  0.000000000E+00 -9.137952849E+01  9.137952849E+01  0.000000000E+00  0.00000E+00  9.000E+00
      25     1     1     2     0     0  3.543126718E+01  2.253273230E+01  9.957691910E+01  1.652381964E+02  1.250000000E+02  0.00000E+00  9.000E+00
      25     1     1     2     0     0 -2.161879262E+02 -3.250766973E+01  8.966840422E+02  9.313759926E+02  1.250000000E+02  0.00000E+00  9.000E+00
      21     1     1     2   502   511  1.807566590E+02  9.974937434E+00  1.576450881E+02  2.400509175E+02  1.907348633E-06  0.00000E+00  9.000E+00
#rwgt            2          11   3.4407283551259483E-003           6      215751           0
</event>
<event>
      5   9999  3.19816E-02  5.99372E+01 -1.00000E+00  1.34728E-01
      21    -1     0     0   502   501  0.000000000E+00  0.000000000E+00  1.039637127E+03  1.039637127E+03  0.000000000E+00  0.00000E+00  9.000E+00
      21    -1     0     0   501   512  0.000000000E+00  0.000000000E+00 -9.239809723E+02  9.239809723E+02  0.000000000E+00  0.00000E+00  9.000E+00
      25     1     1     2     0     0  4.164256029E+02  3.745307546E+02  8.199762338E+02  1.000834448E+03  1.250000000E+02  0.00000E+00  9.000E+00
      25     1     1     2     0     0 -4.433598410E+02 -3.209862919E+02 -7.069662129E+02  9.027881116E+02  1.250000000E+02  0.00000E+00  9.000E+00
      21     1     1     2   502   512  2.693423809E+01 -5.354446275E+01  2.646133365E+00  5.999553895E+01  4.267043192E-07  0.00000E+00  9.000E+00
#rwgt            1           1   3.9125560186067360E-002           6      215771           0
</event>
<event>
      5   9999  3.19816E-02  5.88783E+01 -1.00000E+00  1.35143E-01
      21    -1     0     0   502   511  0.000000000E+00  0.000000000E+00  1.063975301E+03  1.063975301E+03  0.000000000E+00  0.00000E+00  9.000E+00
      21    -1     0     0   501   502  0.000000000E+00  0.000000000E+00 -6.833270420E+02  6.833270420E+02  0.000000000E+00  0.00000E+00  9.000E+00
      25     1     1     2     0     0  3.123911068E+02  4.814760206E+02  3.619005766E+02  6.899307134E+02  1.250000000E+02  0.00000E+00  9.000E+00
      25     1     1     2     0     0 -3.020074946E+02 -5.394314903E+02 -3.243622101E+02  7.092465741E+02  1.250000000E+02  0.00000E+00  9.000E+00
      21     1     1     2   501   511 -1.038361213E+01  5.795546971E+01  3.431098923E+02  3.481250552E+02  5.394796609E-06  0.00000E+00  9.000E+00
#rwgt            1           1   3.1165319469429489E-002           6      215938           0
</event>
<event>
      5   9999  3.19816E-02  2.45506E+01 -1.00000E+00  1.59343E-01
      21    -1     0     0   502   501  0.000000000E+00  0.000000000E+00  6.195568538E+02  6.195568538E+02  0.000000000E+00  0.00000E+00  9.000E+00
      21    -1     0     0   512   502  0.000000000E+00  0.000000000E+00 -8.552427353E+01  8.552427353E+01  0.000000000E+00  0.00000E+00  9.000E+00
      25     1     1     2     0     0  1.005786075E+02 -6.320172121E+01  4.327732205E+02  4.658628277E+02  1.250000000E+02  0.00000E+00  9.000E+00
      25     1     1     2     0     0 -8.198534393E+01  7.923356948E+01  1.207609799E+02  2.078647864E+02  1.250000000E+02  0.00000E+00  9.000E+00
      21     1     1     2   512   501 -1.859326354E+01 -1.603184827E+01 -1.950162011E+01  3.135351328E+01  9.536743164E-07  0.00000E+00  9.000E+00
#rwgt            1           1   3.2295213877575925E-002           6      216103           0
</event>
<event>
      5   9999  3.19816E-02  1.54917E+01 -1.00000E+00  1.76074E-01
      21    -1     0     0   502   501  0.000000000E+00  0.000000000E+00  1.621300366E+02  1.621300366E+02  0.000000000E+00  0.00000E+00  9.000E+00
      21    -1     0     0   511   502  0.000000000E+00  0.000000000E+00 -5.098703509E+02  5.098703509E+02  0.000000000E+00  0.00000E+00  9.000E+00
      25     1     1     2     0     0 -9.708198314E+01 -5.800183047E+01  9.463181022E+01  1.933114153E+02  1.250000000E+02  0.00000E+00  9.000E+00
      25     1     1     2     0     0  8.459001543E+01  6.716381937E+01 -4.213252344E+02  4.525554137E+02  1.250000000E+02  0.00000E+00  9.000E+00
      21     1     1     2   511   501  1.249196771E+01 -9.161988892E+00 -2.104689017E+01  2.613355857E+01  2.384185791E-07  0.00000E+00  9.000E+00
#rwgt            1           1   2.6988783083931114E-002           6      216233           0
</event>
<event>
      5   9999  3.19816E-02  3.71687E+01 -1.00000E+00  1.46846E-01
      21    -1     0     0   502   512  0.000000000E+00  0.000000000E+00  7.565170748E+02  7.565170748E+02  0.000000000E+00  0.00000E+00  9.000E+00
      21    -1     0     0   501   502  0.000000000E+00  0.000000000E+00 -5.111147597E+02  5.111147597E+02  0.000000000E+00  0.00000E+00  9.000E+00
      25     1     1     2     0     0  2.269486191E+02 -3.827555814E+02 -2.600842347E+02  5.303548999E+02  1.250000000E+02  0.00000E+00  9.000E+00
      25     1     1     2     0     0 -2.470571549E+02  4.140151504E+02  4.831915724E+02  6.939343471E+02  1.250000000E+02  0.00000E+00  9.000E+00
      21     1     1     2   501   512  2.010853578E+01 -3.125956900E+01  2.229497748E+01  4.334258744E+01  7.539457465E-07  0.00000E+00  9.000E+00
#rwgt            1           1   3.1901937654091488E-002           6      216438           0
</event>
<event>
      5   9999  3.19816E-02  7.31862E+01 -1.00000E+00  1.30249E-01
      21    -1     0     0   502   501  0.000000000E+00  0.000000000E+00  2.070928022E+03  2.070928022E+03  0.000000000E+00  0.00000E+00  9.000E+00
       1    -1     0     0   501     0  0.000000000E+00  0.000000000E+00 -1.402023197E+03  1.402023197E+03  0.000000000E+00  0.00000E+00  9.000E+00
      25     1     1     2     0     0  2.281340540E+01 -6.476436065E+02 -6.426621456E+00  6.600219647E+02  1.250000000E+02  0.00000E+00  9.000E+00
      25     1     1     2     0     0 -1.832886160E+01  5.745948858E+02  1.693166902E+03  1.792466007E+03  1.250000000E+02  0.00000E+00  9.000E+00
       1     1     1     2   502     0 -4.484543803E+00  7.304872063E+01 -1.017835454E+03  1.020463247E+03  1.525878906E-05  0.00000E+00  9.000E+00
#rwgt            2          12   2.0988786629696022E-003           6      216845           0
</event>
<event>
      5   9999  3.19816E-02  2.93584E+02 -1.00000E+00  1.05898E-01
      21    -1     0     0   502   501  0.000000000E+00  0.000000000E+00  1.122420998E+03  1.122420998E+03  0.000000000E+00  0.00000E+00  9.000E+00
       2    -1     0     0   501     0  0.000000000E+00  0.000000000E+00 -1.247670752E+03  1.247670752E+03  0.000000000E+00  0.00000E+00  9.000E+00
      25     1     1     2     0     0 -8.521986319E+02  2.177252162E+02  1.029368207E+02  8.943532675E+02  1.250000000E+02  0.00000E+00  9.000E+00
      25     1     1     2     0     0  1.138569739E+03 -1.530482584E+02 -1.157994544E+02  1.161378204E+03  1.250000000E+02  0.00000E+00  9.000E+00
       2     1     1     2   502     0 -2.863711071E+02 -6.467695785E+01 -1.123871201E+02  3.143602784E+02  6.180515955E-06  0.00000E+00  9.000E+00
#rwgt            2          13   7.4674826421927253E-004           6      216924           0
</event>
<event>
      5   9999  3.19816E-02  4.00258E+01 -1.00000E+00  1.44823E-01
      21    -1     0     0   502   501  0.000000000E+00  0.000000000E+00  3.690279227E+02  3.690279227E+02  0.000000000E+00  0.00000E+00  9.000E+00
      21    -1     0     0   511   502  0.000000000E+00  0.000000000E+00 -2.010353771E+02  2.010353771E+02  0.000000000E+00  0.00000E+00  9.000E+00
      25     1     1     2     0     0  3.508516404E+01  5.133935001E+01 -3.370474030E+01  1.436234908E+02  1.250000000E+02  0.00000E+00  9.000E+00
      25     1     1     2     0     0 -1.156431685E+01 -1.895359346E+01  2.970414042E+02  3.230349330E+02  1.250000000E+02  0.00000E+00  9.000E+00
      21     1     1     2   511   501 -2.352084719E+01 -3.238575655E+01 -9.534411832E+01  1.034048760E+02  0.000000000E+00  0.00000E+00  9.000E+00
#rwgt            1           1   2.9292323196215060E-002           6      216943           0
</event>
<event>
      5   9999  3.19816E-02  2.39713E+02 -1.00000E+00  1.08857E-01
      21    -1     0     0   502   501  0.000000000E+00  0.000000000E+00  1.672336558E+02  1.672336558E+02  0.000000000E+00  0.00000E+00  9.000E+00
       2    -1     0     0   501     0  0.000000000E+00  0.000000000E+00 -2.582988522E+03  2.582988522E+03  0.000000000E+00  0.00000E+00  9.000E+00
      25     1     1     2     0     0 -3.593940856E+02 -6.855681994E+01 -4.472229244E+02  5.911831277E+02  1.250000000E+02  0.00000E+00  9.000E+00
      25     1     1     2     0     0  4.493657887E+02 -1.536314896E+02 -6.278240437E+02  7.970698065E+02  1.250000000E+02  0.00000E+00  9.000E+00
       2     1     1     2   502     0 -8.997170307E+01  2.221883096E+02 -1.340707898E+03  1.361969243E+03  3.051757812E-05  0.00000E+00  9.000E+00
#rwgt            1           1   2.8525447386534158E-002           6      217094           0
</event>
<event>
      5   9999  3.19816E-02  2.16992E+01 -1.00000E+00  1.63499E-01
      21    -1     0     0   511   501  0.000000000E+00  0.000000000E+00  3.013874331E+02  3.013874331E+02  0.000000000E+00  0.00000E+00  9.000E+00
      21    -1     0     0   501   502  0.000000000E+00  0.000000000E+00 -5.328022488E+02  5.328022488E+02  0.000000000E+00  0.00000E+00  9.000E+00
      25     1     1     2     0     0 -6.823500321E+01  3.015089074E+02 -3.433470110E+02  4.786186445E+02  1.250000000E+02  0.00000E+00  9.000E+00
      25     1     1     2     0     0  6.199213460E+01 -2.807271394E+02  9.360010388E+01  3.271646848E+02  1.250000000E+02  0.00000E+00  9.000E+00
      21     1     1     2   511   502  6.242868607E+00 -2.078176806E+01  1.833209146E+01  2.840635262E+01  2.384185791E-07  0.00000E+00  9.000E+00
#rwgt            1           1   2.5890848271626438E-002           6      217144           0
</event>
<event>
      5   9999  3.19816E-02  2.15847E+01 -1.00000E+00  1.63682E-01
      21    -1     0     0   512   501  0.000000000E+00  0.000000000E+00  1.615284030E+02  1.615284030E+02  0.000000000E+00  0.00000E+00  9.000E+00
      21    -1     0     0   501   502  0.000000000E+00  0.000000000E+00 -1.657513492E+03  1.657513492E+03  0.000000000E+00  0.00000E+00  9.000E+00
      25     1     1     2     0     0 -5.565214097E+01  7.367194037E+01 -1.607177269E+03  1.614672874E+03  1.250000000E+02  0.00000E+00  9.000E+00
      25     1     1     2     0     0  6.207748758E+01 -5.306579416E+01  1.024470158E+02  1.810800487E+02  1.250000000E+02  0.00000E+00  9.000E+00
      21     1     1     2   512   502 -6.425346616E+00 -2.060614621E+01  8.745164216E+00  2.328897245E+01  6.419616708E-07  0.00000E+00  9.000E+00
#rwgt            1           1   2.8390958120636731E-002           6      217312           0
</event>
<event>
      5   9999  3.19816E-02  9.53727E+01 -1.00000E+00  1.24760E-01
      21    -1     0     0   502   501  0.000000000E+00  0.000000000E+00  6.210767527E+01  6.210767527E+01  0.000000000E+00  0.00000E+00  9.000E+00
      21    -1     0     0   511   502  0.000000000E+00  0.000000000E+00 -1.246855469E+03  1.246855469E+03  0.000000000E+00  0.00000E+00  9.000E+00
      25     1     1     2     0     0  1.908869255E+02 -3.610635573E+01 -2.645339048E+02  3.512046042E+02  1.250000000E+02  0.00000E+00  9.000E+00
      25     1     1     2     0     0 -9.716590701E+01  5.377918069E+01 -6.517565229E+02  6.728632691E+02  1.250000000E+02  0.00000E+00  9.000E+00
      21     1     1     2   511   501 -9.372101845E+01 -1.767282496E+01 -2.684573662E+02  2.848952711E+02  5.394796609E-06  0.00000E+00  9.000E+00
#rwgt            1           1   2.9665249882050045E-002           6      217533           0
</event>
<event>
      5   9999  3.19816E-02  1.07332E+02 -1.00000E+00  1.22461E-01
      21    -1     0     0   502   512  0.000000000E+00  0.000000000E+00  6.276881246E+02  6.276881246E+02  0.000000000E+00  0.00000E+00  9.000E+00
      21    -1     0     0   501   502  0.000000000E+00  0.000000000E+00 -1.933449088E+02  1.933449088E+02  0.000000000E+00  0.00000E+00  9.000E+00
      25     1     1     2     0     0  4.655243713E+01  2.192507185E+01 -1.163798550E+02  1.783735093E+02  1.250000000E+02  0.00000E+00  9.000E+00
      25     1     1     2     0     0 -1.538770155E+02 -2.066231035E+01  4.628498198E+02  5.039444639E+02  1.250000000E+02  0.00000E+00  9.000E+00
      21     1     1     2   501   512  1.073245784E+02 -1.262761507E+00  8.787325098E+01  1.387150602E+02  3.162979880E-06  0.00000E+00  9.000E+00
#rwgt            1           1   3.0190799693671895E-002           6      217609           0
</event>
<event>
      5   9999  3.19816E-02  5.51238E+01 -1.00000E+00  1.36700E-01
      21    -1     0     0   502   501  0.000000000E+00  0.000000000E+00  1.176889721E+03  1.176889721E+03  0.000000000E+00  0.00000E+00  9.000E+00
      21    -1     0     0   501   511  0.000000000E+00  0.000000000E+00 -2.837888192E+02  2.837888192E+02  0.000000000E+00  0.00000E+00  9.000E+00
      25     1     1     2     0     0  6.384671411E+01 -4.691799685E+01  6.872703381E+02  7.030243374E+02  1.250000000E+02  0.00000E+00  9.000E+00
      25     1     1     2     0     0 -8.038527631E+01  9.950231023E+01  4.621102149E+02  4.955132219E+02  1.250000000E+02  0.00000E+00  9.000E+00
      21     1     1     2   502   511  1.653856221E+01 -5.258431338E+01 -2.562796514E+02  2.621409807E+02  7.629394531E-06  0.00000E+00  9.000E+00
#rwgt            1           1   2.5430810903876652E-002           6      217689           0
</event>
<event>
      5   9999 -3.19816E-02  5.18887E+01 -1.00000E+00  1.38163E-01
      21    -1     0     0   502   501  0.000000000E+00  0.000000000E+00  3.277291088E+02  3.277291088E+02  0.000000000E+00  0.00000E+00  9.000E+00
      21    -1     0     0   512   502  0.000000000E+00  0.000000000E+00 -2.465556139E+03  2.465556139E+03  0.000000000E+00  0.00000E+00  9.000E+00
      25     1     1     2     0     0  8.048510003E+01  7.777025018E+02 -1.609121579E+03  1.793375669E+03  1.250000000E+02  0.00000E+00  9.000E+00
      25     1     1     2     0     0 -1.318792305E+02 -7.705555841E+02 -4.665236088E+02  9.189218233E+02  1.250000000E+02  0.00000E+00  9.000E+00
      21     1     1     2   512   501  5.139413050E+01 -7.146917679E+00 -6.218184199E+01  8.098775559E+01  1.507891493E-06  0.00000E+00  9.000E+00
#rwgt            1           1  -2.0354651485581148E-003           6      217779           0
</event>
<event>
      5   9999  3.19816E-02  6.20576E+01 -1.00000E+00  1.33926E-01
      21    -1     0     0   502   501  0.000000000E+00  0.000000000E+00  6.710185286E+02  6.710185286E+02  0.000000000E+00  0.00000E+00  9.000E+00
      21    -1     0     0   511   502  0.000000000E+00  0.000000000E+00 -2.059083474E+02  2.059083474E+02  0.000000000E+00  0.00000E+00  9.000E+00
      25     1     1     2     0     0  3.387762990E+01  1.142769801E+02 -1.304548736E+02  2.164495230E+02  1.250000000E+02  0.00000E+00  9.000E+00
      25     1     1     2     0     0 -8.772617311E+01 -8.343100024E+01  5.652139202E+02  5.913952899E+02  1.250000000E+02  0.00000E+00  9.000E+00
      21     1     1     2   511   501  5.384854321E+01 -3.084597982E+01  3.035113459E+01  6.908206314E+01  0.000000000E+00  0.00000E+00  9.000E+00
#rwgt            1           1   3.1148294633607028E-002           6      217886           0
</event>
<event>
      5   9999  3.19816E-02  6.95298E+01 -1.00000E+00  1.31369E-01
      21    -1     0     0   502   501  0.000000000E+00  0.000000000E+00  3.731967693E+02  3.731967693E+02  0.000000000E+00  0.00000E+00  9.000E+00
      -1    -1     0     0     0   502  0.000000000E+00  0.000000000E+00 -1.565116271E+03  1.565116271E+03  0.000000000E+00  0.00000E+00  9.000E+00
      25     1     1     2     0     0 -2.461656803E+02 -4.620485544E+01  1.186053628E+02  3.040142479E+02  1.250000000E+02  0.00000E+00  9.000E+00
      25     1     1     2     0     0  2.489018355E+02  1.156808273E+02  1.971967129E+01  3.022383876E+02  1.250000000E+02  0.00000E+00  9.000E+00
      -1     1     1     2     0   501 -2.736155219E+00 -6.947597185E+01 -1.330244536E+03  1.332060405E+03  1.525878906E-05  0.00000E+00  9.000E+00
#rwgt            1           1   2.7187090080103251E-002           6      218008           0
</event>
<event>
      5   9999  3.19816E-02  1.53010E+02 -1.00000E+00  1.16053E-01
       2    -1     0     0   502     0  0.000000000E+00  0.000000000E+00  1.535782038E+03  1.535782038E+03  0.000000000E+00  0.00000E+00  9.000E+00
      21    -1     0     0   501   502  0.000000000E+00  0.000000000E+00 -7.568671108E+02  7.568671108E+02  0.000000000E+00  0.00000E+00  9.000E+00
      25     1     1     2     0     0 -2.156086914E+02 -9.881208423E+01 -7.510122441E+01  2.784171865E+02  1.250000000E+02  0.00000E+00  9.000E+00
      25     1     1     2     0     0  1.308948322E+02 -2.860642937E+01 -5.614111415E+02  5.905584261E+02  1.250000000E+02  0.00000E+00  9.000E+00
       2     1     1     2   501     0  8.471385919E+01  1.274185136E+02  1.415427294E+03  1.423673537E+03  0.000000000E+00  0.00000E+00  9.000E+00
#rwgt            1           1   2.4192298145272684E-002           6      218097           0
</event>
<event>
      5   9999  3.19816E-02  3.75383E+01 -1.00000E+00  1.46572E-01
       2    -1     0     0   502     0  0.000000000E+00  0.000000000E+00  1.333341714E+03  1.333341714E+03  0.000000000E+00  0.00000E+00  9.000E+00
      21    -1     0     0   501   502  0.000000000E+00  0.000000000E+00 -6.191001088E+02  6.191001088E+02  0.000000000E+00  0.00000E+00  9.000E+00
      25     1     1     2     0     0  3.050537685E+02  3.106572907E+02 -3.199946970E+02  5.546055896E+02  1.250000000E+02  0.00000E+00  9.000E+00
      25     1     1     2     0     0 -2.709194779E+02 -3.262768837E+02  8.793402562E+01  4.507897083E+02  1.250000000E+02  0.00000E+00  9.000E+00
       2     1     1     2   501     0 -3.413429064E+01  1.561959298E+01  9.463022763E+02  9.470465246E+02  1.078959322E-05  0.00000E+00  9.000E+00
#rwgt            1           1   2.9693676114326360E-002           6      218155           0
</event>
<event>
      5   9999  3.19816E-02  1.13694E+02 -1.00000E+00  1.21372E-01
      21    -1     0     0   502   511  0.000000000E+00  0.000000000E+00  1.197093278E+03  1.197093278E+03  0.000000000E+00  0.00000E+00  9.000E+00
      21    -1     0     0   501   502  0.000000000E+00  0.000000000E+00 -3.358787464E+02  3.358787464E+02  0.000000000E+00  0.00000E+00  9.000E+00
      25     1     1     2     0     0 -4.759765845E+02 -1.776091359E+02  3.702972615E+02  6.409709635E+02  1.250000000E+02  0.00000E+00  9.000E+00
      25     1     1     2     0     0  5.135940164E+02  2.848997510E+02  3.035583178E+02  6.728442124E+02  1.250000000E+02  0.00000E+00  9.000E+00
      21     1     1     2   501   511 -3.761743184E+01 -1.072906152E+02  1.873589523E+02  2.191568486E+02  2.697398305E-06  0.00000E+00  9.000E+00
#rwgt            1           1   3.0214371814593147E-002           6      218373           0
</event>
<event>
      5   9999  3.19816E-02  2.23820E+02 -1.00000E+00  1.09897E-01
      21    -1     0     0   502   501  0.000000000E+00  0.000000000E+00  1.464263976E+03  1.464263976E+03  0.000000000E+00  0.00000E+00  9.000E+00
       4    -1     0     0   501     0  0.000000000E+00  0.000000000E+00 -3.025194153E+02  3.025194153E+02  0.000000000E+00  0.00000E+00  9.000E+00
      25     1     1     2     0     0  1.707908831E+02 -3.487385328E+02  1.058236071E+02  4.214400620E+02  1.250000000E+02  0.00000E+00  9.000E+00
      25     1     1     2     0     0 -3.638423314E+01  1.697686190E+02  1.097101516E+03  1.117766493E+03  1.250000000E+02  0.00000E+00  9.000E+00
       4     1     1     2   502     0 -1.344066499E+02  1.789699138E+02 -4.118056263E+01  2.275768361E+02  7.371723573E-06  0.00000E+00  9.000E+00
#rwgt            1           1   2.8974328261302980E-002           6      218512           0
</event>
<event>
      5   9999  3.19816E-02  1.30424E+02 -1.00000E+00  1.18853E-01
       2    -1     0     0   502     0  0.000000000E+00  0.000000000E+00  1.753474139E+03  1.753474139E+03  0.000000000E+00  0.00000E+00  9.000E+00
      21    -1     0     0   501   502  0.000000000E+00  0.000000000E+00 -4.146571925E+02  4.146571925E+02  0.000000000E+00  0.00000E+00  9.000E+00
      25     1     1     2     0     0 -1.609055781E+02  7.385121881E+00  3.775288751E+01  2.073533834E+02  1.250000000E+02  0.00000E+00  9.000E+00
      25     1     1     2     0     0  1.196886312E+02  1.163549101E+02 -2.939667202E+02  3.604237314E+02  1.250000000E+02  0.00000E+00  9.000E+00
       2     1     1     2   501     0  4.121694689E+01 -1.237400319E+02  1.595030779E+03  1.600354216E+03  4.315837288E-05  0.00000E+00  9.000E+00
#rwgt            1           1   3.3660374286547300E-002           6      218567           0
</event>
<event>
      5   9999  3.19816E-02  2.89317E+01 -1.00000E+00  1.54142E-01
       2    -1     0     0   502     0  0.000000000E+00  0.000000000E+00  2.274824616E+03  2.274824616E+03  0.000000000E+00  0.00000E+00  9.000E+00
      21    -1     0     0   501   502  0.000000000E+00  0.000000000E+00 -3.988527926E+02  3.988527926E+02  0.000000000E+00  0.00000E+00  9.000E+00
      25     1     1     2     0     0 -9.573272407E+01 -6.082730823E+02  6.279022748E+01  6.314495307E+02  1.250000000E+02  0.00000E+00  9.000E+00
      25     1     1     2     0     0  9.074563371E+01  5.797744599E+02  6.727847496E+02  9.014640945E+02  1.250000000E+02  0.00000E+00  9.000E+00
       2     1     1     2   501     0  4.987090360E+00  2.849862245E+01  1.140396846E+03  1.140763783E+03  0.000000000E+00  0.00000E+00  9.000E+00
#rwgt            1           1   2.7236886728847567E-002           6      218622           0
</event>
<event>
      5   9999  3.46654E-02  1.00303E+02 -1.00000E+00  1.23769E-01
      21    -1     0     0   502   501  0.000000000E+00  0.000000000E+00  9.610672707E+02  9.610672707E+02  0.000000000E+00  0.00000E+00  9.000E+00
      21    -1     0     0   511   502  0.000000000E+00  0.000000000E+00 -7.465254662E+02  7.465254662E+02  0.000000000E+00  0.00000E+00  9.000E+00
      25     1     1     2     0     0 -2.866263923E+02  1.469705820E+02  5.906438146E+02  6.842807586E+02  1.250000000E+02  0.00000E+00  9.000E+00
      25     1     1     2     0     0  2.697006940E+02 -2.458347344E+02  2.027860852E+02  4.357985514E+02  1.250000000E+02  0.00000E+00  9.000E+00
      21     1     1     2   511   501  1.692569832E+01  9.886415243E+01 -5.788880953E+02  5.875134269E+02  1.078959322E-05  0.00000E+00  9.000E+00
#rwgt            1           1   3.3279463654123285E-002           6      218815           0
</event>
<event>
      5   9999  3.19816E-02  1.53210E+02 -1.00000E+00  1.16030E-01
      21    -1     0     0   502   501  0.000000000E+00  0.000000000E+00  7.507086365E+02  7.507086365E+02  0.000000000E+00  0.00000E+00  9.000E+00
      21    -1     0     0   501   512  0.000000000E+00  0.000000000E+00 -3.059316485E+02  3.059316485E+02  0.000000000E+00  0.00000E+00  9.000E+00
      25     1     1     2     0     0  7.824282954E+01  3.488881984E+02  5.049292258E+02  6.312079201E+02  1.250000000E+02  0.00000E+00  9.000E+00
      25     1     1     2     0     0 -9.744893050E+01 -1.968864866E+02 -9.194169205E+01  2.689588396E+02  1.250000000E+02  0.00000E+00  9.000E+00
      21     1     1     2   502   512  1.920610095E+01 -1.520017118E+02  3.178945426E+01  1.564735253E+02  3.320786542E-06  0.00000E+00  9.000E+00
#rwgt            1           1   2.7158788639926733E-002           6      218871           0
</event>
<event>
      5   9999  3.19816E-02  1.58273E+02 -1.00000E+00  1.15477E-01
      21    -1     0     0   502   501  0.000000000E+00  0.000000000E+00  1.379683180E+03  1.379683180E+03  0.000000000E+00  0.00000E+00  9.000E+00
      21    -1     0     0   511   502  0.000000000E+00  0.000000000E+00 -4.323960055E+02  4.323960055E+02  0.000000000E+00  0.00000E+00  9.000E+00
      25     1     1     2     0     0  4.819850436E+02  3.571803166E+02  4.461425575E+02  7.579944211E+02  1.250000000E+02  0.00000E+00  9.000E+00
      25     1     1     2     0     0 -4.839844118E+02 -5.154405689E+02  5.309856356E+02  8.930233122E+02  1.250000000E+02  0.00000E+00  9.000E+00
      21     1     1     2   511   501  1.999368199E+00  1.582602523E+02 -2.984101879E+01  1.610614520E+02  1.936921693E-06  0.00000E+00  9.000E+00
#rwgt            1           1   2.0828856113372731E-002           6      218962           0
</event>
<event>
      5   9999  3.19816E-02  1.76730E+02 -1.00000E+00  1.13639E-01
      21    -1     0     0   502   501  0.000000000E+00  0.000000000E+00  3.784279067E+02  3.784279067E+02  0.000000000E+00  0.00000E+00  9.000E+00
      21    -1     0     0   501   512  0.000000000E+00  0.000000000E+00 -1.279011940E+03  1.279011940E+03  0.000000000E+00  0.00000E+00  9.000E+00
      25     1     1     2     0     0  2.688152236E+02 -2.576204617E+02  6.581949628E+01  3.982299999E+02  1.250000000E+02  0.00000E+00  9.000E+00
      25     1     1     2     0     0 -4.241744900E+02  1.733758656E+02 -2.820684999E+02  5.524226891E+02  1.250000000E+02  0.00000E+00  9.000E+00
      21     1     1     2   502   512  1.553592664E+02  8.424459613E+01 -6.843350293E+02  7.067871575E+02  1.078959322E-05  0.00000E+00  9.000E+00
#rwgt            1           1   2.9207929219100402E-002           6      219046           0
</event>
<event>
      5   9999  3.19816E-02  3.41375E+02 -1.00000E+00  1.03800E-01
      -1    -1     0     0     0   501  0.000000000E+00  0.000000000E+00  4.462992542E+02  4.462992542E+02  0.000000000E+00  0.00000E+00  9.000E+00
      21    -1     0     0   501   502  0.000000000E+00  0.000000000E+00 -1.441093014E+03  1.441093014E+03  0.000000000E+00  0.00000E+00  9.000E+00
      25     1     1     2     0     0 -2.411972827E+02 -5.640880456E+01 -1.078717929E+02  2.976901176E+02  1.250000000E+02  0.00000E+00  9.000E+00
      25     1     1     2     0     0 -5.172077147E+01  2.317259243E+02 -1.135910254E+03  1.167171387E+03  1.250000000E+02  0.00000E+00  9.000E+00
      -1     1     1     2     0   502  2.929180541E+02 -1.753171197E+02  2.489882871E+02  4.225307634E+02  7.136645101E-06  0.00000E+00  9.000E+00
#rwgt            2           5   2.9916370337277579E-004           6      219179           0
</event>
<event>
      5   9999  3.19816E-02  1.90640E+02 -1.00000E+00  1.12411E-01
      21    -1     0     0   502   501  0.000000000E+00  0.000000000E+00  1.055114713E+03  1.055114713E+03  0.000000000E+00  0.00000E+00  9.000E+00
      21    -1     0     0   511   502  0.000000000E+00  0.000000000E+00 -1.170892856E+02  1.170892856E+02  0.000000000E+00  0.00000E+00  9.000E+00
      25     1     1     2     0     0  2.292473223E+02 -3.482449706E+01  7.365610278E+02  7.822494667E+02  1.250000000E+02  0.00000E+00  9.000E+00
      25     1     1     2     0     0 -3.959922878E+01  5.424841026E+01  6.882503176E+01  1.577113627E+02  1.250000000E+02  0.00000E+00  9.000E+00
      21     1     1     2   511   501 -1.896480936E+02 -1.942391320E+01  1.326393680E+02  2.322431694E+02  2.697398305E-06  0.00000E+00  9.000E+00
#rwgt            1           1   3.1322769866186942E-002           6      219213           0
</event>
<event>
      5   9999  3.19816E-02  3.51424E+01 -1.00000E+00  1.48416E-01
      21    -1     0     0   512   501  0.000000000E+00  0.000000000E+00  1.487610379E+03  1.487610379E+03  0.000000000E+00  0.00000E+00  9.000E+00
      21    -1     0     0   501   502  0.000000000E+00  0.000000000E+00 -1.956998337E+02  1.956998337E+02  0.000000000E+00  0.00000E+00  9.000E+00
      25     1     1     2     0     0 -2.759714668E+02 -1.177344536E+02  1.491309611E+02  3.576124937E+02  1.250000000E+02  0.00000E+00  9.000E+00
      25     1     1     2     0     0  2.504748497E+02  1.419193208E+02  1.790637357E+02  3.613413419E+02  1.250000000E+02  0.00000E+00  9.000E+00
      21     1     1     2   512   502  2.549661710E+01 -2.418486717E+01  9.637158485E+02  9.643563771E+02  1.525878906E-05  0.00000E+00  9.000E+00
#rwgt            1           1   2.8165263812373137E-002           6      219273           0
</event>
<event>
      5   9999  3.19816E-02  6.13111E+01 -1.00000E+00  1.34204E-01
      21    -1     0     0   502   501  0.000000000E+00  0.000000000E+00  8.355920262E+02  8.355920262E+02  0.000000000E+00  0.00000E+00  9.000E+00
      21    -1     0     0   501   511  0.000000000E+00  0.000000000E+00 -1.221016064E+03  1.221016064E+03  0.000000000E+00  0.00000E+00  9.000E+00
      25     1     1     2     0     0  1.962625578E+02  2.801895807E+02  5.662404903E+02  6.732595975E+02  1.250000000E+02  0.00000E+00  9.000E+00
      25     1     1     2     0     0 -1.497037882E+02 -2.402980196E+02  1.035560023E+02  3.263482925E+02  1.250000000E+02  0.00000E+00  9.000E+00
      21     1     1     2   502   511 -4.655876968E+01 -3.989156111E+01 -1.055220530E+03  1.057000200E+03  0.000000000E+00  0.00000E+00  9.000E+00
#rwgt            1           1   2.7935352740606021E-002           6      219388           0
</event>
<event>
      5   9999  3.19816E-02  5.11856E+01 -1.00000E+00  1.38497E-01
      21    -1     0     0   502   501  0.000000000E+00  0.000000000E+00  3.318998618E+03  3.318998618E+03  0.000000000E+00  0.00000E+00  9.000E+00
      21    -1     0     0   512   502  0.000000000E+00  0.000000000E+00 -3.678322566E+02  3.678322566E+02  0.000000000E+00  0.00000E+00  9.000E+00
      25     1     1     2     0     0  7.706984392E+02 -6.744098931E+02  2.131199154E+03  2.367792141E+03  1.250000000E+02  0.00000E+00  9.000E+00
      25     1     1     2     0     0 -7.271459652E+02  6.475185046E+02  7.867057810E+02  1.257995411E+03  1.250000000E+02  0.00000E+00  9.000E+00
      21     1     1     2   512   501 -4.355247402E+01  2.689138858E+01  3.326142650E+01  6.104332286E+01  6.743495762E-07  0.00000E+00  9.000E+00
#rwgt            1           1   1.8079688550015377E-002           6      219456           0
</event>
<event>
      5   9999  3.19816E-02  1.32265E+02 -1.00000E+00  1.18601E-01
      21    -1     0     0   502   511  0.000000000E+00  0.000000000E+00  2.674329305E+02  2.674329305E+02  0.000000000E+00  0.00000E+00  9.000E+00
      21    -1     0     0   501   502  0.000000000E+00  0.000000000E+00 -3.365937826E+02  3.365937826E+02  0.000000000E+00  0.00000E+00  9.000E+00
      25     1     1     2     0     0 -1.067032367E+02  4.134394579E+01  1.613279687E+01  1.702356300E+02  1.250000000E+02  0.00000E+00  9.000E+00
      25     1     1     2     0     0  2.384392262E+02 -2.952551355E+01 -1.212364064E+02  2.967293157E+02  1.250000000E+02  0.00000E+00  9.000E+00
      21     1     1     2   501   511 -1.317359895E+02 -1.181843224E+01  3.594275748E+01  1.370617674E+02  2.567846683E-06  0.00000E+00  9.000E+00
#rwgt            1           1   2.6475452553542327E-002           6      219543           0
</event>
<event>
      5   9999  3.19816E-02  2.24019E+02 -1.00000E+00  1.09884E-01
      21    -1     0     0   502   501  0.000000000E+00  0.000000000E+00  9.392100667E+02  9.392100667E+02  0.000000000E+00  0.00000E+00  9.000E+00
       2    -1     0     0   501     0  0.000000000E+00  0.000000000E+00 -3.089056361E+03  3.089056361E+03  0.000000000E+00  0.00000E+00  9.000E+00
      25     1     1     2     0     0 -4.950843880E+00 -2.460961908E+02 -1.482894639E+02  3.133729584E+02  1.250000000E+02  0.00000E+00  9.000E+00
      25     1     1     2     0     0 -6.955008195E+01  4.573642465E+02  7.848026589E+02  9.195430829E+02  1.250000000E+02  0.00000E+00  9.000E+00
       2     1     1     2   502     0  7.450092583E+01 -2.112680557E+02 -2.786359490E+03  2.795350387E+03  3.051757812E-05  0.00000E+00  9.000E+00
#rwgt            2          13   1.3284623307779351E-002           6      219577           0
</event>
<event>
      5   9999  3.19816E-02  1.07560E+02 -1.00000E+00  1.22421E-01
      21    -1     0     0   502   511  0.000000000E+00  0.000000000E+00  1.766534459E+02  1.766534459E+02  0.000000000E+00  0.00000E+00  9.000E+00
      21    -1     0     0   501   502  0.000000000E+00  0.000000000E+00 -8.237731259E+02  8.237731259E+02  0.000000000E+00  0.00000E+00  9.000E+00
      25     1     1     2     0     0  2.286829737E+02 -1.018979840E+01 -3.130871852E+02  4.074902698E+02  1.250000000E+02  0.00000E+00  9.000E+00
      25     1     1     2     0     0 -3.331302152E+02  3.587974204E+01 -3.279231437E+02  4.852027250E+02  1.250000000E+02  0.00000E+00  9.000E+00
      21     1     1     2   501   511  1.044472415E+02 -2.568994363E+01 -6.109351125E+00  1.077335771E+02  2.681546659E-06  0.00000E+00  9.000E+00
#rwgt            1           1   2.7861579066430560E-002           6      219596           0
</event>
<event>
      5   9999  3.19816E-02  2.85803E+01 -1.00000E+00  1.54517E-01
      21    -1     0     0   502   501  0.000000000E+00  0.000000000E+00  3.953991169E+02  3.953991169E+02  0.000000000E+00  0.00000E+00  9.000E+00
      21    -1     0     0   512   502  0.000000000E+00  0.000000000E+00 -3.556037437E+02  3.556037437E+02  0.000000000E+00  0.00000E+00  9.000E+00
      25     1     1     2     0     0 -2.379292415E+02 -1.238969414E+02  2.276721372E+02  3.733903830E+02  1.250000000E+02  0.00000E+00  9.000E+00
      25     1     1     2     0     0  2.526883750E+02  9.942241249E+01 -1.731899549E+02  3.454793647E+02  1.250000000E+02  0.00000E+00  9.000E+00
      21     1     1     2   512   501 -1.475913351E+01  2.447452886E+01 -1.468680914E+01  3.213311295E+01  4.768371582E-07  0.00000E+00  9.000E+00
#rwgt            1           1   3.1113460941910264E-002           6      219678           0
</event>
<event>
      5   9999  3.19816E-02  5.97087E+01 -1.00000E+00  1.34816E-01
      21    -1     0     0   502   511  0.000000000E+00  0.000000000E+00  1.255075344E+03  1.255075344E+03  0.000000000E+00  0.00000E+00  9.000E+00
      21    -1     0     0   501   502  0.000000000E+00  0.000000000E+00 -8.587163443E+01  8.587163443E+01  0.000000000E+00  0.00000E+00  9.000E+00
      25     1     1     2     0     0  2.184042791E+02  1.364510695E+02  3.715130218E+02  4.690055958E+02  1.250000000E+02  0.00000E+00  9.000E+00
      25     1     1     2     0     0 -1.814827531E+02 -1.833758216E+02  5.920485225E+02  6.578063047E+02  1.250000000E+02  0.00000E+00  9.000E+00
      21     1     1     2   501   511 -3.692152604E+01  4.692475204E+01  2.056421656E+02  2.141350782E+02  2.697398305E-06  0.00000E+00  9.000E+00
#rwgt            1           1   2.4955030641382582E-002           6      219830           0
</event>
<event>
      5   9999  3.19816E-02  8.05828E+00 -1.00000E+00  2.07259E-01
      21    -1     0     0   502   512  0.000000000E+00  0.000000000E+00  7.532428291E+01  7.532428291E+01  0.000000000E+00  0.00000E+00  9.000E+00
      21    -1     0     0   501   502  0.000000000E+00  0.000000000E+00 -2.562614501E+03  2.562614501E+03  0.000000000E+00  0.00000E+00  9.000E+00
      25     1     1     2     0     0 -2.856535434E+02 -2.389308391E+02 -1.622452722E+03  1.669330323E+03  1.250000000E+02  0.00000E+00  9.000E+00
      25     1     1     2     0     0  2.800938515E+02  2.447639887E+02 -8.729993381E+02  9.571388720E+02  1.250000000E+02  0.00000E+00  9.000E+00
      21     1     1     2   501   512  5.559691886E+00 -5.833149591E+00  8.161841866E+00  1.146958895E+01  5.462855929E-07  0.00000E+00  9.000E+00
#rwgt            1           1   7.9474038148345999E-002           6      219901           0
</event>
<event>
      5   9999  3.19816E-02  8.97344E+01 -1.00000E+00  1.25981E-01
      21    -1     0     0   502   511  0.000000000E+00  0.000000000E+00  1.529810908E+02  1.529810908E+02  0.000000000E+00  0.00000E+00  9.000E+00
      21    -1     0     0   501   502  0.000000000E+00  0.000000000E+00 -6.551215474E+02  6.551215474E+02  0.000000000E+00  0.00000E+00  9.000E+00
      25     1     1     2     0     0 -1.882618453E+02 -9.360616248E+00 -1.852597076E+02  2.923633061E+02  1.250000000E+02  0.00000E+00  9.000E+00
      25     1     1     2     0     0  2.008554105E+02 -7.948572149E+01 -3.412324686E+02  4.227593565E+02  1.250000000E+02  0.00000E+00  9.000E+00
      21     1     1     2   501   511 -1.259356526E+01  8.884633774E+01  2.435171957E+01  9.297997560E+01  1.118282261E-06  0.00000E+00  9.000E+00
#rwgt            1           1   2.5736895922711157E-002           6      220192           0
</event>
<event>
      5   9999  3.19816E-02  9.08237E+01 -1.00000E+00  1.25738E-01
       3    -1     0     0   502     0  0.000000000E+00  0.000000000E+00  1.872433798E+02  1.872433798E+02  0.000000000E+00  0.00000E+00  9.000E+00
      21    -1     0     0   501   502  0.000000000E+00  0.000000000E+00 -8.802374264E+02  8.802374264E+02  0.000000000E+00  0.00000E+00  9.000E+00
      25     1     1     2     0     0 -2.009751764E+02  9.824904512E+01 -5.888991847E+02  6.422391659E+02  1.250000000E+02  0.00000E+00  9.000E+00
      25     1     1     2     0     0  1.422149164E+02 -2.899457745E+01 -2.109918665E+02  2.849707629E+02  1.250000000E+02  0.00000E+00  9.000E+00
       3     1     1     2   501     0  5.876025993E+01 -6.925446768E+01  1.068970047E+02  1.402708774E+02  1.907348633E-06  0.00000E+00  9.000E+00
#rwgt            1           1   2.7494907649398870E-002           6      220248           0
</event>
<event>
      5   9999  3.19816E-02  5.59339E+01 -1.00000E+00  1.36352E-01
      21    -1     0     0   502   501  0.000000000E+00  0.000000000E+00  1.293861625E+02  1.293861625E+02  0.000000000E+00  0.00000E+00  9.000E+00
      21    -1     0     0   501   511  0.000000000E+00  0.000000000E+00 -6.916040864E+02  6.916040864E+02  0.000000000E+00  0.00000E+00  9.000E+00
      25     1     1     2     0     0  1.043402854E+02 -6.092605847E+01 -6.111589873E+01  1.842797679E+02  1.250000000E+02  0.00000E+00  9.000E+00
      25     1     1     2     0     0 -9.025220814E+01  1.150566979E+02 -7.424725245E+01  2.062065938E+02  1.250000000E+02  0.00000E+00  9.000E+00
      21     1     1     2   502   511 -1.408807728E+01 -5.413063947E+01 -4.268547727E+02  4.305038873E+02  5.394796609E-06  0.00000E+00  9.000E+00
#rwgt            1           1   2.8531881846628016E-002           6      220314           0
</event>
<event>
      5   9999  3.19816E-02  1.02732E+02 -1.00000E+00  1.23304E-01
      21    -1     0     0   502   501  0.000000000E+00  0.000000000E+00  2.036188805E+02  2.036188805E+02  0.000000000E+00  0.00000E+00  9.000E+00
      21    -1     0     0   512   502  0.000000000E+00  0.000000000E+00 -7.278297583E+02  7.278297583E+02  0.000000000E+00  0.00000E+00  9.000E+00
      25     1     1     2     0     0 -1.719326596E+02  1.232841664E+02  3.200944723E+01  2.478092610E+02  1.250000000E+02  0.00000E+00  9.000E+00
      25     1     1     2     0     0  6.945217556E+01 -1.304719320E+02 -1.036962582E+02  2.196006460E+02  1.250000000E+02  0.00000E+00  9.000E+00
      21     1     1     2   512   501  1.024804841E+02  7.187765664E+00 -4.525240669E+02  4.640387319E+02  7.629394531E-06  0.00000E+00  9.000E+00
#rwgt            1           1   2.7187016768379726E-002           6      220380           0
</event>
<event>
      5   9999  3.19816E-02  3.79489E+01 -1.00000E+00  1.46272E-01
      21    -1     0     0   502   511  0.000000000E+00  0.000000000E+00  7.052598807E+02  7.052598807E+02  0.000000000E+00  0.00000E+00  9.000E+00
      21    -1     0     0   501   502  0.000000000E+00  0.000000000E+00 -5.209986925E+01  5.209986925E+01  0.000000000E+00  0.00000E+00  9.000E+00
      25     1     1     2     0     0  4.178292203E+00 -1.166116048E+02  3.562078434E+02  3.951262484E+02  1.250000000E+02  0.00000E+00  9.000E+00
      25     1     1     2     0     0 -1.809609197E+01  8.130697059E+01  1.572326522E+02  2.174520612E+02  1.250000000E+02  0.00000E+00  9.000E+00
      21     1     1     2   501   511  1.391779976E+01  3.530463422E+01  1.397195159E+02  1.447814403E+02  1.907348633E-06  0.00000E+00  9.000E+00
#rwgt            1           1   3.4226674469681667E-002           6      220454           0
</event>
<event>
      5   9999  3.19816E-02  8.81867E+01 -1.00000E+00  1.26334E-01
       5    -1     0     0   502     0  0.000000000E+00  0.000000000E+00  7.449581633E+02  7.449581633E+02  0.000000000E+00  0.00000E+00  9.000E+00
      21    -1     0     0   501   502  0.000000000E+00  0.000000000E+00 -8.612779906E+02  8.612779906E+02  0.000000000E+00  0.00000E+00  9.000E+00
      25     1     1     2     0     0 -1.239337668E+02  5.940804267E+02 -4.951680485E+02  7.931629897E+02  1.250000000E+02  0.00000E+00  9.000E+00
      25     1     1     2     0     0  1.697662324E+02 -5.187393396E+02  1.681206619E+02  5.846371807E+02  1.250000000E+02  0.00000E+00  9.000E+00
       5     1     1     2   501     0 -4.583246560E+01 -7.534108710E+01  2.107275593E+02  2.284359835E+02  2.697398305E-06  0.00000E+00  9.000E+00
#rwgt            1           1   3.3442009422462199E-002           6      220529           0
</event>
<event>
      5   9999  3.19816E-02  3.56174E+01 -1.00000E+00  1.48037E-01
      21    -1     0     0   511   501  0.000000000E+00  0.000000000E+00  4.018357103E+02  4.018357103E+02  0.000000000E+00  0.00000E+00  9.000E+00
      21    -1     0     0   501   502  0.000000000E+00  0.000000000E+00 -1.296460573E+03  1.296460573E+03  0.000000000E+00  0.00000E+00  9.000E+00
      25     1     1     2     0     0  2.056859131E+01  2.679482362E+02 -5.440171258E+02  6.195150986E+02  1.250000000E+02  0.00000E+00  9.000E+00
      25     1     1     2     0     0  3.345848241E+00 -2.943432624E+02 -6.779044071E+02  7.495522237E+02  1.250000000E+02  0.00000E+00  9.000E+00
      21     1     1     2   511   502 -2.391443955E+01  2.639502619E+01  3.272966707E+02  3.292289606E+02  5.394796609E-06  0.00000E+00  9.000E+00
#rwgt            1           1   2.7091988426869447E-002           6      220618           0
</event>
<event>
      5   9999  3.19816E-02  1.30368E+02 -1.00000E+00  1.18860E-01
      21    -1     0     0   502   512  0.000000000E+00  0.000000000E+00  2.416162239E+02  2.416162239E+02  0.000000000E+00  0.00000E+00  9.000E+00
      21    -1     0     0   501   502  0.000000000E+00  0.000000000E+00 -1.874122814E+03  1.874122814E+03  0.000000000E+00  0.00000E+00  9.000E+00
      25     1     1     2     0     0 -2.344755200E+02 -4.540442375E+01 -1.692003071E+03  1.713341683E+03  1.250000000E+02  0.00000E+00  9.000E+00
      25     1     1     2     0     0  1.071301867E+02  7.331275049E+01  1.574703181E+02  2.393189031E+02  1.250000000E+02  0.00000E+00  9.000E+00
      21     1     1     2   501   512  1.273453333E+02 -2.790832674E+01 -9.797383720E+01  1.630784517E+02  2.336015456E-06  0.00000E+00  9.000E+00
#rwgt            1           1   2.8813076962240339E-002           6      220738           0
</event>
<event>
      5   9999  3.19816E-02  5.53471E+00 -1.00000E+00  2.31058E-01
      21    -1     0     0   511   501  0.000000000E+00  0.000000000E+00  1.562251310E+02  1.562251310E+02  0.000000000E+00  0.00000E+00  9.000E+00
      21    -1     0     0   501   502  0.000000000E+00  0.000000000E+00 -2.689398212E+02  2.689398212E+02  0.000000000E+00  0.00000E+00  9.000E+00
      25     1     1     2     0     0 -7.340991513E+01 -3.784346854E+01 -1.870181244E+02  2.396287182E+02  1.250000000E+02  0.00000E+00  9.000E+00
      25     1     1     2     0     0  7.644861917E+01  4.246941000E+01  4.989352425E+01  1.605067161E+02  1.250000000E+02  0.00000E+00  9.000E+00
      21     1     1     2   511   502 -3.038704035E+00 -4.625941458E+00  2.440990993E+01  2.502951776E+01  3.371747881E-07  0.00000E+00  9.000E+00
#rwgt            1           1   3.0152363163701738E-002           6      220804           0
</event>
<event>
      5   9999  3.19816E-02  8.17183E+01 -1.00000E+00  1.27904E-01
      21    -1     0     0   502   501  0.000000000E+00  0.000000000E+00  3.184175683E+02  3.184175683E+02  0.000000000E+00  0.00000E+00  9.000E+00
      21    -1     0     0   501   512  0.000000000E+00  0.000000000E+00 -6.254700285E+02  6.254700285E+02  0.000000000E+00  0.00000E+00  9.000E+00
      25     1     1     2     0     0  2.340011923E+02 -2.665934324E+01  1.512475340E+02  3.065421588E+02  1.250000000E+02  0.00000E+00  9.000E+00
      25     1     1     2     0     0 -3.018072655E+02  7.226881632E+01 -2.627554922E+02  4.254125715E+02  1.250000000E+02  0.00000E+00  9.000E+00
      21     1     1     2   502   512  6.780607323E+01 -4.560947308E+01 -1.955445020E+02  2.119328664E+02  2.697398305E-06  0.00000E+00  9.000E+00
#rwgt            1           1   2.7134555177469852E-002           6      221056           0
</event>
<event>
      5   9999  3.19816E-02  6.04215E+01 -1.00000E+00  1.34541E-01
       2    -1     0     0   502     0  0.000000000E+00  0.000000000E+00  2.227384594E+03  2.227384594E+03  0.000000000E+00  0.00000E+00  9.000E+00
      21    -1     0     0   501   502  0.000000000E+00  0.000000000E+00 -2.330865390E+02  2.330865390E+02  0.000000000E+00  0.00000E+00  9.000E+00
      25     1     1     2     0     0 -1.550574972E+02  2.680320390E+02  1.384128476E+02  3.614790696E+02  1.250000000E+02  0.00000E+00  9.000E+00
      25     1     1     2     0     0  1.946776019E+02 -3.136500226E+02  1.928271552E+02  4.348367707E+02  1.250000000E+02  0.00000E+00  9.000E+00
       2     1     1     2   501     0 -3.962010468E+01  4.561798362E+01  1.663058052E+03  1.664155293E+03  2.157918644E-05  0.00000E+00  9.000E+00
#rwgt            1           1   2.8847271667801187E-002           6      221177           0
</event>
<event>
      5   9999  3.19816E-02  2.23804E+02 -1.00000E+00  1.09899E-01
      -2    -1     0     0     0   501  0.000000000E+00  0.000000000E+00  2.280408547E+02  2.280408547E+02  0.000000000E+00  0.00000E+00  9.000E+00
      21    -1     0     0   501   502  0.000000000E+00  0.000000000E+00 -1.830036180E+03  1.830036180E+03  0.000000000E+00  0.00000E+00  9.000E+00
      25     1     1     2     0     0  3.340856948E+02  1.260400044E+02 -3.634602911E+02  5.246214992E+02  1.250000000E+02  0.00000E+00  9.000E+00
      25     1     1     2     0     0 -2.237849775E+02 -3.207755144E+02 -1.243558687E+03  1.309595302E+03  1.250000000E+02  0.00000E+00  9.000E+00
      -2     1     1     2     0   502 -1.103007173E+02  1.947355100E+02  5.023652900E+00  2.238602336E+02  2.443063442E-06  0.00000E+00  9.000E+00
#rwgt            1           1   3.1692082262893301E-002           6      221302           0
</event>
<event>
      5   9999  3.19816E-02  3.61608E+01 -1.00000E+00  1.47611E-01
      21    -1     0     0   502   501  0.000000000E+00  0.000000000E+00  4.746411125E+02  4.746411125E+02  0.000000000E+00  0.00000E+00  9.000E+00
      21    -1     0     0   511   502  0.000000000E+00  0.000000000E+00 -2.530700842E+02  2.530700842E+02  0.000000000E+00  0.00000E+00  9.000E+00
      25     1     1     2     0     0  2.202292476E+02 -1.832227845E+02  2.141372432E+02  3.788816031E+02  1.250000000E+02  0.00000E+00  9.000E+00
      25     1     1     2     0     0 -1.931233674E+02  2.071575136E+02  2.081433700E+01  3.102726335E+02  1.250000000E+02  0.00000E+00  9.000E+00
      21     1     1     2   511   501 -2.710588024E+01 -2.393472916E+01 -1.338055191E+01  3.855696011E+01  6.951036328E-07  0.00000E+00  9.000E+00
#rwgt            1           1   2.6550968970535407E-002           6      221358           0
</event>
<event>
      5   9999  3.19816E-02  1.72963E+01 -1.00000E+00  1.71747E-01
      21    -1     0     0   502   501  0.000000000E+00  0.000000000E+00  2.416898376E+02  2.416898376E+02  0.000000000E+00  0.00000E+00  9.000E+00
      21    -1     0     0   501   512  0.000000000E+00  0.000000000E+00 -1.776443224E+03  1.776443224E+03  0.000000000E+00  0.00000E+00  9.000E+00
      25     1     1     2     0     0 -2.937231866E+02 -1.197679283E+02  4.536897123E+01  3.439491395E+02  1.250000000E+02  0.00000E+00  9.000E+00
      25     1     1     2     0     0  3.103413299E+02  1.245637142E+02 -6.316828621E+02  7.255867268E+02  1.250000000E+02  0.00000E+00  9.000E+00
      21     1     1     2   502   512 -1.661814327E+01 -4.795785896E+00 -9.484394954E+02  9.485971952E+02  1.868812365E-05  0.00000E+00  9.000E+00
#rwgt            1           1   2.9572702852091015E-002           6      221449           0
</event>
<event>
      5   9999  3.19816E-02  5.92382E+01 -1.00000E+00  1.35001E-01
      21    -1     0     0   502   501  0.000000000E+00  0.000000000E+00  9.672336971E+02  9.672336971E+02  0.000000000E+00  0.00000E+00  9.000E+00
      21    -1     0     0   511   502  0.000000000E+00  0.000000000E+00 -6.594220034E+02  6.594220034E+02  0.000000000E+00  0.00000E+00  9.000E+00
      25     1     1     2     0     0  3.286793511E+02  4.163673112E+02  7.345306441E+02  9.146322325E+02  1.250000000E+02  0.00000E+00  9.000E+00
      25     1     1     2     0     0 -2.738798423E+02 -3.938689835E+02 -3.202770474E+02  5.902078713E+02  1.250000000E+02  0.00000E+00  9.000E+00
      21     1     1     2   511   501 -5.479950877E+01 -2.249832763E+01 -1.064419029E+02  1.218155967E+02  2.336015456E-06  0.00000E+00  9.000E+00
#rwgt            1           1   3.2223532415047315E-002           6      221655           0
</event>
<event>
      5   9999  3.19816E-02  1.00889E+01 -1.00000E+00  1.95314E-01
      21    -1     0     0   512   501  0.000000000E+00  0.000000000E+00  5.262240095E+02  5.262240095E+02  0.000000000E+00  0.00000E+00  9.000E+00
      21    -1     0     0   501   502  0.000000000E+00  0.000000000E+00 -4.736707237E+02  4.736707237E+02  0.000000000E+00  0.00000E+00  9.000E+00
      25     1     1     2     0     0  3.898703442E+01  3.219983952E+02  3.593592756E+02  4.999670432E+02  1.250000000E+02  0.00000E+00  9.000E+00
      25     1     1     2     0     0 -4.609464596E+01 -3.148381871E+02 -3.296763843E+02  4.749308569E+02  1.250000000E+02  0.00000E+00  9.000E+00
      21     1     1     2   512   502  7.107611534E+00 -7.160208079E+00  2.287039453E+01  2.499683315E+01  3.371747881E-07  0.00000E+00  9.000E+00
#rwgt            1           1   3.1023774802851543E-002           6      221753           0
</event>
<event>
      5   9999  3.19816E-02  9.28586E+00 -1.00000E+00  1.99552E-01
       1    -1     0     0   502     0  0.000000000E+00  0.000000000E+00  1.910869698E+03  1.910869698E+03  0.000000000E+00  0.00000E+00  9.000E+00
      21    -1     0     0   501   502  0.000000000E+00  0.000000000E+00 -1.556877647E+02  1.556877647E+02  0.000000000E+00  0.00000E+00  9.000E+00
      25     1     1     2     0     0  1.224062785E+02 -9.720338658E+01  5.404480313E+01  2.073104824E+02  1.250000000E+02  0.00000E+00  9.000E+00
      25     1     1     2     0     0 -1.264309113E+02  8.883502678E+01  4.589637917E+01  2.039801827E+02  1.250000000E+02  0.00000E+00  9.000E+00
       1     1     1     2   501     0  4.024632792E+00  8.368359805E+00  1.655240751E+03  1.655266797E+03  0.000000000E+00  0.00000E+00  9.000E+00
#rwgt            1           1   2.7852676774993396E-002           6      222068           0
</event>
<event>
      5   9999  3.19816E-02  4.37540E+01 -1.00000E+00  1.42465E-01
      21    -1     0     0   502   501  0.000000000E+00  0.000000000E+00  4.066690470E+02  4.066690470E+02  0.000000000E+00  0.00000E+00  9.000E+00
       2    -1     0     0   501     0  0.000000000E+00  0.000000000E+00 -1.807291802E+03  1.807291802E+03  0.000000000E+00  0.00000E+00  9.000E+00
      25     1     1     2     0     0 -2.229726186E+02 -2.947809525E+02 -4.653166781E+02  6.072538263E+02  1.250000000E+02  0.00000E+00  9.000E+00
      25     1     1     2     0     0  2.632960191E+02  3.117644184E+02  1.994614429E+02  4.710962889E+02  1.250000000E+02  0.00000E+00  9.000E+00
       2     1     1     2   502     0 -4.032340047E+01 -1.698346595E+01 -1.134767520E+03  1.135610734E+03  0.000000000E+00  0.00000E+00  9.000E+00
#rwgt            1           1   2.5129646074214383E-002           6      222256           0
</event>
<event>
      5   9999  3.48562E-02  5.44358E+01 -1.00000E+00  1.37002E-01
      21    -1     0     0   502   501  0.000000000E+00  0.000000000E+00  9.408031584E+02  9.408031584E+02  0.000000000E+00  0.00000E+00  9.000E+00
      21    -1     0     0   511   502  0.000000000E+00  0.000000000E+00 -4.627296923E+01  4.627296923E+01  0.000000000E+00  0.00000E+00  9.000E+00
      25     1     1     2     0     0  9.427663354E+00 -8.223323247E+01  4.987503541E+02  5.207956423E+02  1.250000000E+02  0.00000E+00  9.000E+00
      25     1     1     2     0     0  2.884036278E+01  4.351872555E+01  3.884013973E+02  4.113469235E+02  1.250000000E+02  0.00000E+00  9.000E+00
      21     1     1     2   511   501 -3.826802613E+01  3.871450692E+01  7.378437714E+00  5.493356181E+01  1.864015552E-06  0.00000E+00  9.000E+00
#rwgt            1           1   3.3465984610261214E-002           6      222335           0
</event>
<event>
      5   9999  3.19816E-02  5.46934E+01 -1.00000E+00  1.36888E-01
      21    -1     0     0   512   501  0.000000000E+00  0.000000000E+00  3.212208888E+03  3.212208888E+03  0.000000000E+00  0.00000E+00  9.000E+00
      21    -1     0     0   501   502  0.000000000E+00  0.000000000E+00 -1.376634790E+02  1.376634790E+02  0.000000000E+00  0.00000E+00  9.000E+00
      25     1     1     2     0     0 -4.047376418E+02  3.488311970E+02  7.232788752E+02  9.078838549E+02  1.250000000E+02  0.00000E+00  9.000E+00
      25     1     1     2     0     0  3.988854807E+02 -2.944518264E+02  1.422320609E+03  1.511433895E+03  1.250000000E+02  0.00000E+00  9.000E+00
      21     1     1     2   512   502  5.852161099E+00 -5.437937057E+01  9.289459247E+02  9.305546167E+02  1.868812365E-05  0.00000E+00  9.000E+00
#rwgt            1           1   3.1746265454508080E-002           6      222411           0
</event>
<event>
      5   9999  3.19816E-02  5.00817E+01 -1.00000E+00  1.39035E-01
      21    -1     0     0   511   501  0.000000000E+00  0.000000000E+00  2.762914109E+02  2.762914109E+02  0.000000000E+00  0.00000E+00  9.000E+00
      21    -1     0     0   501   502  0.000000000E+00  0.000000000E+00 -1.679817585E+03  1.679817585E+03  0.000000000E+00  0.00000E+00  9.000E+00
      25     1     1     2     0     0  3.368923983E+02 -7.338286482E+01 -1.493129180E+03  1.537511392E+03  1.250000000E+02  0.00000E+00  9.000E+00
      25     1     1     2     0     0 -2.877470229E+02  6.374377812E+01  1.383112910E+02  3.487357619E+02  1.250000000E+02  0.00000E+00  9.000E+00
      21     1     1     2   511   502 -4.914537547E+01  9.639086695E+00 -4.870828564E+01  6.986184232E+01  6.743495762E-07  0.00000E+00  9.000E+00
#rwgt            1           1   2.5538993751541859E-002           6      222528           0
</event>
<event>
      5   9999  3.19816E-02  8.07951E+01 -1.00000E+00  1.28142E-01
      21    -1     0     0   502   501  0.000000000E+00  0.000000000E+00  3.074335221E+02  3.074335221E+02  0.000000000E+00  0.00000E+00  9.000E+00
      21    -1     0     0   501   512  0.000000000E+00  0.000000000E+00 -2.556432890E+02  2.556432890E+02  0.000000000E+00  0.00000E+00  9.000E+00
      25     1     1     2     0     0 -1.520838391E+02  3.484626713E+01 -6.880842267E+01  2.114316804E+02  1.250000000E+02  0.00000E+00  9.000E+00
      25     1     1     2     0     0  2.038168758E+02  2.721451899E+01  1.241401280E+02  2.707724511E+02  1.250000000E+02  0.00000E+00  9.000E+00
      21     1     1     2   502   512 -5.173303673E+01 -6.206078612E+01 -3.541472188E+00  8.087267949E+01  9.893293782E-07  0.00000E+00  9.000E+00
#rwgt            1           1   2.6488306474626022E-002           6      222609           0
</event>
<event>
      5   9999  3.19816E-02  1.83744E+01 -1.00000E+00  1.69465E-01
      21    -1     0     0   502   501  0.000000000E+00  0.000000000E+00  4.388941828E+02  4.388941828E+02  0.000000000E+00  0.00000E+00  9.000E+00
      21    -1     0     0   501   511  0.000000000E+00  0.000000000E+00 -5.768098844E+02  5.768098844E+02  0.000000000E+00  0.00000E+00  9.000E+00
      25     1     1     2     0     0 -4.986692109E+01  1.555401319E+01 -5.192223812E+02  5.366055518E+02  1.250000000E+02  0.00000E+00  9.000E+00
      25     1     1     2     0     0  6.477317180E+01 -4.810571433E+00  4.163473699E+02  4.395325219E+02  1.250000000E+02  0.00000E+00  9.000E+00
      21     1     1     2   502   511 -1.490625071E+01 -1.074344175E+01 -3.504069034E+01  3.956599336E+01  0.000000000E+00  0.00000E+00  9.000E+00
#rwgt            1           1   3.3017195620667378E-002           6      222687           0
</event>
<event>
      5   9999  3.19816E-02  2.43963E+02 -1.00000E+00  1.08594E-01
      21    -1     0     0   502   501  0.000000000E+00  0.000000000E+00  1.377502930E+02  1.377502930E+02  0.000000000E+00  0.00000E+00  9.000E+00
      21    -1     0     0   501   512  0.000000000E+00  0.000000000E+00 -1.965924129E+03  1.965924129E+03  0.000000000E+00  0.00000E+00  9.000E+00
      25     1     1     2     0     0  1.758844862E+02 -1.876047963E+02 -4.775864706E+02  5.566369993E+02  1.250000000E+02  0.00000E+00  9.000E+00
      25     1     1     2     0     0 -2.676692874E+02  4.136434562E+02 -8.557576733E+02  9.953360998E+02  1.250000000E+02  0.00000E+00  9.000E+00
      21     1     1     2   502   512  9.178480115E+01 -2.260386599E+02 -4.948296918E+02  5.517013226E+02  5.394796609E-06  0.00000E+00  9.000E+00
#rwgt            2          11   2.6892874431595705E-003           6      222923           0
</event>
<event>
      5   9999  3.19816E-02  1.32021E+02 -1.00000E+00  1.18634E-01
      21    -1     0     0   502   501  0.000000000E+00  0.000000000E+00  8.958255247E+02  8.958255247E+02  0.000000000E+00  0.00000E+00  9.000E+00
       2    -1     0     0   501     0  0.000000000E+00  0.000000000E+00 -5.625496527E+02  5.625496527E+02  0.000000000E+00  0.00000E+00  9.000E+00
      25     1     1     2     0     0 -3.913686560E+02  1.240944084E+02  6.254497530E+02  7.585388854E+02  1.250000000E+02  0.00000E+00  9.000E+00
      25     1     1     2     0     0  3.609748977E+02  4.380699615E+00 -3.101080724E+00  3.820427777E+02  1.250000000E+02  0.00000E+00  9.000E+00
       2     1     1     2   502     0  3.039375834E+01 -1.284751080E+02 -2.890728003E+02  3.177935144E+02  3.814697266E-06  0.00000E+00  9.000E+00
#rwgt            1           1   2.4793213133254360E-002           6      222943           0
</event>
<event>
      5   9999  3.19816E-02  1.84583E+01 -1.00000E+00  1.69296E-01
      21    -1     0     0   502   501  0.000000000E+00  0.000000000E+00  3.735784718E+02  3.735784718E+02  0.000000000E+00  0.00000E+00  9.000E+00
      21    -1     0     0   511   502  0.000000000E+00  0.000000000E+00 -3.960657382E+02  3.960657382E+02  0.000000000E+00  0.00000E+00  9.000E+00
      25     1     1     2     0     0  1.568234394E+02  1.263375869E+02  2.740715953E+02  3.623465418E+02  1.250000000E+02  0.00000E+00  9.000E+00
      25     1     1     2     0     0 -1.605010133E+02 -1.082493488E+02 -1.886246125E+02  2.977964762E+02  1.250000000E+02  0.00000E+00  9.000E+00
      21     1     1     2   511   501  3.677573809E+00 -1.808823803E+01 -1.079342492E+02  1.095011920E+02  0.000000000E+00  0.00000E+00  9.000E+00
#rwgt            1           1   2.8865428619128601E-002           6      223014           0
</event>
<event>
      5   9999  3.19816E-02  9.10920E+01 -1.00000E+00  1.25678E-01
      21    -1     0     0   502   501  0.000000000E+00  0.000000000E+00  6.416375584E+02  6.416375584E+02  0.000000000E+00  0.00000E+00  9.000E+00
       1    -1     0     0   501     0  0.000000000E+00  0.000000000E+00 -1.181895470E+03  1.181895470E+03  0.000000000E+00  0.00000E+00  9.000E+00
      25     1     1     2     0     0 -6.351060165E+02  2.799907243E+02 -5.284906449E+02  8.812955348E+02  1.250000000E+02  0.00000E+00  9.000E+00
      25     1     1     2     0     0  6.144964721E+02 -1.912608242E+02  2.213465675E+02  6.919580334E+02  1.250000000E+02  0.00000E+00  9.000E+00
       1     1     1     2   502     0  2.060954448E+01 -8.872990014E+01 -2.331138339E+02  2.502794599E+02  0.000000000E+00  0.00000E+00  9.000E+00
#rwgt            1           1   2.8020745851786478E-002           6      223142           0
</event>
<event>
      5   9999  3.19816E-02  5.64119E+01 -1.00000E+00  1.36150E-01
      21    -1     0     0   511   501  0.000000000E+00  0.000000000E+00  7.353837997E+02  7.353837997E+02  0.000000000E+00  0.00000E+00  9.000E+00
      21    -1     0     0   501   502  0.000000000E+00  0.000000000E+00 -2.965966373E+02  2.965966373E+02  0.000000000E+00  0.00000E+00  9.000E+00
      25     1     1     2     0     0  3.737957915E+02 -3.776673670E+01  5.581808174E+01  3.998628245E+02  1.250000000E+02  0.00000E+00  9.000E+00
      25     1     1     2     0     0 -4.185751786E+02  7.207583610E+01  3.128621375E+02  5.421326621E+02  1.250000000E+02  0.00000E+00  9.000E+00
      21     1     1     2   511   502  4.477938707E+01 -3.430909941E+01  7.010694319E+01  8.998495036E+01  0.000000000E+00  0.00000E+00  9.000E+00
#rwgt            1           1   2.1196246105625562E-002           6      223295           0
</event>
<event>
      5   9999  3.19816E-02  4.74264E+02 -1.00000E+00  9.95084E-02
      21    -1     0     0   502   501  0.000000000E+00  0.000000000E+00  8.802500204E+02  8.802500204E+02  0.000000000E+00  0.00000E+00  9.000E+00
      21    -1     0     0   512   502  0.000000000E+00  0.000000000E+00 -8.479009254E+02  8.479009254E+02  0.000000000E+00  0.00000E+00  9.000E+00
      25     1     1     2     0     0  8.204071173E+02  7.084690258E+01  4.623999851E+00  8.329066593E+02  1.250000000E+02  0.00000E+00  9.000E+00
      25     1     1     2     0     0 -3.641799894E+02  5.870257303E+01  1.289929235E+02  4.102892042E+02  1.250000000E+02  0.00000E+00  9.000E+00
      21     1     1     2   512   501 -4.562271278E+02 -1.295494756E+02 -1.012678282E+02  4.849550823E+02  1.348699152E-06  0.00000E+00  9.000E+00
#rwgt            2          11   2.6375287896658350E-003           6      223470           0
</event>
<event>
      5   9999  3.19816E-02  2.44298E+01 -1.00000E+00  1.59505E-01
      21    -1     0     0   502   511  0.000000000E+00  0.000000000E+00  7.017478147E+01  7.017478147E+01  0.000000000E+00  0.00000E+00  9.000E+00
      21    -1     0     0   501   502  0.000000000E+00  0.000000000E+00 -6.419893727E+02  6.419893727E+02  0.000000000E+00  0.00000E+00  9.000E+00
      25     1     1     2     0     0  1.086390650E+02  3.558877212E+01 -9.002749988E+01  1.918305447E+02  1.250000000E+02  0.00000E+00  9.000E+00
      25     1     1     2     0     0 -8.648842370E+01 -2.528519000E+01 -4.670262389E+02  4.917907035E+02  1.250000000E+02  0.00000E+00  9.000E+00
      21     1     1     2   501   511 -2.215064130E+01 -1.030358213E+01 -1.476085249E+01  2.854290596E+01  2.384185791E-07  0.00000E+00  9.000E+00
#rwgt            1           1   2.8214843329571068E-002           6      223490           0
</event>
<event>
      5   9999  3.19816E-02  8.13343E+01 -1.00000E+00  1.28003E-01
      21    -1     0     0   502   501  0.000000000E+00  0.000000000E+00  2.529389089E+02  2.529389089E+02  0.000000000E+00  0.00000E+00  9.000E+00
      21    -1     0     0   512   502  0.000000000E+00  0.000000000E+00 -2.375263248E+02  2.375263248E+02  0.000000000E+00  0.00000E+00  9.000E+00
      25     1     1     2     0     0 -5.387731802E+01 -1.049350839E+02 -1.530373776E+01  1.725495338E+02  1.250000000E+02  0.00000E+00  9.000E+00
      25     1     1     2     0     0  1.182343412E+02  1.546688115E+02  4.399527158E+01  2.355045320E+02  1.250000000E+02  0.00000E+00  9.000E+00
      21     1     1     2   512   501 -6.435702317E+01 -4.973372753E+01 -1.327894974E+01  8.241116789E+01  9.233911863E-07  0.00000E+00  9.000E+00
#rwgt            1           1   2.6728538388422162E-002           6      223614           0
</event>
<event>
      5   9999  3.19816E-02  1.81365E+02 -1.00000E+00  1.13216E-01
      21    -1     0     0   502   501  0.000000000E+00  0.000000000E+00  1.208368563E+03  1.208368563E+03  0.000000000E+00  0.00000E+00  9.000E+00
       2    -1     0     0   501     0  0.000000000E+00  0.000000000E+00 -1.167429480E+03  1.167429480E+03  0.000000000E+00  0.00000E+00  9.000E+00
      25     1     1     2     0     0 -8.425823933E+02  4.977930159E+02  1.208378279E+02  9.939666779E+02  1.250000000E+02  0.00000E+00  9.000E+00
      25     1     1     2     0     0  9.248752071E+02 -3.361721571E+02  2.340870948E+02  1.019228942E+03  1.250000000E+02  0.00000E+00  9.000E+00
       2     1     1     2   502     0 -8.229281385E+01 -1.616208588E+02 -3.139858404E+02  3.626024230E+02  3.814697266E-06  0.00000E+00  9.000E+00
#rwgt            1           1   2.7018322456538957E-002           6      223663           0
</event>
<event>
      5   9999  3.19816E-02  4.05864E+01 -1.00000E+00  1.44449E-01
      -3    -1     0     0     0   501  0.000000000E+00  0.000000000E+00  5.507086871E+02  5.507086871E+02  0.000000000E+00  0.00000E+00  9.000E+00
      21    -1     0     0   501   502  0.000000000E+00  0.000000000E+00 -1.765877600E+02  1.765877600E+02  0.000000000E+00  0.00000E+00  9.000E+00
      25     1     1     2     0     0 -3.549213073E+01  1.898786630E+02  3.640862928E+02  4.306941218E+02  1.250000000E+02  0.00000E+00  9.000E+00
      25     1     1     2     0     0  7.454685648E+01 -1.788338390E+02 -3.803643278E+01  2.336889942E+02  1.250000000E+02  0.00000E+00  9.000E+00
      -3     1     1     2     0   502 -3.905472575E+01 -1.104482402E+01  4.807106714E+01  6.291333116E+01  6.743495762E-07  0.00000E+00  9.000E+00
#rwgt            1           1   2.8125756142031683E-002           6      223737           0
</event>
<event>
      5   9999  3.19816E-02  3.64589E+01 -1.00000E+00  1.47382E-01
      21    -1     0     0   511   501  0.000000000E+00  0.000000000E+00  1.955107256E+02  1.955107256E+02  0.000000000E+00  0.00000E+00  9.000E+00
      21    -1     0     0   501   502  0.000000000E+00  0.000000000E+00 -7.213014877E+02  7.213014877E+02  0.000000000E+00  0.00000E+00  9.000E+00
      25     1     1     2     0     0 -2.642535625E+02  1.459397018E+02 -4.733178979E+02  5.751375265E+02  1.250000000E+02  0.00000E+00  9.000E+00
      25     1     1     2     0     0  2.288901341E+02 -1.370697039E+02 -6.747043876E+01  3.022516457E+02  1.250000000E+02  0.00000E+00  9.000E+00
      21     1     1     2   511   502  3.536342838E+01 -8.869997954E+00  1.499757461E+01  3.942304117E+01  2.920019320E-07  0.00000E+00  9.000E+00
#rwgt            1           1   2.5591138201731197E-002           6      223874           0
</event>
<event>
      5   9999  3.46542E-02  9.25966E+01 -1.00000E+00  1.25349E-01
      21    -1     0     0   502   501  0.000000000E+00  0.000000000E+00  3.537217025E+02  3.537217025E+02  0.000000000E+00  0.00000E+00  9.000E+00
      21    -1     0     0   501   512  0.000000000E+00  0.000000000E+00 -2.637006716E+02  2.637006716E+02  0.000000000E+00  0.00000E+00  9.000E+00
      25     1     1     2     0     0 -1.314383593E+02  1.554802350E+02  2.230131600E+01  2.399426900E+02  1.250000000E+02  0.00000E+00  9.000E+00
      25     1     1     2     0     0  5.177632530E+01 -1.082775583E+02  1.677403344E+02  2.411776053E+02  1.250000000E+02  0.00000E+00  9.000E+00
      21     1     1     2   502   512  7.966203401E+01 -4.720267677E+01 -1.000206196E+02  1.363020788E+02  1.348699152E-06  0.00000E+00  9.000E+00
#rwgt            1           1   2.9442139304585072E-002           6      223986           0
</event>
<event>
      5   9999  3.19816E-02  8.62595E+01 -1.00000E+00  1.26786E-01
      21    -1     0     0   511   501  0.000000000E+00  0.000000000E+00  4.297009949E+02  4.297009949E+02  0.000000000E+00  0.00000E+00  9.000E+00
      21    -1     0     0   501   502  0.000000000E+00  0.000000000E+00 -6.378302563E+02  6.378302563E+02  0.000000000E+00  0.00000E+00  9.000E+00
      25     1     1     2     0     0 -2.779464794E+02  1.746701159E+02  2.438144758E+02  4.275913860E+02  1.250000000E+02  0.00000E+00  9.000E+00
      25     1     1     2     0     0  1.917559453E+02 -1.781189691E+02 -4.695472371E+02  5.519024529E+02  1.250000000E+02  0.00000E+00  9.000E+00
      21     1     1     2   511   502  8.619053404E+01  3.448853134E+00  1.760349989E+01  8.803741225E+01  2.050954167E-06  0.00000E+00  9.000E+00
#rwgt            1           1   2.6836165945470055E-002           6      224068           0
</event>
<event>
      5   9999  3.19816E-02  6.28157E+01 -1.00000E+00  1.33648E-01
      21    -1     0     0   502   501  0.000000000E+00  0.000000000E+00  1.303767838E+02  1.303767838E+02  0.000000000E+00  0.00000E+00  9.000E+00
      21    -1     0     0   501   512  0.000000000E+00  0.000000000E+00 -6.700704707E+02  6.700704707E+02  0.000000000E+00  0.00000E+00  9.000E+00
      25     1     1     2     0     0  2.457354912E+02 -4.854396535E+01 -2.968055319E+02  4.079962891E+02  1.250000000E+02  0.00000E+00  9.000E+00
      25     1     1     2     0     0 -1.913274057E+02  1.715016109E+01 -1.305906291E+02  2.637787266E+02  1.250000000E+02  0.00000E+00  9.000E+00
      21     1     1     2   502   512 -5.440808546E+01  3.139380426E+01 -1.122975259E+02  1.286722387E+02  0.000000000E+00  0.00000E+00  9.000E+00
#rwgt            1           1   2.7843671745739297E-002           6      224155           0
</event>
<event>
      5   9999  3.19816E-02  2.34110E+02 -1.00000E+00  1.09214E-01
      21    -1     0     0   502   501  0.000000000E+00  0.000000000E+00  9.509678038E+02  9.509678038E+02  0.000000000E+00  0.00000E+00  9.000E+00
      21    -1     0     0   501   511  0.000000000E+00  0.000000000E+00 -5.071506521E+02  5.071506521E+02  0.000000000E+00  0.00000E+00  9.000E+00
      25     1     1     2     0     0 -3.672899591E+02 -7.012796590E+01  4.708408383E+02  6.141139476E+02  1.250000000E+02  0.00000E+00  9.000E+00
      25     1     1     2     0     0  4.823721791E+02  2.739994642E+02  1.003998569E+02  5.774632082E+02  1.250000000E+02  0.00000E+00  9.000E+00
      21     1     1     2   502   511 -1.150822201E+02 -2.038714983E+02 -1.274235435E+02  2.665413000E+02  3.568322551E-06  0.00000E+00  9.000E+00
#rwgt            1           1   2.6314182042923521E-002           6      224238           0
</event>
<event>
      5   9999  3.19816E-02  3.26774E+01 -1.00000E+00  1.50505E-01
       2    -1     0     0   502     0  0.000000000E+00  0.000000000E+00  2.136095448E+03  2.136095448E+03  0.000000000E+00  0.00000E+00  9.000E+00
      21    -1     0     0   501   502  0.000000000E+00  0.000000000E+00 -3.479595273E+02  3.479595273E+02  0.000000000E+00  0.00000E+00  9.000E+00
      25     1     1     2     0     0  9.938078228E+01  2.359519399E+02  4.630650988E+01  2.886505685E+02  1.250000000E+02  0.00000E+00  9.000E+00
      25     1     1     2     0     0 -9.679221264E+01 -2.033772614E+02 -1.534533842E+02  2.998399307E+02  1.250000000E+02  0.00000E+00  9.000E+00
       2     1     1     2   501     0 -2.588569637E+00 -3.257467847E+01  1.895282795E+03  1.895564476E+03  2.157918644E-05  0.00000E+00  9.000E+00
#rwgt            1           1   2.7898393294864925E-002           6      224349           0
</event>
<event>
      5   9999  3.19816E-02  9.33285E+01 -1.00000E+00  1.25192E-01
      21    -1     0     0   511   501  0.000000000E+00  0.000000000E+00  1.626078126E+03  1.626078126E+03  0.000000000E+00  0.00000E+00  9.000E+00
      21    -1     0     0   501   502  0.000000000E+00  0.000000000E+00 -6.529518847E+02  6.529518847E+02  0.000000000E+00  0.00000E+00  9.000E+00
      25     1     1     2     0     0 -6.740509536E+00 -7.871301425E+02  1.125717827E+02  8.049327313E+02  1.250000000E+02  0.00000E+00  9.000E+00
      25     1     1     2     0     0  2.963666024E+01  8.776065037E+02  3.474674046E+02  9.525912577E+02  1.250000000E+02  0.00000E+00  9.000E+00
      21     1     1     2   511   502 -2.289615070E+01 -9.047636126E+01  5.130870545E+02  5.215060221E+02  0.000000000E+00  0.00000E+00  9.000E+00
#rwgt            1           1   3.4748886535364176E-002           6      224492           0
</event>
<event>
      5   9999  3.19816E-02  2.04830E+02 -1.00000E+00  1.11272E-01
      21    -1     0     0   502   501  0.000000000E+00  0.000000000E+00  3.919041748E+02  3.919041748E+02  0.000000000E+00  0.00000E+00  9.000E+00
      21    -1     0     0   501   512  0.000000000E+00  0.000000000E+00 -1.233837335E+03  1.233837335E+03  0.000000000E+00  0.00000E+00  9.000E+00
      25     1     1     2     0     0  8.930722373E+01 -4.188527704E+02 -7.693699826E+02  8.893641512E+02  1.250000000E+02  0.00000E+00  9.000E+00
      25     1     1     2     0     0 -3.654419736E+01  2.209356281E+02  2.474814637E+02  3.563988005E+02  1.250000000E+02  0.00000E+00  9.000E+00
      21     1     1     2   502   512 -5.276302638E+01  1.979171423E+02 -3.200446416E+02  3.799785584E+02  0.000000000E+00  0.00000E+00  9.000E+00
#rwgt            1           1   2.9346940820222347E-002           6      224618           0
</event>
<event>
      5   9999  3.19816E-02  1.09746E+02 -1.00000E+00  1.22038E-01
      21    -1     0     0   502   511  0.000000000E+00  0.000000000E+00  2.651463828E+02  2.651463828E+02  0.000000000E+00  0.00000E+00  9.000E+00
      21    -1     0     0   501   502  0.000000000E+00  0.000000000E+00 -6.476543871E+02  6.476543871E+02  0.000000000E+00  0.00000E+00  9.000E+00
      25     1     1     2     0     0  8.688253350E+01  2.099731798E+02 -3.488082621E+02  4.346602289E+02  1.250000000E+02  0.00000E+00  9.000E+00
      25     1     1     2     0     0  1.860183952E+01 -2.402574493E+02 -1.565794878E+02  3.133876296E+02  1.250000000E+02  0.00000E+00  9.000E+00
      21     1     1     2   501   511 -1.054843730E+02  3.028426946E+01  1.228797456E+02  1.647529114E+02  1.348699152E-06  0.00000E+00  9.000E+00
#rwgt            1           1   2.7226500715945366E-002           6      224664           0
</event>
<event>
      5   9999  3.19816E-02  1.99228E+01 -1.00000E+00  1.66508E-01
      21    -1     0     0   502   501  0.000000000E+00  0.000000000E+00  3.064831957E+02  3.064831957E+02  0.000000000E+00  0.00000E+00  9.000E+00
      21    -1     0     0   512   502  0.000000000E+00  0.000000000E+00 -2.909530093E+02  2.909530093E+02  0.000000000E+00  0.00000E+00  9.000E+00
      25     1     1     2     0     0  1.550011083E+02 -1.733492475E+02  4.066812307E+01  2.671220721E+02  1.250000000E+02  0.00000E+00  9.000E+00
      25     1     1     2     0     0 -1.747612818E+02  1.708085649E+02  2.572555170E+01  2.756880039E+02  1.250000000E+02  0.00000E+00  9.000E+00
      21     1     1     2   512   501  1.976017345E+01  2.540682523E+00 -5.086348842E+01  5.462612906E+01  6.743495762E-07  0.00000E+00  9.000E+00
#rwgt            1           1   2.5573392196074018E-002           6      224710           0
</event>
<event>
      5   9999  3.19816E-02  5.27206E+01 -1.00000E+00  1.37775E-01
       2    -1     0     0   502     0  0.000000000E+00  0.000000000E+00  2.324559230E+03  2.324559230E+03  0.000000000E+00  0.00000E+00  9.000E+00
      21    -1     0     0   501   502  0.000000000E+00  0.000000000E+00 -8.690306700E+01  8.690306700E+01  0.000000000E+00  0.00000E+00  9.000E+00
      25     1     1     2     0     0 -2.767736923E+02  1.627767888E+02  3.612820532E+02  4.992491179E+02  1.250000000E+02  0.00000E+00  9.000E+00
      25     1     1     2     0     0  2.603969699E+02 -1.126643042E+02  1.463032999E+03  1.495523448E+03  1.250000000E+02  0.00000E+00  9.000E+00
       2     1     1     2   501     0  1.637672246E+01 -5.011248460E+01  4.133411100E+02  4.166897303E+02  5.394796609E-06  0.00000E+00  9.000E+00
#rwgt            1           1   3.2385243809545244E-002           6      224842           0
</event>
<event>
      5   9999  3.19816E-02  2.87371E+02 -1.00000E+00  1.06202E-01
      21    -1     0     0   502   501  0.000000000E+00  0.000000000E+00  5.773154267E+02  5.773154267E+02  0.000000000E+00  0.00000E+00  9.000E+00
      21    -1     0     0   511   502  0.000000000E+00  0.000000000E+00 -2.612538289E+02  2.612538289E+02  0.000000000E+00  0.00000E+00  9.000E+00
      25     1     1     2     0     0 -2.882521786E+01 -1.334767576E+02  1.477111118E+02  2.368343526E+02  1.250000000E+02  0.00000E+00  9.000E+00
      25     1     1     2     0     0 -2.125338431E+02 -2.249731343E+01  1.921125341E+02  3.133831351E+02  1.250000000E+02  0.00000E+00  9.000E+00
      21     1     1     2   511   501  2.413590610E+02  1.559740711E+02 -2.376204815E+01  2.883517680E+02  6.450533513E-06  0.00000E+00  9.000E+00
#rwgt            1           1   2.6019499718362194E-002           6      224907           0
</event>
<event>
      5   9999  3.19816E-02  1.84586E+02 -1.00000E+00  1.12931E-01
      21    -1     0     0   502   501  0.000000000E+00  0.000000000E+00  2.504972339E+02  2.504972339E+02  0.000000000E+00  0.00000E+00  9.000E+00
       2    -1     0     0   501     0  0.000000000E+00  0.000000000E+00 -3.105887907E+03  3.105887907E+03  0.000000000E+00  0.00000E+00  9.000E+00
      25     1     1     2     0     0 -3.548844143E+02 -1.362251261E+02 -5.557721948E+02  6.848415620E+02  1.250000000E+02  0.00000E+00  9.000E+00
      25     1     1     2     0     0  1.904305944E+02  2.200518537E+02  4.479719875E+01  3.198725037E+02  1.250000000E+02  0.00000E+00  9.000E+00
       2     1     1     2   502     0  1.644538199E+02 -8.382672762E+01 -2.344415677E+03  2.351671075E+03  3.051757812E-05  0.00000E+00  9.000E+00
#rwgt            1           1   2.8529194095806541E-002           6      224935           0
</event>
<event>
      5   9999  3.19816E-02  5.12184E+01 -1.00000E+00  1.38482E-01
      21    -1     0     0   502   501  0.000000000E+00  0.000000000E+00  1.004038826E+03  1.004038826E+03  0.000000000E+00  0.00000E+00  9.000E+00
      21    -1     0     0   501   511  0.000000000E+00  0.000000000E+00 -4.717301466E+02  4.717301466E+02  0.000000000E+00  0.00000E+00  9.000E+00
      25     1     1     2     0     0  2.033169914E+02  2.026656842E+02  7.906675807E+02  8.504066097E+02  1.250000000E+02  0.00000E+00  9.000E+00
      25     1     1     2     0     0 -2.096612868E+02 -1.518417546E+02  6.767648987E+01  2.953284289E+02  1.250000000E+02  0.00000E+00  9.000E+00
      21     1     1     2   502   511  6.344295377E+00 -5.082392959E+01 -3.260353908E+02  3.300339345E+02  5.394796609E-06  0.00000E+00  9.000E+00
#rwgt            1           1   2.7735265159787848E-002           6      225005           0
</event>
<event>
      5   9999  3.19816E-02  3.59041E+01 -1.00000E+00  1.47811E-01
      21    -1     0     0   512   501  0.000000000E+00  0.000000000E+00  2.896128669E+03  2.896128669E+03  0.000000000E+00  0.00000E+00  9.000E+00
      21    -1     0     0   501   502  0.000000000E+00  0.000000000E+00 -3.448415879E+02  3.448415879E+02  0.000000000E+00  0.00000E+00  9.000E+00
      25     1     1     2     0     0  1.006853055E+02 -5.725142565E+02  2.511085922E+03  2.580520803E+03  1.250000000E+02  0.00000E+00  9.000E+00
      25     1     1     2     0     0 -1.052449115E+02  5.369008754E+02 -4.992702146E+01  5.634330030E+02  1.250000000E+02  0.00000E+00  9.000E+00
      21     1     1     2   512   502  4.559606007E+00  3.561338111E+01  9.012818030E+01  9.701645121E+01  9.536743164E-07  0.00000E+00  9.000E+00
#rwgt            1           1   3.1126197148659645E-002           6      225151           0
</event>
<event>
      5   9999  3.19816E-02  5.64178E+02 -1.00000E+00  9.73846E-02
      21    -1     0     0   502   501  0.000000000E+00  0.000000000E+00  5.395590462E+02  5.395590462E+02  0.000000000E+00  0.00000E+00  9.000E+00
       2    -1     0     0   501     0  0.000000000E+00  0.000000000E+00 -3.164727142E+03  3.164727142E+03  0.000000000E+00  0.00000E+00  9.000E+00
      25     1     1     2     0     0 -6.912052330E+02  5.770020671E+02 -1.279096196E+03  1.569206213E+03  1.250000000E+02  0.00000E+00  9.000E+00
      25     1     1     2     0     0  2.222816295E+02 -8.907010452E+02 -3.501286588E+02  9.904405850E+02  1.250000000E+02  0.00000E+00  9.000E+00
       2     1     1     2   502     0  4.689236034E+02  3.136989781E+02 -9.959432409E+02  1.144639390E+03  1.078959322E-05  0.00000E+00  9.000E+00
#rwgt            2          13   1.4418650235273609E-003           6      225323           0
</event>
<event>
      5   9999  3.19816E-02  6.26031E+00 -1.00000E+00  2.22645E-01
      -3    -1     0     0     0   501  0.000000000E+00  0.000000000E+00  8.788790430E+02  8.788790430E+02  0.000000000E+00  0.00000E+00  9.000E+00
      21    -1     0     0   501   502  0.000000000E+00  0.000000000E+00 -9.764293467E+01  9.764293467E+01  0.000000000E+00  0.00000E+00  9.000E+00
      25     1     1     2     0     0  2.209310862E+01  1.134655308E+02  8.894110115E+01  1.920886556E+02  1.250000000E+02  0.00000E+00  9.000E+00
      25     1     1     2     0     0 -2.820160439E+01 -1.148358439E+02  1.146763066E+02  2.067806974E+02  1.250000000E+02  0.00000E+00  9.000E+00
      -3     1     1     2     0   502  6.108495775E+00  1.370313058E+00  5.776187006E+02  5.776526246E+02  1.078959322E-05  0.00000E+00  9.000E+00
#rwgt            1           1   2.3940241097605872E-002           6      225357           0
</event>
<event>
      5   9999  3.19816E-02  3.51671E+01 -1.00000E+00  1.48396E-01
      21    -1     0     0   502   501  0.000000000E+00  0.000000000E+00  7.306987934E+02  7.306987934E+02  0.000000000E+00  0.00000E+00  9.000E+00
      21    -1     0     0   501   511  0.000000000E+00  0.000000000E+00 -1.356199742E+02  1.356199742E+02  0.000000000E+00  0.00000E+00  9.000E+00
      25     1     1     2     0     0 -1.122347564E+02  1.185352149E+02 -3.027765197E+00  2.056244272E+02  1.250000000E+02  0.00000E+00  9.000E+00
      25     1     1     2     0     0  1.452898608E+02 -1.305388744E+02  5.710033451E+02  6.162948657E+02  1.250000000E+02  0.00000E+00  9.000E+00
      21     1     1     2   502   511 -3.305510436E+01  1.200365946E+01  2.710323932E+01  4.439947462E+01  8.259061849E-07  0.00000E+00  9.000E+00
#rwgt            1           1   2.6537658122936691E-002           6      225597           0
</event>
<event>
      5   9999  3.19816E-02  4.91119E+01 -1.00000E+00  1.39521E-01
      21    -1     0     0   502   501  0.000000000E+00  0.000000000E+00  1.323447645E+03  1.323447645E+03  0.000000000E+00  0.00000E+00  9.000E+00
      21    -1     0     0   501   512  0.000000000E+00  0.000000000E+00 -7.214958464E+02  7.214958464E+02  0.000000000E+00  0.00000E+00  9.000E+00
      25     1     1     2     0     0 -4.947249365E+02 -5.231720252E+01  7.866843997E+02  9.391417343E+02  1.250000000E+02  0.00000E+00  9.000E+00
      25     1     1     2     0     0  4.456325704E+02  5.093108233E+01  3.414046873E+02  5.773772800E+02  1.250000000E+02  0.00000E+00  9.000E+00
      21     1     1     2   502   512  4.909236617E+01  1.386120187E+00 -5.261372883E+02  5.284244770E+02  7.629394531E-06  0.00000E+00  9.000E+00
#rwgt            1           1   2.9623263834436097E-002           6      225706           0
</event>
<event>
      5   9999  3.19816E-02  4.60522E+02 -1.00000E+00  9.98775E-02
      21    -1     0     0   502   501  0.000000000E+00  0.000000000E+00  3.101049970E+02  3.101049970E+02  0.000000000E+00  0.00000E+00  9.000E+00
      21    -1     0     0   501   511  0.000000000E+00  0.000000000E+00 -2.372546207E+03  2.372546207E+03  0.000000000E+00  0.00000E+00  9.000E+00
      25     1     1     2     0     0  3.336648625E+01 -3.595707825E+01  1.292987166E+02  1.864118880E+02  1.250000000E+02  0.00000E+00  9.000E+00
      25     1     1     2     0     0 -4.820397963E+02 -6.783380643E+01 -3.888085896E+02  6.354218362E+02  1.250000000E+02  0.00000E+00  9.000E+00
      21     1     1     2   502   511  4.486733101E+02  1.037908847E+02 -1.802931337E+03  1.860817480E+03  0.000000000E+00  0.00000E+00  9.000E+00
#rwgt            2          11   1.1250614027062567E-003           6      225843           0
</event>
<event>
      5   9999  3.19816E-02  1.31294E+02 -1.00000E+00  1.18733E-01
       2    -1     0     0   502     0  0.000000000E+00  0.000000000E+00  2.484911985E+03  2.484911985E+03  0.000000000E+00  0.00000E+00  9.000E+00
      21    -1     0     0   501   502  0.000000000E+00  0.000000000E+00 -2.749636554E+02  2.749636554E+02  0.000000000E+00  0.00000E+00  9.000E+00
      25     1     1     2     0     0 -3.099287853E+02 -1.766592601E+02  4.619800468E+02  5.969211922E+02  1.250000000E+02  0.00000E+00  9.000E+00
      25     1     1     2     0     0  3.002788443E+02  4.572049673E+01 -7.364967803E+01  3.366110860E+02  1.250000000E+02  0.00000E+00  9.000E+00
       2     1     1     2   501     0  9.649940968E+00  1.309387634E+02  1.821617961E+03  1.826343362E+03  4.315837288E-05  0.00000E+00  9.000E+00
#rwgt            2          18   2.2865034905326410E-003           6      225923           0
</event>
<event>
      5   9999  3.19816E-02  2.97643E+01 -1.00000E+00  1.53278E-01
      21    -1     0     0   511   501  0.000000000E+00  0.000000000E+00  6.853766663E+02  6.853766663E+02  0.000000000E+00  0.00000E+00  9.000E+00
      21    -1     0     0   501   502  0.000000000E+00  0.000000000E+00 -1.198688754E+02  1.198688754E+02  0.000000000E+00  0.00000E+00  9.000E+00
      25     1     1     2     0     0 -9.124438358E+01 -6.737883209E+01  3.848207476E+02  4.202111997E+02  1.250000000E+02  0.00000E+00  9.000E+00
      25     1     1     2     0     0  1.048485542E+02  9.385216929E+01 -1.338373056E+01  1.886943911E+02  1.250000000E+02  0.00000E+00  9.000E+00
      21     1     1     2   511   502 -1.360417064E+01 -2.647333719E+01  1.940707739E+02  1.963399509E+02  2.697398305E-06  0.00000E+00  9.000E+00
#rwgt            1           1   2.9917955696575588E-002           6      225957           0
</event>
<event>
      5   9999  3.19816E-02  2.81961E+01 -1.00000E+00  1.54934E-01
      21    -1     0     0   502   501  0.000000000E+00  0.000000000E+00  4.599090474E+02  4.599090474E+02  0.000000000E+00  0.00000E+00  9.000E+00
      21    -1     0     0   501   512  0.000000000E+00  0.000000000E+00 -7.252979088E+02  7.252979088E+02  0.000000000E+00  0.00000E+00  9.000E+00
      25     1     1     2     0     0  3.281842287E+02  1.456969090E+02  2.914014013E+02  4.790326230E+02  1.250000000E+02  0.00000E+00  9.000E+00
      25     1     1     2     0     0 -3.561839561E+02 -1.490190778E+02 -5.270585551E+02  6.651987798E+02  1.250000000E+02  0.00000E+00  9.000E+00
      21     1     1     2   502   512  2.799972740E+01  3.322168803E+00 -2.973170762E+01  4.097555342E+01  6.743495762E-07  0.00000E+00  9.000E+00
#rwgt            1           1   3.0910495895878815E-002           6      226096           0
</event>
<event>
      5   9999  3.19816E-02  3.35039E+01 -1.00000E+00  1.49781E-01
      21    -1     0     0   511   501  0.000000000E+00  0.000000000E+00  2.463571859E+02  2.463571859E+02  0.000000000E+00  0.00000E+00  9.000E+00
      21    -1     0     0   501   502  0.000000000E+00  0.000000000E+00 -1.811557713E+03  1.811557713E+03  0.000000000E+00  0.00000E+00  9.000E+00
      25     1     1     2     0     0  2.395576500E+02  4.368267596E+02 -1.369623714E+03  1.462771206E+03  1.250000000E+02  0.00000E+00  9.000E+00
      25     1     1     2     0     0 -2.171650856E+02 -4.617482779E+02 -1.982900746E+02  5.615301419E+02  1.250000000E+02  0.00000E+00  9.000E+00
      21     1     1     2   511   502 -2.239256438E+01  2.492151833E+01  2.713260893E+00  3.361355084E+01  4.568609511E-07  0.00000E+00  9.000E+00
#rwgt            1           1   3.1338441455178466E-002           6      226344           0
</event>
<event>
      5   9999  3.19816E-02  1.71278E+01 -1.00000E+00  1.72123E-01
      21    -1     0     0   502   501  0.000000000E+00  0.000000000E+00  2.871662307E+02  2.871662307E+02  0.000000000E+00  0.00000E+00  9.000E+00
      21    -1     0     0   512   502  0.000000000E+00  0.000000000E+00 -9.446486112E+02  9.446486112E+02  0.000000000E+00  0.00000E+00  9.000E+00
      25     1     1     2     0     0 -3.368356248E+01  2.566041548E+02 -8.054807393E+02  8.552218987E+02  1.250000000E+02  0.00000E+00  9.000E+00
      25     1     1     2     0     0  1.841897730E+01 -2.643728799E+02  1.774249074E+02  3.425447067E+02  1.250000000E+02  0.00000E+00  9.000E+00
      21     1     1     2   512   501  1.526458518E+01  7.768725073E+00 -2.942654851E+01  3.404823647E+01  4.768371582E-07  0.00000E+00  9.000E+00
#rwgt            1           1   2.5181260259947165E-002           6      226499           0
</event>
<event>
      5   9999  3.19816E-02  3.88173E+01 -1.00000E+00  1.45653E-01
      21    -1     0     0   502   511  0.000000000E+00  0.000000000E+00  2.375065928E+02  2.375065928E+02  0.000000000E+00  0.00000E+00  9.000E+00
      21    -1     0     0   501   502  0.000000000E+00  0.000000000E+00 -5.388175521E+02  5.388175521E+02  0.000000000E+00  0.00000E+00  9.000E+00
      25     1     1     2     0     0  1.591565465E+02  2.535939450E+02 -2.825737174E+02  4.302483016E+02  1.250000000E+02  0.00000E+00  9.000E+00
      25     1     1     2     0     0 -1.698377104E+02 -2.162751567E+02 -3.480184744E+01  3.040657163E+02  1.250000000E+02  0.00000E+00  9.000E+00
      21     1     1     2   501   511  1.068116385E+01 -3.731878833E+01  1.606460555E+01  4.201012706E+01  7.539457465E-07  0.00000E+00  9.000E+00
#rwgt            1           1   2.9912327196710085E-002           6      226731           0
</event>
<event>
      5   9999  3.19816E-02  1.12359E+02 -1.00000E+00  1.21594E-01
      21    -1     0     0   502   501  0.000000000E+00  0.000000000E+00  1.485488920E+02  1.485488920E+02  0.000000000E+00  0.00000E+00  9.000E+00
       4    -1     0     0   501     0  0.000000000E+00  0.000000000E+00 -4.353934513E+02  4.353934513E+02  0.000000000E+00  0.00000E+00  9.000E+00
      25     1     1     2     0     0 -1.801750372E+02  3.067712990E+01 -1.474164547E+02  2.660089124E+02  1.250000000E+02  0.00000E+00  9.000E+00
      25     1     1     2     0     0  7.434246240E+01 -6.841450208E+01 -1.270862959E+02  2.048982001E+02  1.250000000E+02  0.00000E+00  9.000E+00
       4     1     1     2   502     0  1.058325748E+02  3.773737217E+01 -1.234180871E+01  1.130352308E+02  4.460403188E-07  0.00000E+00  9.000E+00
#rwgt            1           1   2.9459842693684419E-002           6      226901           0
</event>
<event>
      5   9999  3.19816E-02  5.00633E+01 -1.00000E+00  1.39044E-01
      21    -1     0     0   502   501  0.000000000E+00  0.000000000E+00  6.719930317E+02  6.719930317E+02  0.000000000E+00  0.00000E+00  9.000E+00
      21    -1     0     0   511   502  0.000000000E+00  0.000000000E+00 -6.110822123E+02  6.110822123E+02  0.000000000E+00  0.00000E+00  9.000E+00
      25     1     1     2     0     0 -4.501927367E+01 -1.799294333E+02  6.128946498E+02  6.524309831E+02  1.250000000E+02  0.00000E+00  9.000E+00
      25     1     1     2     0     0 -4.436320683E+00  1.877065127E+02 -3.090750050E+02  3.826300753E+02  1.250000000E+02  0.00000E+00  9.000E+00
      21     1     1     2   511   501  4.945559435E+01 -7.777079351E+00 -2.429088254E+02  2.480141855E+02  3.814697266E-06  0.00000E+00  9.000E+00
#rwgt            1           1   3.2073700910701261E-002           6      226972           0
</event>
<event>
      5   9999  3.19816E-02  1.29278E+02 -1.00000E+00  1.19011E-01
      21    -1     0     0   502   501  0.000000000E+00  0.000000000E+00  4.331794236E+02  4.331794236E+02  0.000000000E+00  0.00000E+00  9.000E+00
      -2    -1     0     0     0   502  0.000000000E+00  0.000000000E+00 -4.324194612E+02  4.324194612E+02  0.000000000E+00  0.00000E+00  9.000E+00
      25     1     1     2     0     0  1.890753258E+02 -1.855388139E+02 -5.371670721E+01  2.977996221E+02  1.250000000E+02  0.00000E+00  9.000E+00
      25     1     1     2     0     0 -2.605468023E+02  2.932637822E+02  1.114288871E+02  4.265321547E+02  1.250000000E+02  0.00000E+00  9.000E+00
      -2     1     1     2     0   501  7.147147645E+01 -1.077249683E+02 -5.695221747E+01  1.412671080E+02  1.348699152E-06  0.00000E+00  9.000E+00
#rwgt            1           1   3.3098738909945163E-002           6      227144           0
</event>
<event>
      5   9999  3.19816E-02  4.83227E+01 -1.00000E+00  1.39926E-01
      21    -1     0     0   502   501  0.000000000E+00  0.000000000E+00  5.934515590E+02  5.934515590E+02  0.000000000E+00  0.00000E+00  9.000E+00
      21    -1     0     0   501   511  0.000000000E+00  0.000000000E+00 -2.655602485E+02  2.655602485E+02  0.000000000E+00  0.00000E+00  9.000E+00
      25     1     1     2     0     0  4.848759929E+01 -2.184215900E+02  2.483411638E+02  3.568716463E+02  1.250000000E+02  0.00000E+00  9.000E+00
      25     1     1     2     0     0 -8.037510327E+01  2.547296395E+02  2.106509974E+02  3.624171480E+02  1.250000000E+02  0.00000E+00  9.000E+00
      21     1     1     2   502   511  3.188750398E+01 -3.630804947E+01 -1.311008508E+02  1.397230133E+02  1.907348633E-06  0.00000E+00  9.000E+00
#rwgt            1           1   3.0885656730685204E-002           6      227223           0
</event>
<event>
      5   9999  3.19816E-02  2.08851E+02 -1.00000E+00  1.10968E-01
      21    -1     0     0   502   501  0.000000000E+00  0.000000000E+00  4.856677450E+02  4.856677450E+02  0.000000000E+00  0.00000E+00  9.000E+00
      21    -1     0     0   512   502  0.000000000E+00  0.000000000E+00 -5.818712863E+02  5.818712863E+02  0.000000000E+00  0.00000E+00  9.000E+00
      25     1     1     2     0     0  4.407959371E+02 -3.375900824E+01  1.649872662E+02  4.881460097E+02  1.250000000E+02  0.00000E+00  9.000E+00
      25     1     1     2     0     0 -2.368150041E+02 -1.107858666E+01 -3.296416037E+01  2.700291042E+02  1.250000000E+02  0.00000E+00  9.000E+00
      21     1     1     2   512   501 -2.039809330E+02  4.483759490E+01 -2.282266471E+02  3.093639174E+02  3.814697266E-06  0.00000E+00  9.000E+00
#rwgt            2          11   3.3500558131858557E-003           6      227315           0
</event>
<event>
      5   9999  3.19816E-02  1.05537E+02 -1.00000E+00  1.22784E-01
      21    -1     0     0   511   501  0.000000000E+00  0.000000000E+00  2.353878598E+02  2.353878598E+02  0.000000000E+00  0.00000E+00  9.000E+00
      21    -1     0     0   501   502  0.000000000E+00  0.000000000E+00 -4.373055206E+02  4.373055206E+02  0.000000000E+00  0.00000E+00  9.000E+00
      25     1     1     2     0     0 -1.801198099E+02  1.551551196E+02 -9.539122894E+01  2.850276190E+02  1.250000000E+02  0.00000E+00  9.000E+00
      25     1     1     2     0     0  1.061751433E+02 -7.985359336E+01 -1.821852926E+02  2.578104697E+02  1.250000000E+02  0.00000E+00  9.000E+00
      21     1     1     2   511   502  7.394466661E+01 -7.530152627E+01  7.565886069E+01  1.298552917E+02  2.336015456E-06  0.00000E+00  9.000E+00
#rwgt            1           1   2.7988539121177606E-002           6      227380           0
</event>
<event>
      5   9999  3.19816E-02  2.48174E+02 -1.00000E+00  1.08339E-01
       2    -1     0     0   502     0  0.000000000E+00  0.000000000E+00  2.454994690E+03  2.454994690E+03  0.000000000E+00  0.00000E+00  9.000E+00
      21    -1     0     0   501   502  0.000000000E+00  0.000000000E+00 -3.592116756E+02  3.592116756E+02  0.000000000E+00  0.00000E+00  9.000E+00
      25     1     1     2     0     0 -1.485434445E+01 -6.283480788E+02  3.237312040E+02  7.179615952E+02  1.250000000E+02  0.00000E+00  9.000E+00
      25     1     1     2     0     0 -2.331334668E+02  6.379724018E+02  6.546145993E+02  9.515804077E+02  1.250000000E+02  0.00000E+00  9.000E+00
       2     1     1     2   501     0  2.479878112E+02 -9.624322973E+00  1.117437211E+03  1.144664362E+03  0.000000000E+00  0.00000E+00  9.000E+00
#rwgt            1           1   2.9355971362792260E-002           6      227440           0
</event>
<event>
      5   9999  3.19816E-02  5.35701E+01 -1.00000E+00  1.37388E-01
      21    -1     0     0   502   501  0.000000000E+00  0.000000000E+00  8.266825527E+01  8.266825527E+01  0.000000000E+00  0.00000E+00  9.000E+00
       2    -1     0     0   501     0  0.000000000E+00  0.000000000E+00 -6.463596069E+02  6.463596069E+02  0.000000000E+00  0.00000E+00  9.000E+00
      25     1     1     2     0     0 -2.151044691E+01 -1.025023009E+02 -3.264162839E+02  3.648862993E+02  1.250000000E+02  0.00000E+00  9.000E+00
      25     1     1     2     0     0 -1.706525366E+01  1.396731629E+02 -9.238610132E+01  2.096664185E+02  1.250000000E+02  0.00000E+00  9.000E+00
       2     1     1     2   502     0  3.857570058E+01 -3.717086194E+01 -1.448889665E+02  1.544751445E+02  0.000000000E+00  0.00000E+00  9.000E+00
#rwgt            1           1   2.3994571154266633E-002           6      227498           0
</event>
<event>
      5   9999  3.19816E-02  7.65889E+01 -1.00000E+00  1.29272E-01
      21    -1     0     0   511   501  0.000000000E+00  0.000000000E+00  1.544167411E+03  1.544167411E+03  0.000000000E+00  0.00000E+00  9.000E+00
      21    -1     0     0   501   502  0.000000000E+00  0.000000000E+00 -1.651709612E+02  1.651709612E+02  0.000000000E+00  0.00000E+00  9.000E+00
      25     1     1     2     0     0  6.261846490E+01 -2.091984207E+02  2.818456574E+02  3.778187740E+02  1.250000000E+02  0.00000E+00  9.000E+00
      25     1     1     2     0     0 -1.169975039E+02  2.631314860E+02  9.718952232E+01  3.286295758E+02  1.250000000E+02  0.00000E+00  9.000E+00
      21     1     1     2   511   502  5.437903902E+01 -5.393306533E+01  9.999612705E+02  1.002890023E+03  1.525878906E-05  0.00000E+00  9.000E+00
#rwgt            1           1   2.8371373315355799E-002           6      227580           0
</event>
<event>
      5   9999  3.19816E-02  3.42403E+01 -1.00000E+00  1.49156E-01
       2    -1     0     0   502     0  0.000000000E+00  0.000000000E+00  2.876822399E+03  2.876822399E+03  0.000000000E+00  0.00000E+00  9.000E+00
      21    -1     0     0   501   502  0.000000000E+00  0.000000000E+00 -5.233430029E+01  5.233430029E+01  0.000000000E+00  0.00000E+00  9.000E+00
      25     1     1     2     0     0  7.459727891E+01  1.664108641E+02  1.051744840E+03  1.074732310E+03  1.250000000E+02  0.00000E+00  9.000E+00
      25     1     1     2     0     0 -8.642449779E+01 -1.985436814E+02  3.439658046E+02  4.252367129E+02  1.250000000E+02  0.00000E+00  9.000E+00
       2     1     1     2   501     0  1.182721889E+01  3.213281733E+01  1.428777454E+03  1.429187676E+03  1.525878906E-05  0.00000E+00  9.000E+00
#rwgt            1           1   2.7538829425549579E-002           6      227656           0
</event>
<event>
      5   9999  3.19816E-02  1.44507E+02 -1.00000E+00  1.17039E-01
      21    -1     0     0   502   511  0.000000000E+00  0.000000000E+00  6.234217160E+02  6.234217160E+02  0.000000000E+00  0.00000E+00  9.000E+00
      21    -1     0     0   501   502  0.000000000E+00  0.000000000E+00 -2.275565985E+02  2.275565985E+02  0.000000000E+00  0.00000E+00  9.000E+00
      25     1     1     2     0     0 -6.243372396E+01 -1.304388081E+02 -1.411518678E+02  2.376154506E+02  1.250000000E+02  0.00000E+00  9.000E+00
      25     1     1     2     0     0 -3.787980221E+01  2.642151027E+01  1.521259684E+02  2.022381910E+02  1.250000000E+02  0.00000E+00  9.000E+00
      21     1     1     2   501   511  1.003135262E+02  1.040172979E+02  3.848910169E+02  4.111246729E+02  0.000000000E+00  0.00000E+00  9.000E+00
#rwgt            1           1   2.9842178196425959E-002           6      227755           0
</event>
<event>
      5   9999  3.19816E-02  1.38296E+02 -1.00000E+00  1.17809E-01
      21    -1     0     0   502   501  0.000000000E+00  0.000000000E+00  2.230599986E+03  2.230599986E+03  0.000000000E+00  0.00000E+00  9.000E+00
      -2    -1     0     0     0   502  0.000000000E+00  0.000000000E+00 -2.281835092E+02  2.281835092E+02  0.000000000E+00  0.00000E+00  9.000E+00
      25     1     1     2     0     0  2.579278942E+02 -4.239385831E+02  9.072367559E+02  1.041611373E+03  1.250000000E+02  0.00000E+00  9.000E+00
      25     1     1     2     0     0 -3.726987911E+02  3.467798667E+02  1.153545130E+03  1.267064336E+03  1.250000000E+02  0.00000E+00  9.000E+00
      -2     1     1     2     0   501  1.147708969E+02  7.715871641E+01 -5.836540964E+01  1.501077857E+02  3.090257978E-06  0.00000E+00  9.000E+00
#rwgt            1           1   3.2449088450419605E-002           6      227791           0
</event>
<event>
      5   9999  3.19816E-02  4.66039E+01 -1.00000E+00  1.40841E-01
      21    -1     0     0   502   511  0.000000000E+00  0.000000000E+00  3.052901872E+02  3.052901872E+02  0.000000000E+00  0.00000E+00  9.000E+00
      21    -1     0     0   501   502  0.000000000E+00  0.000000000E+00 -3.840572406E+02  3.840572406E+02  0.000000000E+00  0.00000E+00  9.000E+00
      25     1     1     2     0     0  6.140957055E+01  2.248817302E+02 -9.807336304E+01  2.821104614E+02  1.250000000E+02  0.00000E+00  9.000E+00
      25     1     1     2     0     0 -2.957460889E+01 -2.589179210E+02 -7.797977406E+01  2.993643139E+02  1.250000000E+02  0.00000E+00  9.000E+00
      21     1     1     2   501   511 -3.183496166E+01  3.403619081E+01  9.728608370E+01  1.078726525E+02  1.348699152E-06  0.00000E+00  9.000E+00
#rwgt            1           1   3.0048719054782583E-002           6      227848           0
</event>
<event>
      5   9999  3.19816E-02  1.38477E+02 -1.00000E+00  1.17786E-01
      -2    -1     0     0     0   501  0.000000000E+00  0.000000000E+00  9.918587043E+02  9.918587043E+02  0.000000000E+00  0.00000E+00  9.000E+00
      21    -1     0     0   501   502  0.000000000E+00  0.000000000E+00 -3.042748662E+02  3.042748662E+02  0.000000000E+00  0.00000E+00  9.000E+00
      25     1     1     2     0     0 -3.306401326E+02 -1.686560875E+02  4.926498772E+02  6.293621173E+02  1.250000000E+02  0.00000E+00  9.000E+00
      25     1     1     2     0     0  2.255794480E+02  7.844417962E+01 -1.404250408E+02  3.039469835E+02  1.250000000E+02  0.00000E+00  9.000E+00
      -2     1     1     2     0   502  1.050606846E+02  9.021190792E+01  3.353590017E+02  3.628244697E+02  6.607249480E-06  0.00000E+00  9.000E+00
#rwgt            1           1   2.9916648821184295E-002           6      228002           0
</event>
<event>
      5   9999  3.19816E-02  2.80923E+01 -1.00000E+00  1.55048E-01
      21    -1     0     0   502   511  0.000000000E+00  0.000000000E+00  1.107963380E+03  1.107963380E+03  0.000000000E+00  0.00000E+00  9.000E+00
      21    -1     0     0   501   502  0.000000000E+00  0.000000000E+00 -2.002006814E+02  2.002006814E+02  0.000000000E+00  0.00000E+00  9.000E+00
      25     1     1     2     0     0 -8.385274387E+01 -1.912376014E+02  1.481826852E+02  2.849319411E+02  1.250000000E+02  0.00000E+00  9.000E+00
      25     1     1     2     0     0  8.964129167E+01  1.637481097E+02 -3.567677219E+01  2.274793105E+02  1.250000000E+02  0.00000E+00  9.000E+00
      21     1     1     2   501   511 -5.788547806E+00  2.748949169E+01  7.952567852E+02  7.957528095E+02  1.525878906E-05  0.00000E+00  9.000E+00
#rwgt            1           1   2.7543569032366867E-002           6      228071           0
</event>
<event>
      5   9999  3.19816E-02  5.80057E+01 -1.00000E+00  1.35493E-01
      21    -1     0     0   502   512  0.000000000E+00  0.000000000E+00  8.996021754E+01  8.996021754E+01  0.000000000E+00  0.00000E+00  9.000E+00
      21    -1     0     0   501   502  0.000000000E+00  0.000000000E+00 -3.300197797E+03  3.300197797E+03  0.000000000E+00  0.00000E+00  9.000E+00
      25     1     1     2     0     0 -3.154522316E+02  3.774246969E+02 -1.032460189E+03  1.150460149E+03  1.250000000E+02  0.00000E+00  9.000E+00
      25     1     1     2     0     0  2.737634190E+02 -3.370923248E+02 -2.052311782E+03  2.101472411E+03  1.250000000E+02  0.00000E+00  9.000E+00
      21     1     1     2   501   512  4.168881262E+01 -4.033237205E+01 -1.254656086E+02  1.382254545E+02  1.348699152E-06  0.00000E+00  9.000E+00
#rwgt            1           1   4.1893138100850921E-002           6      228207           0
</event>
<event>
      5   9999  3.19816E-02  1.10449E+02 -1.00000E+00  1.21917E-01
      21    -1     0     0   511   501  0.000000000E+00  0.000000000E+00  2.045740084E+02  2.045740084E+02  0.000000000E+00  0.00000E+00  9.000E+00
      21    -1     0     0   501   502  0.000000000E+00  0.000000000E+00 -4.069410291E+02  4.069410291E+02  0.000000000E+00  0.00000E+00  9.000E+00
      25     1     1     2     0     0 -5.573220936E+01  1.450097127E+02 -9.726274798E+01  2.218534157E+02  1.250000000E+02  0.00000E+00  9.000E+00
      25     1     1     2     0     0  1.661716146E+02 -1.435520408E+02 -1.172349602E+02  2.785484335E+02  1.250000000E+02  0.00000E+00  9.000E+00
      21     1     1     2   511   502 -1.104394052E+02 -1.457671904E+00  1.213068751E+01  1.111131883E+02  2.198110689E-06  0.00000E+00  9.000E+00
#rwgt            1           1   2.7779042315638665E-002           6      228278           0
</event>
<event>
      5   9999  3.19816E-02  4.96722E+01 -1.00000E+00  1.39239E-01
      21    -1     0     0   502   501  0.000000000E+00  0.000000000E+00  1.242968947E+03  1.242968947E+03  0.000000000E+00  0.00000E+00  9.000E+00
      21    -1     0     0   512   502  0.000000000E+00  0.000000000E+00 -1.210978283E+03  1.210978283E+03  0.000000000E+00  0.00000E+00  9.000E+00
      25     1     1     2     0     0  1.090858361E+03  9.076092016E+01  5.172713827E+02  1.217129489E+03  1.250000000E+02  0.00000E+00  9.000E+00
      25     1     1     2     0     0 -1.070226077E+03 -1.359453703E+02 -4.781312253E+02  1.186633670E+03  1.250000000E+02  0.00000E+00  9.000E+00
      21     1     1     2   512   501 -2.063228460E+01  4.518445011E+01 -7.149493880E+00  5.018407080E+01  8.172577143E-07  0.00000E+00  9.000E+00
#rwgt            2          11   2.5916015560446551E-002           6      228347           0
</event>
<event>
      5   9999  3.19816E-02  5.12721E+01 -1.00000E+00  1.38456E-01
      21    -1     0     0   502   501  0.000000000E+00  0.000000000E+00  3.770648866E+02  3.770648866E+02  0.000000000E+00  0.00000E+00  9.000E+00
      21    -1     0     0   511   502  0.000000000E+00  0.000000000E+00 -4.102553724E+02  4.102553724E+02  0.000000000E+00  0.00000E+00  9.000E+00
      25     1     1     2     0     0  3.862398795E+01 -6.215654432E+00 -7.731348890E+01  1.520947809E+02  1.250000000E+02  0.00000E+00  9.000E+00
      25     1     1     2     0     0  1.125121444E+01  1.810248610E+01  3.254415262E+02  3.492727828E+02  1.250000000E+02  0.00000E+00  9.000E+00
      21     1     1     2   511   501 -4.987520239E+01 -1.188683166E+01 -2.813185230E+02  2.859526953E+02  3.814697266E-06  0.00000E+00  9.000E+00
#rwgt            1           1   2.4780694176904618E-002           6      228367           0
</event>
<event>
      5   9999  3.19816E-02  1.12721E+02 -1.00000E+00  1.21533E-01
      21    -1     0     0   502   501  0.000000000E+00  0.000000000E+00  1.398887562E+02  1.398887562E+02  0.000000000E+00  0.00000E+00  9.000E+00
       2    -1     0     0   501     0  0.000000000E+00  0.000000000E+00 -1.354283449E+03  1.354283449E+03  0.000000000E+00  0.00000E+00  9.000E+00
      25     1     1     2     0     0  9.706406127E+01  1.860922470E+02 -1.559226669E+02  2.898079268E+02  1.250000000E+02  0.00000E+00  9.000E+00
      25     1     1     2     0     0 -1.689942454E+02 -2.728793250E+02 -3.652997578E+02  5.020867396E+02  1.250000000E+02  0.00000E+00  9.000E+00
       2     1     1     2   502     0  7.193018418E+01  8.678707793E+01 -6.931722676E+02  7.022775383E+02  7.629394531E-06  0.00000E+00  9.000E+00
#rwgt            1           1   2.8525791922786838E-002           6      228464           0
</event>
<event>
      5   9999  3.19816E-02  7.73190E+01 -1.00000E+00  1.29070E-01
      21    -1     0     0   511   501  0.000000000E+00  0.000000000E+00  5.697387689E+02  5.697387689E+02  0.000000000E+00  0.00000E+00  9.000E+00
      21    -1     0     0   501   502  0.000000000E+00  0.000000000E+00 -1.115615989E+03  1.115615989E+03  0.000000000E+00  0.00000E+00  9.000E+00
      25     1     1     2     0     0  4.800970910E+02  2.127602887E+02  7.792797854E+01  5.453970362E+02  1.250000000E+02  0.00000E+00  9.000E+00
      25     1     1     2     0     0 -4.988892969E+02 -2.877607846E+02 -7.729309297E+02  9.719794349E+02  1.250000000E+02  0.00000E+00  9.000E+00
      21     1     1     2   511   502  1.879220583E+01  7.500049591E+01  1.491257307E+02  1.679782871E+02  3.303624740E-06  0.00000E+00  9.000E+00
#rwgt            2          11   3.8347706868138189E-003           6      228586           0
</event>
<event>
      5   9999  3.19816E-02  1.40905E+01 -1.00000E+00  1.79982E-01
      21    -1     0     0   502   501  0.000000000E+00  0.000000000E+00  3.494414835E+02  3.494414835E+02  0.000000000E+00  0.00000E+00  9.000E+00
      21    -1     0     0   512   502  0.000000000E+00  0.000000000E+00 -5.185231696E+02  5.185231696E+02  0.000000000E+00  0.00000E+00  9.000E+00
      25     1     1     2     0     0 -2.781254406E+02 -2.627299438E+02 -1.117015951E+02  4.177116594E+02  1.250000000E+02  0.00000E+00  9.000E+00
      25     1     1     2     0     0  2.690960678E+02  2.735471259E+02 -1.309320228E+01  4.037785974E+02  1.250000000E+02  0.00000E+00  9.000E+00
      21     1     1     2   512   501  9.029372736E+00 -1.081718212E+01 -4.428688873E+01  4.647439633E+01  4.768371582E-07  0.00000E+00  9.000E+00
#rwgt            1           1   2.9647100535589357E-002           6      228606           0
</event>
<event>
      5   9999  3.19816E-02  1.72813E+01 -1.00000E+00  1.71781E-01
      21    -1     0     0   502   511  0.000000000E+00  0.000000000E+00  1.862375399E+03  1.862375399E+03  0.000000000E+00  0.00000E+00  9.000E+00
      21    -1     0     0   501   502  0.000000000E+00  0.000000000E+00 -7.158933746E+02  7.158933746E+02  0.000000000E+00  0.00000E+00  9.000E+00
      25     1     1     2     0     0  2.142366925E+02 -2.312587044E+02 -3.761129158E+02  5.064226241E+02  1.250000000E+02  0.00000E+00  9.000E+00
      25     1     1     2     0     0 -2.097478498E+02  2.479468385E+02 -1.643255009E+02  3.848371934E+02  1.250000000E+02  0.00000E+00  9.000E+00
      21     1     1     2   501   511 -4.488842735E+00 -1.668813406E+01  1.686920441E+03  1.687008956E+03  2.157918644E-05  0.00000E+00  9.000E+00
#rwgt            1           1   2.4910773407278677E-002           6      228879           0
</event>
<event>
      5   9999  3.19816E-02  9.32870E+01 -1.00000E+00  1.25201E-01
      21    -1     0     0   502   501  0.000000000E+00  0.000000000E+00  1.173296293E+03  1.173296293E+03  0.000000000E+00  0.00000E+00  9.000E+00
      -2    -1     0     0     0   502  0.000000000E+00  0.000000000E+00 -2.328073548E+02  2.328073548E+02  0.000000000E+00  0.00000E+00  9.000E+00
      25     1     1     2     0     0 -2.593280449E+02  7.588331297E+00  6.763470516E+02  7.351047217E+02  1.250000000E+02  0.00000E+00  9.000E+00
      25     1     1     2     0     0  2.442978353E+02  8.447992679E+01  4.083834399E+02  4.992197155E+02  1.250000000E+02  0.00000E+00  9.000E+00
      -2     1     1     2     0   501  1.503020961E+01 -9.206825808E+01 -1.442415536E+02  1.717792104E+02  2.697398305E-06  0.00000E+00  9.000E+00
#rwgt            1           1   2.9692950344330272E-002           6      229060           0
</event>
<event>
      5   9999  3.19816E-02  7.05148E+01 -1.00000E+00  1.31060E-01
      21    -1     0     0   502   501  0.000000000E+00  0.000000000E+00  3.558136369E+02  3.558136369E+02  0.000000000E+00  0.00000E+00  9.000E+00
       2    -1     0     0   501     0  0.000000000E+00  0.000000000E+00 -1.657964223E+02  1.657964223E+02  0.000000000E+00  0.00000E+00  9.000E+00
      25     1     1     2     0     0 -9.486190262E+01  2.473887004E+01  2.373558534E+02  2.856109126E+02  1.250000000E+02  0.00000E+00  9.000E+00
      25     1     1     2     0     0  2.728605363E+01 -4.593444659E+00 -8.729098645E+01  1.549527179E+02  1.250000000E+02  0.00000E+00  9.000E+00
       2     1     1     2   502     0  6.757584898E+01 -2.014542539E+01  3.995234772E+01  8.104642878E+01  4.768371582E-07  0.00000E+00  9.000E+00
#rwgt            1           1   2.7352636190995233E-002           6      229114           0
</event>
<event>
      5   9999  3.19816E-02  1.63149E+02 -1.00000E+00  1.14965E-01
      21    -1     0     0   502   501  0.000000000E+00  0.000000000E+00  2.797333959E+02  2.797333959E+02  0.000000000E+00  0.00000E+00  9.000E+00
      21    -1     0     0   501   511  0.000000000E+00  0.000000000E+00 -4.431147622E+02  4.431147622E+02  0.000000000E+00  0.00000E+00  9.000E+00
      25     1     1     2     0     0 -6.760618416E+01 -1.105945611E+02 -1.198643089E+02  2.163196839E+02  1.250000000E+02  0.00000E+00  9.000E+00
      25     1     1     2     0     0  1.516773559E+02  2.504150659E+02  4.403970965E+01  3.213692916E+02  1.250000000E+02  0.00000E+00  9.000E+00
      21     1     1     2   502   511 -8.407117174E+01 -1.398205049E+02 -8.755676701E+01  1.851591827E+02  9.536743164E-07  0.00000E+00  9.000E+00
#rwgt            1           1   2.5805507154153050E-002           6      229179           0
</event>
<event>
      5   9999  3.19816E-02  3.45125E+02 -1.00000E+00  1.03652E-01
      21    -1     0     0   502   501  0.000000000E+00  0.000000000E+00  1.171345513E+03  1.171345513E+03  0.000000000E+00  0.00000E+00  9.000E+00
      21    -1     0     0   501   512  0.000000000E+00  0.000000000E+00 -3.484431201E+02  3.484431201E+02  0.000000000E+00  0.00000E+00  9.000E+00
      25     1     1     2     0     0  1.764310621E+02  4.237554550E+02  7.403757941E+02  8.800442726E+02  1.250000000E+02  0.00000E+00  9.000E+00
      25     1     1     2     0     0 -2.137385617E+02 -8.065322447E+01 -5.852776313E+01  2.669075017E+02  1.250000000E+02  0.00000E+00  9.000E+00
      21     1     1     2   502   512  3.730749964E+01 -3.431022305E+02  1.410543617E+02  3.728368585E+02  4.672030912E-06  0.00000E+00  9.000E+00
#rwgt            1           1   2.8976662405904092E-002           6      229215           0
</event>
<event>
      5   9999  3.19816E-02  5.53455E+01 -1.00000E+00  1.36605E-01
      21    -1     0     0   511   501  0.000000000E+00  0.000000000E+00  3.921734510E+02  3.921734510E+02  0.000000000E+00  0.00000E+00  9.000E+00
      21    -1     0     0   501   502  0.000000000E+00  0.000000000E+00 -8.741424786E+02  8.741424786E+02  0.000000000E+00  0.00000E+00  9.000E+00
      25     1     1     2     0     0  2.794272410E+01  2.334713059E+01  6.973102926E+00  1.303821633E+02  1.250000000E+02  0.00000E+00  9.000E+00
      25     1     1     2     0     0 -6.488682200E+01  1.786272983E+01 -8.038040374E+02  8.162446370E+02  1.250000000E+02  0.00000E+00  9.000E+00
      21     1     1     2   511   502  3.694409791E+01 -4.120986042E+01  3.148619070E+02  3.196891294E+02  5.394796609E-06  0.00000E+00  9.000E+00
#rwgt            2          11   8.1833420961224569E-003           6      229291           0
</event>
<event>
      5   9999  3.19816E-02  2.15715E+01 -1.00000E+00  1.63703E-01
      21    -1     0     0   512   501  0.000000000E+00  0.000000000E+00  4.535818172E+02  4.535818172E+02  0.000000000E+00  0.00000E+00  9.000E+00
      21    -1     0     0   501   502  0.000000000E+00  0.000000000E+00 -2.081197851E+03  2.081197851E+03  0.000000000E+00  0.00000E+00  9.000E+00
      25     1     1     2     0     0 -9.271716767E+02  2.355173856E+02 -9.031710619E+02  1.321536501E+03  1.250000000E+02  0.00000E+00  9.000E+00
      25     1     1     2     0     0  9.080880371E+02 -2.254603640E+02 -7.270643227E+02  1.191513235E+03  1.250000000E+02  0.00000E+00  9.000E+00
      21     1     1     2   512   502  1.908363959E+01 -1.005702167E+01  2.619350309E+00  2.172993283E+01  1.264405455E-07  0.00000E+00  9.000E+00
#rwgt            1           1   3.1599144423462240E-002           6      229356           0
</event>
<event>
      5   9999  3.19816E-02  5.05140E+01 -1.00000E+00  1.38823E-01
      21    -1     0     0   502   501  0.000000000E+00  0.000000000E+00  3.374022523E+02  3.374022523E+02  0.000000000E+00  0.00000E+00  9.000E+00
      21    -1     0     0   501   511  0.000000000E+00  0.000000000E+00 -2.754539568E+03  2.754539568E+03  0.000000000E+00  0.00000E+00  9.000E+00
      25     1     1     2     0     0 -8.936912414E+01  4.135688013E+02  1.215393464E+02  4.576273664E+02  1.250000000E+02  0.00000E+00  9.000E+00
      25     1     1     2     0     0  1.159010222E+02 -3.705836036E+02 -8.292929437E+02  9.241845274E+02  1.250000000E+02  0.00000E+00  9.000E+00
      21     1     1     2   502   511 -2.653189810E+01 -4.298519768E+01 -1.709383719E+03  1.710129927E+03  2.157918644E-05  0.00000E+00  9.000E+00
#rwgt            1           1   3.0425911805478833E-002           6      229581           0
</event>
<event>
      5   9999  3.19816E-02  8.08547E+01 -1.00000E+00  1.28126E-01
      21    -1     0     0   502   501  0.000000000E+00  0.000000000E+00  4.482751655E+02  4.482751655E+02  0.000000000E+00  0.00000E+00  9.000E+00
      21    -1     0     0   501   512  0.000000000E+00  0.000000000E+00 -4.080295206E+02  4.080295206E+02  0.000000000E+00  0.00000E+00  9.000E+00
      25     1     1     2     0     0  1.465818412E+02  2.496206201E+02 -1.312493294E+02  3.415378114E+02  1.250000000E+02  0.00000E+00  9.000E+00
      25     1     1     2     0     0 -1.350040655E+02 -3.296421350E+02  2.022315584E+02  4.282670173E+02  1.250000000E+02  0.00000E+00  9.000E+00
      21     1     1     2   502   512 -1.157777572E+01  8.002151498E+01 -3.073658413E+01  8.649985754E+01  1.651812370E-06  0.00000E+00  9.000E+00
#rwgt            1           1   2.7866100970356546E-002           6      229681           0
</event>
<event>
      5   9999  3.19816E-02  1.68700E+02 -1.00000E+00  1.14407E-01
      21    -1     0     0   511   501  0.000000000E+00  0.000000000E+00  1.275894722E+03  1.275894722E+03  0.000000000E+00  0.00000E+00  9.000E+00
      21    -1     0     0   501   502  0.000000000E+00  0.000000000E+00 -1.742562994E+03  1.742562994E+03  0.000000000E+00  0.00000E+00  9.000E+00
      25     1     1     2     0     0  1.195957889E+02  5.174402506E+02 -1.575926599E+03  1.667698177E+03  1.250000000E+02  0.00000E+00  9.000E+00
      25     1     1     2     0     0 -1.024906612E+02 -3.496093930E+02  2.157796976E+02  4.414939877E+02  1.250000000E+02  0.00000E+00  9.000E+00
      21     1     1     2   511   502 -1.710512773E+01 -1.678308576E+02  8.934786291E+02  9.092655513E+02  1.525878906E-05  0.00000E+00  9.000E+00
#rwgt            1           1   2.3879723544399319E-002           6      229761           0
</event>
<event>
      5   9999  3.19816E-02  6.63993E+01 -1.00000E+00  1.32393E-01
      21    -1     0     0   502   501  0.000000000E+00  0.000000000E+00  3.800082886E+02  3.800082886E+02  0.000000000E+00  0.00000E+00  9.000E+00
      21    -1     0     0   512   502  0.000000000E+00  0.000000000E+00 -1.067959745E+03  1.067959745E+03  0.000000000E+00  0.00000E+00  9.000E+00
      25     1     1     2     0     0 -4.022658120E+02  1.092384061E+02 -1.367847748E+02  4.561643207E+02  1.250000000E+02  0.00000E+00  9.000E+00
      25     1     1     2     0     0  3.572883574E+02 -6.039273380E+01  5.037641049E+01  3.866070814E+02  1.250000000E+02  0.00000E+00  9.000E+00
      21     1     1     2   512   501  4.497745451E+01 -4.884567230E+01 -6.015430924E+02  6.051966318E+02  7.629394531E-06  0.00000E+00  9.000E+00
#rwgt            2          11   1.7216700089992614E-003           6      229950           0
</event>
<event>
      5   9999  3.19816E-02  1.50935E+02 -1.00000E+00  1.16287E-01
      21    -1     0     0   511   501  0.000000000E+00  0.000000000E+00  7.849554234E+02  7.849554234E+02  0.000000000E+00  0.00000E+00  9.000E+00
      21    -1     0     0   501   502  0.000000000E+00  0.000000000E+00 -3.075934809E+02  3.075934809E+02  0.000000000E+00  0.00000E+00  9.000E+00
      25     1     1     2     0     0  1.350419553E+02 -1.096535470E+02  4.728903184E+02  5.191439909E+02  1.250000000E+02  0.00000E+00  9.000E+00
      25     1     1     2     0     0 -1.529691031E+02 -4.021310838E+01 -2.228702272E+02  3.005208458E+02  1.250000000E+02  0.00000E+00  9.000E+00
      21     1     1     2   511   502  1.792714780E+01  1.498666553E+02  2.273418513E+02  2.728840676E+02  0.000000000E+00  0.00000E+00  9.000E+00
#rwgt            1           1   2.6637666612974863E-002           6      229985           0
</event>
<event>
      5   9999  3.19816E-02  1.87337E+02 -1.00000E+00  1.12692E-01
      21    -1     0     0   502   501  0.000000000E+00  0.000000000E+00  1.938826653E+03  1.938826653E+03  0.000000000E+00  0.00000E+00  9.000E+00
      21    -1     0     0   512   502  0.000000000E+00  0.000000000E+00 -2.397712014E+02  2.397712014E+02  0.000000000E+00  0.00000E+00  9.000E+00
      25     1     1     2     0     0 -5.086798832E+02 -1.973805934E+02  1.040563324E+03  1.181571561E+03  1.250000000E+02  0.00000E+00  9.000E+00
      25     1     1     2     0     0  5.330825426E+02  1.163957868E+01  5.678329832E+02  7.889054277E+02  1.250000000E+02  0.00000E+00  9.000E+00
      21     1     1     2   512   501 -2.440265940E+01  1.857410147E+02  9.065914443E+01  2.081208659E+02  3.303624740E-06  0.00000E+00  9.000E+00
#rwgt            1           1   2.1399964710436484E-002           6      230056           0
</event>
<event>
      5   9999  3.19816E-02  9.01743E+01 -1.00000E+00  1.25882E-01
      21    -1     0     0   511   501  0.000000000E+00  0.000000000E+00  1.192983306E+02  1.192983306E+02  0.000000000E+00  0.00000E+00  9.000E+00
      21    -1     0     0   501   502  0.000000000E+00  0.000000000E+00 -2.030575859E+03  2.030575859E+03  0.000000000E+00  0.00000E+00  9.000E+00
      25     1     1     2     0     0 -4.171626749E+02  1.284019478E+02 -7.381025329E+02  8.665633887E+02  1.250000000E+02  0.00000E+00  9.000E+00
      25     1     1     2     0     0  3.479335709E+02 -7.062018264E+01 -1.112952381E+03  1.174875730E+03  1.250000000E+02  0.00000E+00  9.000E+00
      21     1     1     2   511   502  6.922910395E+01 -5.778176518E+01 -6.022261488E+01  1.084350707E+02  1.168007728E-06  0.00000E+00  9.000E+00
#rwgt            1           1   3.2185873321479028E-002           6      230133           0
</event>
<event>
      5   9999  3.19816E-02  2.38664E+01 -1.00000E+00  1.60275E-01
      21    -1     0     0   502   512  0.000000000E+00  0.000000000E+00  1.545275301E+02  1.545275301E+02  0.000000000E+00  0.00000E+00  9.000E+00
      21    -1     0     0   501   502  0.000000000E+00  0.000000000E+00 -7.640493585E+02  7.640493585E+02  0.000000000E+00  0.00000E+00  9.000E+00
      25     1     1     2     0     0 -2.879365018E+01 -2.770571627E+02 -4.370487815E+02  5.331288616E+02  1.250000000E+02  0.00000E+00  9.000E+00
      25     1     1     2     0     0  5.105248428E+01  2.684462528E+02 -1.902804958E+02  3.556703725E+02  1.250000000E+02  0.00000E+00  9.000E+00
      21     1     1     2   501   512 -2.225883410E+01  8.610909825E+00  1.780744893E+01  2.977765439E+01  4.129530925E-07  0.00000E+00  9.000E+00
#rwgt            1           1   2.9679008056554147E-002           6      230197           0
</event>
<event>
      5   9999  3.19816E-02  1.04042E+02 -1.00000E+00  1.23059E-01
      21    -1     0     0   502   501  0.000000000E+00  0.000000000E+00  1.185601129E+02  1.185601129E+02  0.000000000E+00  0.00000E+00  9.000E+00
       1    -1     0     0   501     0  0.000000000E+00  0.000000000E+00 -1.272934723E+03  1.272934723E+03  0.000000000E+00  0.00000E+00  9.000E+00
      25     1     1     2     0     0  1.061796962E+02  3.033072997E+01 -1.402817738E+02  2.179404899E+02  1.250000000E+02  0.00000E+00  9.000E+00
      25     1     1     2     0     0 -8.610872296E+01 -1.324180557E+02 -1.045616515E+03  1.064841843E+03  1.250000000E+02  0.00000E+00  9.000E+00
       1     1     1     2   502     0 -2.007097322E+01  1.020873257E+02  3.152367878E+01  1.087125033E+02  2.158972058E-06  0.00000E+00  9.000E+00
#rwgt            1           1   2.8405974270364742E-002           6      230324           0
</event>
<event>
      5   9999  3.19816E-02  7.00542E+01 -1.00000E+00  1.31204E-01
      21    -1     0     0   502   501  0.000000000E+00  0.000000000E+00  8.042495839E+01  8.042495839E+01  0.000000000E+00  0.00000E+00  9.000E+00
      21    -1     0     0   501   511  0.000000000E+00  0.000000000E+00 -1.581371611E+03  1.581371611E+03  0.000000000E+00  0.00000E+00  9.000E+00
      25     1     1     2     0     0  1.842611772E+02 -7.468010093E+01 -1.717892895E+02  2.909739831E+02  1.250000000E+02  0.00000E+00  9.000E+00
      25     1     1     2     0     0 -1.768973718E+02  1.443462237E+02 -1.133472489E+03  1.162976094E+03  1.250000000E+02  0.00000E+00  9.000E+00
      21     1     1     2   502   511 -7.363805387E+00 -6.966612274E+01 -1.956848747E+02  2.078464926E+02  0.000000000E+00  0.00000E+00  9.000E+00
#rwgt            1           1   2.5314042408292707E-002           6      230394           0
</event>
<event>
      5   9999  3.19816E-02  1.21969E+02 -1.00000E+00  1.20069E-01
      21    -1     0     0   502   501  0.000000000E+00  0.000000000E+00  1.645904808E+03  1.645904808E+03  0.000000000E+00  0.00000E+00  9.000E+00
       2    -1     0     0   501     0  0.000000000E+00  0.000000000E+00 -1.125653528E+03  1.125653528E+03  0.000000000E+00  0.00000E+00  9.000E+00
      25     1     1     2     0     0 -1.255164855E+03  2.924019808E+02  3.453741276E+02  1.340091795E+03  1.250000000E+02  0.00000E+00  9.000E+00
      25     1     1     2     0     0  1.178331672E+03 -3.871278513E+02  2.715737553E+02  1.275817701E+03  1.250000000E+02  0.00000E+00  9.000E+00
       2     1     1     2   502     0  7.683318301E+01  9.472587046E+01 -9.669660223E+01  1.556488401E+02  1.348699152E-06  0.00000E+00  9.000E+00
#rwgt            1           1   6.4572371735125672E-002           6      230464           0
</event>
<event>
      5   9999  3.19816E-02  4.69069E+01 -1.00000E+00  1.40677E-01
      21    -1     0     0   502   501  0.000000000E+00  0.000000000E+00  6.710490406E+02  6.710490406E+02  0.000000000E+00  0.00000E+00  9.000E+00
       2    -1     0     0   501     0  0.000000000E+00  0.000000000E+00 -1.816158608E+03  1.816158608E+03  0.000000000E+00  0.00000E+00  9.000E+00
      25     1     1     2     0     0 -4.412014335E+01 -5.385893323E+01  5.722024435E+01  1.540990853E+02  1.250000000E+02  0.00000E+00  9.000E+00
      25     1     1     2     0     0  6.866706648E+01  1.388765500E+01  5.559924158E+02  5.741607783E+02  1.250000000E+02  0.00000E+00  9.000E+00
       2     1     1     2   502     0 -2.454692313E+01  3.997127824E+01 -1.758322227E+03  1.758947784E+03  2.157918644E-05  0.00000E+00  9.000E+00
#rwgt            1           1   2.8846048556851227E-002           6      230554           0
</event>
<event>
      5   9999  3.19816E-02  1.66216E+01 -1.00000E+00  1.73284E-01
      21    -1     0     0   502   511  0.000000000E+00  0.000000000E+00  1.627074757E+02  1.627074757E+02  0.000000000E+00  0.00000E+00  9.000E+00
      21    -1     0     0   501   502  0.000000000E+00  0.000000000E+00 -7.975172781E+02  7.975172781E+02  0.000000000E+00  0.00000E+00  9.000E+00
      25     1     1     2     0     0 -2.718996673E+02 -1.346090418E+02 -4.495181728E+02  5.565434493E+02  1.250000000E+02  0.00000E+00  9.000E+00
      25     1     1     2     0     0  2.558196321E+02  1.388174591E+02 -2.054483070E+02  3.775552648E+02  1.250000000E+02  0.00000E+00  9.000E+00
      21     1     1     2   501   511  1.608003525E+01 -4.208417353E+00  2.015667743E+01  2.612603980E+01  6.307962682E-07  0.00000E+00  9.000E+00
#rwgt            1           1   2.8393280179325433E-002           6      230629           0
</event>
<event>
      5   9999  3.19816E-02  1.65720E+02 -1.00000E+00  1.14704E-01
      21    -1     0     0   502   501  0.000000000E+00  0.000000000E+00  4.144821614E+02  4.144821614E+02  0.000000000E+00  0.00000E+00  9.000E+00
       2    -1     0     0   501     0  0.000000000E+00  0.000000000E+00 -1.327451042E+03  1.327451042E+03  0.000000000E+00  0.00000E+00  9.000E+00
      25     1     1     2     0     0  3.732765054E+02 -2.871672906E+02 -7.429631671E+02  8.884929206E+02  1.250000000E+02  0.00000E+00  9.000E+00
      25     1     1     2     0     0 -3.788630782E+02  1.215418550E+02  1.891134186E+02  4.579285311E+02  1.250000000E+02  0.00000E+00  9.000E+00
       2     1     1     2   502     0  5.586572708E+00  1.656254355E+02 -3.591191319E+02  3.955117515E+02  0.000000000E+00  0.00000E+00  9.000E+00
#rwgt            1           1   2.8382370147847558E-002           6      230801           0
</event>
<event>
      5   9999  3.19816E-02  1.25560E+02 -1.00000E+00  1.19539E-01
      21    -1     0     0   511   501  0.000000000E+00  0.000000000E+00  1.213730730E+03  1.213730730E+03  0.000000000E+00  0.00000E+00  9.000E+00
      21    -1     0     0   501   502  0.000000000E+00  0.000000000E+00 -4.568986658E+02  4.568986658E+02  0.000000000E+00  0.00000E+00  9.000E+00
      25     1     1     2     0     0  1.212826248E+01 -3.275028907E+02 -3.400567073E+02  4.885374115E+02  1.250000000E+02  0.00000E+00  9.000E+00
      25     1     1     2     0     0  9.787108942E+01  2.669598550E+02  6.999627632E+02  7.657801148E+02  1.250000000E+02  0.00000E+00  9.000E+00
      21     1     1     2   511   502 -1.099993519E+02  6.054303578E+01  3.969260082E+02  4.163118694E+02  5.394796609E-06  0.00000E+00  9.000E+00
#rwgt            1           1   3.1682283747216697E-002           6      230873           0
</event>
<event>
      5   9999  3.19816E-02  3.15226E+02 -1.00000E+00  1.04898E-01
      21    -1     0     0   502   512  0.000000000E+00  0.000000000E+00  1.856662783E+03  1.856662783E+03  0.000000000E+00  0.00000E+00  9.000E+00
      21    -1     0     0   501   502  0.000000000E+00  0.000000000E+00 -3.668359916E+02  3.668359916E+02  0.000000000E+00  0.00000E+00  9.000E+00
      25     1     1     2     0     0 -9.415594354E+01 -1.478705997E+02  1.424625159E+03  1.440802866E+03  1.250000000E+02  0.00000E+00  9.000E+00
      25     1     1     2     0     0  9.129844632E+01 -1.673423189E+02 -2.490249713E+02  3.376052345E+02  1.250000000E+02  0.00000E+00  9.000E+00
      21     1     1     2   501   512  2.857497222E+00  3.152129187E+02  3.142266035E+02  4.450906736E+02  9.344061824E-06  0.00000E+00  9.000E+00
#rwgt            2          11   3.9074712632560567E-003           6      230968           0
</event>
<event>
      5   9999  3.19816E-02  1.13467E+02 -1.00000E+00  1.21409E-01
      21    -1     0     0   502   501  0.000000000E+00  0.000000000E+00  1.506717327E+03  1.506717327E+03  0.000000000E+00  0.00000E+00  9.000E+00
      21    -1     0     0   501   511  0.000000000E+00  0.000000000E+00 -4.876465468E+02  4.876465468E+02  0.000000000E+00  0.00000E+00  9.000E+00
      25     1     1     2     0     0 -1.537710280E+02 -4.137926162E+02  1.134020036E+03  1.223313656E+03  1.250000000E+02  0.00000E+00  9.000E+00
      25     1     1     2     0     0  5.016883654E+01  4.600671503E+02  1.337517976E+02  4.976878924E+02  1.250000000E+02  0.00000E+00  9.000E+00
      21     1     1     2   502   511  1.036021915E+02 -4.627453409E+01 -2.487010539E+02  2.733623251E+02  5.394796609E-06  0.00000E+00  9.000E+00
#rwgt            2          11   4.4392263678419792E-003           6      231018           0
</event>
<event>
      5   9999  3.19816E-02  2.03395E+02 -1.00000E+00  1.11383E-01
      21    -1     0     0   502   501  0.000000000E+00  0.000000000E+00  2.531428966E+03  2.531428966E+03  0.000000000E+00  0.00000E+00  9.000E+00
      21    -1     0     0   512   502  0.000000000E+00  0.000000000E+00 -4.737958380E+02  4.737958380E+02  0.000000000E+00  0.00000E+00  9.000E+00
      25     1     1     2     0     0  4.971628470E-01 -3.363045581E+02  1.837406691E+03  1.872108263E+03  1.250000000E+02  0.00000E+00  9.000E+00
      25     1     1     2     0     0  1.262994258E+02  1.772697147E+02  6.286191557E+02  6.768774923E+02  1.250000000E+02  0.00000E+00  9.000E+00
      21     1     1     2   512   501 -1.267965887E+02  1.590348434E+02 -4.083927186E+02  4.562390480E+02  9.344061824E-06  0.00000E+00  9.000E+00
#rwgt            1           1   3.6691015489744024E-002           6      231038           0
</event>
<event>
      5   9999  3.19816E-02  2.67211E+01 -1.00000E+00  1.56615E-01
       2    -1     0     0   502     0  0.000000000E+00  0.000000000E+00  3.860447153E+02  3.860447153E+02  0.000000000E+00  0.00000E+00  9.000E+00
      21    -1     0     0   501   502  0.000000000E+00  0.000000000E+00 -3.730117177E+02  3.730117177E+02  0.000000000E+00  0.00000E+00  9.000E+00
      25     1     1     2     0     0 -2.214013263E+02 -1.449749399E+02  1.527424875E+02  3.301386799E+02  1.250000000E+02  0.00000E+00  9.000E+00
      25     1     1     2     0     0  2.260206057E+02  1.712937035E+02 -1.959362665E+02  3.666645164E+02  1.250000000E+02  0.00000E+00  9.000E+00
       2     1     1     2   501     0 -4.619279426E+00 -2.631876361E+01  5.622677665E+01  6.225323664E+01  9.536743164E-07  0.00000E+00  9.000E+00
#rwgt            1           1   2.7924160034743382E-002           6      231078           0
</event>
<event>
      5   9999  3.19816E-02  9.58354E+01 -1.00000E+00  1.24665E-01
      21    -1     0     0   511   501  0.000000000E+00  0.000000000E+00  5.467120828E+02  5.467120828E+02  0.000000000E+00  0.00000E+00  9.000E+00
      21    -1     0     0   501   502  0.000000000E+00  0.000000000E+00 -1.924045209E+03  1.924045209E+03  0.000000000E+00  0.00000E+00  9.000E+00
      25     1     1     2     0     0  3.444993751E+01  3.357478159E+02 -1.796226078E+03  1.831929725E+03  1.250000000E+02  0.00000E+00  9.000E+00
      25     1     1     2     0     0  3.534115874E+01 -2.700695767E+02  4.477094572E+02  5.387534982E+02  1.250000000E+02  0.00000E+00  9.000E+00
      21     1     1     2   511   502 -6.979109625E+01 -6.567823920E+01 -2.881650547E+01  1.000740686E+02  1.011524364E-06  0.00000E+00  9.000E+00
#rwgt            1           1   3.1896053255360886E-002           6      231244           0
</event>
<event>
      5   9999  3.19816E-02  1.07191E+02 -1.00000E+00  1.22487E-01
      21    -1     0     0   502   501  0.000000000E+00  0.000000000E+00  1.982408736E+02  1.982408736E+02  0.000000000E+00  0.00000E+00  9.000E+00
      21    -1     0     0   512   502  0.000000000E+00  0.000000000E+00 -6.663921088E+02  6.663921088E+02  0.000000000E+00  0.00000E+00  9.000E+00
      25     1     1     2     0     0  2.418133649E+02 -1.985479701E+02 -2.850790390E+02  4.413502672E+02  1.250000000E+02  0.00000E+00  9.000E+00
      25     1     1     2     0     0 -2.127378460E+02  9.537566888E+01 -8.462031686E+01  2.777399996E+02  1.250000000E+02  0.00000E+00  9.000E+00
      21     1     1     2   512   501 -2.907551893E+01  1.031723012E+02 -9.845187925E+01  1.455427156E+02  1.907348633E-06  0.00000E+00  9.000E+00
#rwgt            1           1   2.8034888704781692E-002           6      231363           0
</event>
<event>
      5   9999  3.19816E-02  2.22186E+02 -1.00000E+00  1.10010E-01
      21    -1     0     0   502   511  0.000000000E+00  0.000000000E+00  1.578036846E+02  1.578036846E+02  0.000000000E+00  0.00000E+00  9.000E+00
      21    -1     0     0   501   502  0.000000000E+00  0.000000000E+00 -1.920704377E+03  1.920704377E+03  0.000000000E+00  0.00000E+00  9.000E+00
      25     1     1     2     0     0  1.519299992E+02  2.058354347E+02 -3.698492157E+02  4.667594596E+02  1.250000000E+02  0.00000E+00  9.000E+00
      25     1     1     2     0     0  6.467203176E+01 -1.563366846E+02 -1.372598283E+03  1.388623303E+03  1.250000000E+02  0.00000E+00  9.000E+00
      21     1     1     2   501   511 -2.166020310E+02 -4.949875015E+01 -2.045319402E+01  2.231252994E+02  4.498472754E-06  0.00000E+00  9.000E+00
#rwgt            1           1   3.8685610307588679E-002           6      231444           0
</event>
<event>
      5   9999  3.19816E-02  2.73716E+01 -1.00000E+00  1.55858E-01
      21    -1     0     0   512   501  0.000000000E+00  0.000000000E+00  1.086155715E+03  1.086155715E+03  0.000000000E+00  0.00000E+00  9.000E+00
      21    -1     0     0   501   502  0.000000000E+00  0.000000000E+00 -5.535121773E+02  5.535121773E+02  0.000000000E+00  0.00000E+00  9.000E+00
      25     1     1     2     0     0 -5.786560245E+02  3.400862032E+02  2.798700941E+02  7.378710524E+02  1.250000000E+02  0.00000E+00  9.000E+00
      25     1     1     2     0     0  5.933506057E+02 -3.169934518E+02  3.800120977E+01  6.852874446E+02  1.250000000E+02  0.00000E+00  9.000E+00
      21     1     1     2   512   502 -1.469458114E+01 -2.309275145E+01  2.147722338E+02  2.165093954E+02  2.697398305E-06  0.00000E+00  9.000E+00
#rwgt            1           1   2.9905685712070355E-002           6      231491           0
</event>
<event>
      5   9999  3.19816E-02  4.87142E+01 -1.00000E+00  1.39724E-01
       1    -1     0     0   502     0  0.000000000E+00  0.000000000E+00  2.704235460E+02  2.704235460E+02  0.000000000E+00  0.00000E+00  9.000E+00
      21    -1     0     0   501   502  0.000000000E+00  0.000000000E+00 -1.409000889E+02  1.409000889E+02  0.000000000E+00  0.00000E+00  9.000E+00
      25     1     1     2     0     0  3.270811982E+01 -2.066544977E+01  6.749763124E+01  1.472338689E+02  1.250000000E+02  0.00000E+00  9.000E+00
      25     1     1     2     0     0 -7.578836958E+01 -2.075922338E+00 -3.953769877E+01  1.514477337E+02  1.250000000E+02  0.00000E+00  9.000E+00
       1     1     1     2   501     0  4.308024976E+01  2.274137211E+01  1.015635246E+02  1.126420323E+02  1.907348633E-06  0.00000E+00  9.000E+00
#rwgt            1           1   3.7273284765494609E-002           6      231618           0
</event>
<event>
      5   9999  3.19816E-02  4.76435E+01 -1.00000E+00  1.40282E-01
      21    -1     0     0   502   501  0.000000000E+00  0.000000000E+00  4.734000398E+02  4.734000398E+02  0.000000000E+00  0.00000E+00  9.000E+00
       2    -1     0     0   501     0  0.000000000E+00  0.000000000E+00 -7.448496691E+02  7.448496691E+02  0.000000000E+00  0.00000E+00  9.000E+00
      25     1     1     2     0     0 -3.957836596E+02  4.106098567E+01 -1.677489016E+02  4.495502238E+02  1.250000000E+02  0.00000E+00  9.000E+00
      25     1     1     2     0     0  4.335249778E+02 -7.013838132E+01  1.727365164E+02  4.881866477E+02  1.250000000E+02  0.00000E+00  9.000E+00
       2     1     1     2   502     0 -3.774131821E+01  2.907739565E+01 -2.764372441E+02  2.805128374E+02  3.814697266E-06  0.00000E+00  9.000E+00
#rwgt            1           1   2.9370229963734062E-002           6      231675           0
</event>
<event>
      5   9999  3.19816E-02  1.46037E+01 -1.00000E+00  1.78486E-01
      21    -1     0     0   502   511  0.000000000E+00  0.000000000E+00  1.216065883E+02  1.216065883E+02  0.000000000E+00  0.00000E+00  9.000E+00
      21    -1     0     0   501   502  0.000000000E+00  0.000000000E+00 -1.419811531E+03  1.419811531E+03  0.000000000E+00  0.00000E+00  9.000E+00
      25     1     1     2     0     0  2.152045894E+02  2.890003464E+02 -7.565194194E+02  8.472194801E+02  1.250000000E+02  0.00000E+00  9.000E+00
      25     1     1     2     0     0 -2.071276958E+02 -2.768335225E+02 -5.605401408E+02  6.703498571E+02  1.250000000E+02  0.00000E+00  9.000E+00
      21     1     1     2   501   511 -8.076893571E+00 -1.216682392E+01  1.885461741E+01  2.384878218E+01  5.331201500E-07  0.00000E+00  9.000E+00
#rwgt            1           1   2.7948453300621193E-002           6      231763           0
</event>
<event>
      5   9999  3.19816E-02  2.59361E+02 -1.00000E+00  1.07688E-01
      21    -1     0     0   502   501  0.000000000E+00  0.000000000E+00  6.588663821E+02  6.588663821E+02  0.000000000E+00  0.00000E+00  9.000E+00
       2    -1     0     0   501     0  0.000000000E+00  0.000000000E+00 -3.959831757E+03  3.959831757E+03  0.000000000E+00  0.00000E+00  9.000E+00
      25     1     1     2     0     0  1.674832887E+02 -4.800661928E+01  2.258562465E+02  3.114343134E+02  1.250000000E+02  0.00000E+00  9.000E+00
      25     1     1     2     0     0 -4.210471668E+02  1.025369210E+02  2.539541566E+02  5.176024058E+02  1.250000000E+02  0.00000E+00  9.000E+00
       2     1     1     2   502     0  2.535638781E+02 -5.453030173E+01 -3.780775778E+03  3.789661420E+03  4.315837288E-05  0.00000E+00  9.000E+00
#rwgt            1           1   3.0749202064301841E-002           6      231964           0
</event>
<event>
      5   9999  3.19816E-02  4.23889E+01 -1.00000E+00  1.43295E-01
       1    -1     0     0   502     0  0.000000000E+00  0.000000000E+00  4.884261710E+02  4.884261710E+02  0.000000000E+00  0.00000E+00  9.000E+00
      21    -1     0     0   501   502  0.000000000E+00  0.000000000E+00 -4.167994336E+02  4.167994336E+02  0.000000000E+00  0.00000E+00  9.000E+00
      25     1     1     2     0     0  6.826552810E+01 -2.877790582E+02 -2.681436010E+02  4.183335505E+02  1.250000000E+02  0.00000E+00  9.000E+00
      25     1     1     2     0     0 -2.904047839E+01  2.717099020E+02  3.233926178E+02  4.414492105E+02  1.250000000E+02  0.00000E+00  9.000E+00
       1     1     1     2   501     0 -3.922504971E+01  1.606915622E+01  1.637772051E+01  4.544284362E+01  9.536743164E-07  0.00000E+00  9.000E+00
#rwgt            1           1   2.6892144485249153E-002           6      232024           0
</event>
<event>
      5   9999  3.19816E-02  7.09561E+00 -1.00000E+00  2.14724E-01
      21    -1     0     0   502   511  0.000000000E+00  0.000000000E+00  1.124588752E+02  1.124588752E+02  0.000000000E+00  0.00000E+00  9.000E+00
      21    -1     0     0   501   502  0.000000000E+00  0.000000000E+00 -5.880359972E+02  5.880359972E+02  0.000000000E+00  0.00000E+00  9.000E+00
      25     1     1     2     0     0  1.470364185E+02 -1.361277053E+01 -3.375100577E+02  3.890283472E+02  1.250000000E+02  0.00000E+00  9.000E+00
      25     1     1     2     0     0 -1.480508456E+02  2.063548973E+01 -1.821975536E+02  2.667692352E+02  1.250000000E+02  0.00000E+00  9.000E+00
      21     1     1     2   501   511  1.014427102E+00 -7.022719193E+00  4.413048927E+01  4.469728997E+01  6.743495762E-07  0.00000E+00  9.000E+00
#rwgt            1           1   3.2109572247521867E-002           6      232117           0
</event>
<event>
      5   9999  3.19816E-02  8.29792E+01 -1.00000E+00  1.27586E-01
      21    -1     0     0   512   501  0.000000000E+00  0.000000000E+00  2.142777002E+02  2.142777002E+02  0.000000000E+00  0.00000E+00  9.000E+00
      21    -1     0     0   501   502  0.000000000E+00  0.000000000E+00 -1.748439762E+03  1.748439762E+03  0.000000000E+00  0.00000E+00  9.000E+00
      25     1     1     2     0     0 -2.163851818E+02 -3.127723562E+02 -1.149219868E+03  1.216955381E+03  1.250000000E+02  0.00000E+00  9.000E+00
      25     1     1     2     0     0  2.910122997E+02  3.490536644E+02 -4.411216258E+02  6.455539544E+02  1.250000000E+02  0.00000E+00  9.000E+00
      21     1     1     2   512   502 -7.462711793E+01 -3.628130820E+01  5.617943239E+01  1.002081268E+02  0.000000000E+00  0.00000E+00  9.000E+00
#rwgt            1           1   2.7603478006671744E-002           6      232343           0
</event>
<event>
      5   9999  3.19816E-02  5.85202E+01 -1.00000E+00  1.35286E-01
      21    -1     0     0   502   501  0.000000000E+00  0.000000000E+00  1.401858911E+03  1.401858911E+03  0.000000000E+00  0.00000E+00  9.000E+00
      21    -1     0     0   511   502  0.000000000E+00  0.000000000E+00 -1.125322384E+02  1.125322384E+02  0.000000000E+00  0.00000E+00  9.000E+00
      25     1     1     2     0     0  1.148789561E+02 -1.205062657E+02  1.167352630E+03  1.185772363E+03  1.250000000E+02  0.00000E+00  9.000E+00
      25     1     1     2     0     0 -1.126653829E+02  1.789845881E+02  1.085232901E+02  2.685726638E+02  1.250000000E+02  0.00000E+00  9.000E+00
      21     1     1     2   511   501 -2.213573177E+00 -5.847832242E+01  1.345075295E+01  6.004612272E+01  1.581489940E-06  0.00000E+00  9.000E+00
#rwgt            1           1   2.7744718807226149E-002           6      232415           0
</event>
<event>
      5   9999  3.19816E-02  1.14994E+02 -1.00000E+00  1.21159E-01
      21    -1     0     0   502   501  0.000000000E+00  0.000000000E+00  3.752131066E+02  3.752131066E+02  0.000000000E+00  0.00000E+00  9.000E+00
      21    -1     0     0   501   512  0.000000000E+00  0.000000000E+00 -3.151757765E+02  3.151757765E+02  0.000000000E+00  0.00000E+00  9.000E+00
      25     1     1     2     0     0 -1.935063910E+02  8.416852392E+01 -7.192485889E+01  2.555919582E+02  1.250000000E+02  0.00000E+00  9.000E+00
      25     1     1     2     0     0  2.395636446E+02  2.119924843E+01  1.622306653E+02  3.158859552E+02  1.250000000E+02  0.00000E+00  9.000E+00
      21     1     1     2   502   512 -4.605725369E+01 -1.053677724E+02 -3.026847624E+01  1.189109697E+02  2.132480600E-06  0.00000E+00  9.000E+00
#rwgt            1           1   2.9471732348858217E-002           6      232600           0
</event>
<event>
      5   9999  3.19816E-02  2.27861E+02 -1.00000E+00  1.09624E-01
      21    -1     0     0   502   501  0.000000000E+00  0.000000000E+00  2.389108122E+03  2.389108122E+03  0.000000000E+00  0.00000E+00  9.000E+00
      21    -1     0     0   501   511  0.000000000E+00  0.000000000E+00 -3.371086078E+02  3.371086078E+02  0.000000000E+00  0.00000E+00  9.000E+00
      25     1     1     2     0     0 -3.160230811E+02  3.744105083E+02  1.862848073E+03  1.930254325E+03  1.250000000E+02  0.00000E+00  9.000E+00
      25     1     1     2     0     0  1.705358844E+02 -1.990418902E+02  3.940734420E+02  4.895089780E+02  1.250000000E+02  0.00000E+00  9.000E+00
      21     1     1     2   502   511  1.454871967E+02 -1.753686181E+02 -2.049220004E+02  3.064534269E+02  2.697398305E-06  0.00000E+00  9.000E+00
#rwgt            2          11   2.8772127518916380E-002           6      232804           0
</event>
<event>
      5   9999  3.19816E-02  3.20394E+02 -1.00000E+00  1.04672E-01
      21    -1     0     0   502   512  0.000000000E+00  0.000000000E+00  8.630524056E+02  8.630524056E+02  0.000000000E+00  0.00000E+00  9.000E+00
      21    -1     0     0   501   502  0.000000000E+00  0.000000000E+00 -2.502976641E+02  2.502976641E+02  0.000000000E+00  0.00000E+00  9.000E+00
      25     1     1     2     0     0  1.130615266E+01  6.975695104E+01 -4.590454308E+01  1.507517442E+02  1.250000000E+02  0.00000E+00  9.000E+00
      25     1     1     2     0     0 -3.291905132E+02 -1.097805239E+02  2.605947665E+02  4.516113260E+02  1.250000000E+02  0.00000E+00  9.000E+00
      21     1     1     2   501   512  3.178843606E+02  4.002357281E+01  3.980645181E+02  5.109869995E+02  7.629394531E-06  0.00000E+00  9.000E+00
#rwgt            2          11   2.8466268148043291E-003           6      233214           0
</event>
<event>
      5   9999  3.19816E-02  2.19664E+01 -1.00000E+00  1.63077E-01
      21    -1     0     0   502   501  0.000000000E+00  0.000000000E+00  2.685687623E+02  2.685687623E+02  0.000000000E+00  0.00000E+00  9.000E+00
      21    -1     0     0   501   511  0.000000000E+00  0.000000000E+00 -3.047473132E+02  3.047473132E+02  0.000000000E+00  0.00000E+00  9.000E+00
      25     1     1     2     0     0  1.933590662E+02 -7.506339720E+01 -1.062550357E+02  2.644567540E+02  1.250000000E+02  0.00000E+00  9.000E+00
      25     1     1     2     0     0 -2.098945799E+02  6.060319684E+01  1.007628734E+02  2.711210777E+02  1.250000000E+02  0.00000E+00  9.000E+00
      21     1     1     2   502   511  1.653551368E+01  1.446020036E+01 -3.068638856E+01  3.773824387E+01  5.840038640E-07  0.00000E+00  9.000E+00
#rwgt            1           1   2.9297440568853649E-002           6      233264           0
</event>
<event>
      5   9999  3.19816E-02  1.01893E+02 -1.00000E+00  1.23463E-01
      21    -1     0     0   502   501  0.000000000E+00  0.000000000E+00  9.206250044E+01  9.206250044E+01  0.000000000E+00  0.00000E+00  9.000E+00
      21    -1     0     0   501   512  0.000000000E+00  0.000000000E+00 -8.847155766E+02  8.847155766E+02  0.000000000E+00  0.00000E+00  9.000E+00
      25     1     1     2     0     0 -1.724999596E+02 -1.328154852E+02 -3.532230141E+02  4.333447668E+02  1.250000000E+02  0.00000E+00  9.000E+00
      25     1     1     2     0     0  1.556460581E+02  3.232579464E+01 -2.056968708E+02  2.884559847E+02  1.250000000E+02  0.00000E+00  9.000E+00
      21     1     1     2   502   512  1.685390148E+01  1.004896906E+02 -2.337331912E+02  2.549773256E+02  2.697398305E-06  0.00000E+00  9.000E+00
#rwgt            1           1   3.4481702522157279E-002           6      233395           0
</event>
<event>
      5   9999  3.19816E-02  6.76329E+01 -1.00000E+00  1.31982E-01
      21    -1     0     0   502   511  0.000000000E+00  0.000000000E+00  2.131151717E+02  2.131151717E+02  0.000000000E+00  0.00000E+00  9.000E+00
      21    -1     0     0   501   502  0.000000000E+00  0.000000000E+00 -4.519602577E+02  4.519602577E+02  0.000000000E+00  0.00000E+00  9.000E+00
      25     1     1     2     0     0 -8.163309710E+01  1.060796573E+02  4.394112589E+01  1.883419199E+02  1.250000000E+02  0.00000E+00  9.000E+00
      25     1     1     2     0     0  8.434056422E+01 -3.850092347E+01 -3.489730033E+02  3.821031391E+02  1.250000000E+02  0.00000E+00  9.000E+00
      21     1     1     2   501   511 -2.707467119E+00 -6.757873388E+01  6.618679139E+01  9.463037041E+01  2.132480600E-06  0.00000E+00  9.000E+00
#rwgt            1           1   2.7647129893458737E-002           6      233431           0
</event>
<event>
      5   9999  3.19816E-02  4.92306E+01 -1.00000E+00  1.39461E-01
      21    -1     0     0   502   512  0.000000000E+00  0.000000000E+00  3.906412673E+02  3.906412673E+02  0.000000000E+00  0.00000E+00  9.000E+00
      21    -1     0     0   501   502  0.000000000E+00  0.000000000E+00 -9.992950659E+02  9.992950659E+02  0.000000000E+00  0.00000E+00  9.000E+00
      25     1     1     2     0     0  2.826587209E+01  1.137742594E+02  2.626709923E+02  3.136312992E+02  1.250000000E+02  0.00000E+00  9.000E+00
      25     1     1     2     0     0 -7.066372489E+01 -8.875269288E+01 -9.600817845E+02  9.748089226E+02  1.250000000E+02  0.00000E+00  9.000E+00
      21     1     1     2   501   512  4.239785280E+01 -2.502156654E+01  8.875699366E+01  1.014961114E+02  1.651812370E-06  0.00000E+00  9.000E+00
#rwgt            1           1   2.0472198698177516E-002           6      233528           0
</event>
<event>
      5   9999  3.19816E-02  5.30936E+01 -1.00000E+00  1.37604E-01
       2    -1     0     0   502     0  0.000000000E+00  0.000000000E+00  1.027983094E+03  1.027983094E+03  0.000000000E+00  0.00000E+00  9.000E+00
      21    -1     0     0   501   502  0.000000000E+00  0.000000000E+00 -3.325779359E+02  3.325779359E+02  0.000000000E+00  0.00000E+00  9.000E+00
      25     1     1     2     0     0 -9.215314064E+01  1.158415406E+02  6.974898616E+01  2.059159657E+02  1.250000000E+02  0.00000E+00  9.000E+00
      25     1     1     2     0     0  4.363399957E+01 -9.428175859E+01 -2.386324235E+02  2.887272233E+02  1.250000000E+02  0.00000E+00  9.000E+00
       2     1     1     2   501     0  4.851914108E+01 -2.155978197E+01  8.642885950E+02  8.659178406E+02  0.000000000E+00  0.00000E+00  9.000E+00
#rwgt            1           1   3.0985459659737730E-002           6      233634           0
</event>
<event>
      5   9999  3.19816E-02  4.59211E+01 -1.00000E+00  1.41218E-01
      21    -1     0     0   502   501  0.000000000E+00  0.000000000E+00  4.487178012E+02  4.487178012E+02  0.000000000E+00  0.00000E+00  9.000E+00
      21    -1     0     0   511   502  0.000000000E+00  0.000000000E+00 -7.063901283E+02  7.063901283E+02  0.000000000E+00  0.00000E+00  9.000E+00
      25     1     1     2     0     0 -1.409297944E+02 -5.147132487E+02 -7.979874798E+01  5.538806510E+02  1.250000000E+02  0.00000E+00  9.000E+00
      25     1     1     2     0     0  1.730472709E+02  4.818923144E+02 -1.520929905E+02  5.485643430E+02  1.250000000E+02  0.00000E+00  9.000E+00
      21     1     1     2   511   501 -3.211747644E+01  3.282093432E+01 -2.578058857E+01  5.266293544E+01  5.840038640E-07  0.00000E+00  9.000E+00
#rwgt            1           1   3.0926147597628351E-002           6      233737           0
</event>
<event>
      5   9999  3.19816E-02  4.43144E+01 -1.00000E+00  1.42134E-01
      21    -1     0     0   502   512  0.000000000E+00  0.000000000E+00  2.737018921E+01  2.737018921E+01  0.000000000E+00  0.00000E+00  9.000E+00
      21    -1     0     0   501   502  0.000000000E+00  0.000000000E+00 -1.538503371E+03  1.538503371E+03  0.000000000E+00  0.00000E+00  9.000E+00
      25     1     1     2     0     0 -5.996532193E+01 -7.039859922E+01 -1.162413158E+03  1.172766453E+03  1.250000000E+02  0.00000E+00  9.000E+00
      25     1     1     2     0     0  4.600161762E+01  2.834170600E+01 -2.796370005E+02  3.110325596E+02  1.250000000E+02  0.00000E+00  9.000E+00
      21     1     1     2   501   512  1.396370431E+01  4.205689321E+01 -6.908302333E+01  8.207454793E+01  0.000000000E+00  0.00000E+00  9.000E+00
#rwgt            1           1   2.6461811019088528E-002           6      233910           0
</event>
<event>
      5   9999  3.19816E-02  1.15530E+02 -1.00000E+00  1.21072E-01
      21    -1     0     0   502   501  0.000000000E+00  0.000000000E+00  3.832369165E+02  3.832369165E+02  0.000000000E+00  0.00000E+00  9.000E+00
      21    -1     0     0   501   511  0.000000000E+00  0.000000000E+00 -8.675697949E+02  8.675697949E+02  0.000000000E+00  0.00000E+00  9.000E+00
      25     1     1     2     0     0 -9.294010409E-01  3.128229690E+02  1.361210227E+02  3.633359417E+02  1.250000000E+02  0.00000E+00  9.000E+00
      25     1     1     2     0     0 -7.306500381E+01 -4.015468492E+02 -2.396459547E+02  4.895237997E+02  1.250000000E+02  0.00000E+00  9.000E+00
      21     1     1     2   502   511  7.399440486E+01  8.872388026E+01 -3.808079464E+02  3.979469700E+02  5.394796609E-06  0.00000E+00  9.000E+00
#rwgt            2          11   2.2934633605664716E-003           6      233993           0
</event>
<event>
      5   9999  3.19816E-02  3.75918E+01 -1.00000E+00  1.46533E-01
      21    -1     0     0   502   501  0.000000000E+00  0.000000000E+00  5.379576946E+02  5.379576946E+02  0.000000000E+00  0.00000E+00  9.000E+00
      21    -1     0     0   501   512  0.000000000E+00  0.000000000E+00 -3.565676785E+02  3.565676785E+02  0.000000000E+00  0.00000E+00  9.000E+00
      25     1     1     2     0     0 -2.484148028E+02  1.230722038E+02  3.640556411E+02  4.743608240E+02  1.250000000E+02  0.00000E+00  9.000E+00
      25     1     1     2     0     0  2.798127426E+02 -1.437437338E+02 -1.775122165E+02  3.822211649E+02  1.250000000E+02  0.00000E+00  9.000E+00
      21     1     1     2   502   512 -3.139793980E+01  2.067153000E+01 -5.153408456E+00  3.794338407E+01  8.840797528E-07  0.00000E+00  9.000E+00
#rwgt            1           1   2.5756477771738596E-002           6      234043           0
</event>
<event>
      5   9999  3.19816E-02  4.53107E+01 -1.00000E+00  1.41560E-01
      21    -1     0     0   502   501  0.000000000E+00  0.000000000E+00  3.195552308E+03  3.195552308E+03  0.000000000E+00  0.00000E+00  9.000E+00
      21    -1     0     0   501   511  0.000000000E+00  0.000000000E+00 -3.159774108E+02  3.159774108E+02  0.000000000E+00  0.00000E+00  9.000E+00
      25     1     1     2     0     0  1.694767029E+02  6.718165243E+02  1.651678341E+03  1.795473792E+03  1.250000000E+02  0.00000E+00  9.000E+00
      25     1     1     2     0     0 -1.401309658E+02 -6.372927815E+02  1.393815470E+03  1.544061314E+03  1.250000000E+02  0.00000E+00  9.000E+00
      21     1     1     2   502   511 -2.934573709E+01 -3.452374286E+01 -1.659189135E+02  1.719946132E+02  6.607249480E-06  0.00000E+00  9.000E+00
#rwgt            1           1   5.5886880938299605E-002           6      234177           0
</event>
<event>
      5   9999  3.19816E-02  6.95347E+01 -1.00000E+00  1.31368E-01
      21    -1     0     0   512   501  0.000000000E+00  0.000000000E+00  8.560875095E+01  8.560875095E+01  0.000000000E+00  0.00000E+00  9.000E+00
      21    -1     0     0   501   502  0.000000000E+00  0.000000000E+00 -2.017969825E+03  2.017969825E+03  0.000000000E+00  0.00000E+00  9.000E+00
      25     1     1     2     0     0 -5.618679508E+01  1.387191609E+01 -1.812934523E+03  1.818160051E+03  1.250000000E+02  0.00000E+00  9.000E+00
      25     1     1     2     0     0  1.076827049E+02 -6.059706309E+01 -4.076272777E+01  1.804277389E+02  1.250000000E+02  0.00000E+00  9.000E+00
      21     1     1     2   512   502 -5.149590984E+01  4.672514700E+01 -7.866382346E+01  1.049907863E+02  9.536743164E-07  0.00000E+00  9.000E+00
#rwgt            2          11   1.8036844169992145E-002           6      234349           0
</event>
<event>
      5   9999  3.19816E-02  1.10329E+03 -1.00000E+00  8.99781E-02
      21    -1     0     0   502   501  0.000000000E+00  0.000000000E+00  1.009213748E+03  1.009213748E+03  0.000000000E+00  0.00000E+00  9.000E+00
       2    -1     0     0   501     0  0.000000000E+00  0.000000000E+00 -2.076614170E+03  2.076614170E+03  0.000000000E+00  0.00000E+00  9.000E+00
      25     1     1     2     0     0  3.962309265E+02  1.945837752E+02 -9.235171421E+02  1.031198674E+03  1.250000000E+02  0.00000E+00  9.000E+00
      25     1     1     2     0     0 -5.595407572E+00  8.372327089E+02  2.507511939E+02  8.828879197E+02  1.250000000E+02  0.00000E+00  9.000E+00
       2     1     1     2   502     0 -3.906355189E+02 -1.031816484E+03 -3.946344734E+02  1.171741325E+03  1.206313194E-05  0.00000E+00  9.000E+00
#rwgt            1           1   2.7895761278268261E-002           6      234384           0
</event>
<event>
      5   9999  3.19816E-02  2.62863E+01 -1.00000E+00  1.57136E-01
      21    -1     0     0   502   501  0.000000000E+00  0.000000000E+00  6.361974854E+02  6.361974854E+02  0.000000000E+00  0.00000E+00  9.000E+00
       4    -1     0     0   501     0  0.000000000E+00  0.000000000E+00 -1.478339085E+03  1.478339085E+03  0.000000000E+00  0.00000E+00  9.000E+00
      25     1     1     2     0     0 -6.787597831E+02 -5.408485513E+01  3.137664787E+02  7.600752712E+02  1.250000000E+02  0.00000E+00  9.000E+00
      25     1     1     2     0     0  6.540504740E+02  4.511718688E+01 -1.040943037E+03  1.236529413E+03  1.250000000E+02  0.00000E+00  9.000E+00
       4     1     1     2   502     0  2.470930906E+01  8.967668249E+00 -1.149650415E+02  1.179318862E+02  1.907348633E-06  0.00000E+00  9.000E+00
#rwgt            1           1   3.0316691497509738E-002           6      234419           0
</event>
<event>
      5   9999  3.19816E-02  7.19503E+01 -1.00000E+00  1.30619E-01
      21    -1     0     0   502   501  0.000000000E+00  0.000000000E+00  1.014191983E+02  1.014191983E+02  0.000000000E+00  0.00000E+00  9.000E+00
      21    -1     0     0   511   502  0.000000000E+00  0.000000000E+00 -1.186732945E+03  1.186732945E+03  0.000000000E+00  0.00000E+00  9.000E+00
      25     1     1     2     0     0  1.189623198E+02  1.657144512E+02 -6.196522798E+02  6.642343417E+02  1.250000000E+02  0.00000E+00  9.000E+00
      25     1     1     2     0     0 -1.058090796E+02 -2.364522845E+02 -2.042161499E+02  3.527527180E+02  1.250000000E+02  0.00000E+00  9.000E+00
      21     1     1     2   511   501 -1.315324019E+01  7.073783325E+01 -2.614453170E+02  2.711650836E+02  3.814697266E-06  0.00000E+00  9.000E+00
#rwgt            1           1   3.3586298189205825E-002           6      234673           0
</event>
<event>
      5   9999  3.19816E-02  2.14493E+01 -1.00000E+00  1.63901E-01
       2    -1     0     0   502     0  0.000000000E+00  0.000000000E+00  2.138266496E+02  2.138266496E+02  0.000000000E+00  0.00000E+00  9.000E+00
      21    -1     0     0   501   502  0.000000000E+00  0.000000000E+00 -5.297433202E+02  5.297433202E+02  0.000000000E+00  0.00000E+00  9.000E+00
      25     1     1     2     0     0  2.509902639E+02 -1.245945525E+01 -2.768161284E+02  3.942125309E+02  1.250000000E+02  0.00000E+00  9.000E+00
      25     1     1     2     0     0 -2.394246975E+02  3.052350983E+01 -9.622381764E+01  2.883398923E+02  1.250000000E+02  0.00000E+00  9.000E+00
       2     1     1     2   501     0 -1.156556641E+01 -1.806405458E+01  5.712327540E+01  6.101754655E+01  9.536743164E-07  0.00000E+00  9.000E+00
#rwgt            1           1   2.7287138576348187E-002           6      234803           0
</event>
<event>
      5   9999  3.19816E-02  8.63692E+01 -1.00000E+00  1.26760E-01
      21    -1     0     0   502   511  0.000000000E+00  0.000000000E+00  8.079197424E+01  8.079197424E+01  0.000000000E+00  0.00000E+00  9.000E+00
      21    -1     0     0   501   502  0.000000000E+00  0.000000000E+00 -1.197980430E+03  1.197980430E+03  0.000000000E+00  0.00000E+00  9.000E+00
      25     1     1     2     0     0 -1.055511100E+02  1.178664019E+02 -2.046518626E+02  2.872993394E+02  1.250000000E+02  0.00000E+00  9.000E+00
      25     1     1     2     0     0  1.763203912E+02 -1.673774602E+02 -8.223681021E+02  8.666131720E+02  1.250000000E+02  0.00000E+00  9.000E+00
      21     1     1     2   501   511 -7.076928120E+01  4.951105831E+01 -9.016849074E+01  1.248598926E+02  1.907348633E-06  0.00000E+00  9.000E+00
#rwgt            1           1   2.7598660687211965E-002           6      235038           0
</event>
<event>
      5   9999  3.19816E-02  6.74566E+01 -1.00000E+00  1.32040E-01
      21    -1     0     0   502   512  0.000000000E+00  0.000000000E+00  2.714945610E+02  2.714945610E+02  0.000000000E+00  0.00000E+00  9.000E+00
      21    -1     0     0   501   502  0.000000000E+00  0.000000000E+00 -1.894072436E+02  1.894072436E+02  0.000000000E+00  0.00000E+00  9.000E+00
      25     1     1     2     0     0  6.556870088E+01  9.724666424E+01  6.006612768E+01  1.816290393E+02  1.250000000E+02  0.00000E+00  9.000E+00
      25     1     1     2     0     0 -1.328683580E+02 -9.264834755E+01 -9.480120723E+00  2.048233130E+02  1.250000000E+02  0.00000E+00  9.000E+00
      21     1     1     2   501   512  6.729965717E+01 -4.598316694E+00  3.150131042E+01  7.444945217E+01  1.011524364E-06  0.00000E+00  9.000E+00
#rwgt            1           1   2.8340028602719929E-002           6      235087           0
</event>
<event>
      5   9999  3.19816E-02  5.24412E+01 -1.00000E+00  1.37905E-01
      21    -1     0     0   502   501  0.000000000E+00  0.000000000E+00  1.191789646E+03  1.191789646E+03  0.000000000E+00  0.00000E+00  9.000E+00
      21    -1     0     0   501   511  0.000000000E+00  0.000000000E+00 -2.897878250E+02  2.897878250E+02  0.000000000E+00  0.00000E+00  9.000E+00
      25     1     1     2     0     0 -3.588352365E+00  5.012594313E+02  5.588514519E+02  7.610609956E+02  1.250000000E+02  0.00000E+00  9.000E+00
      25     1     1     2     0     0 -1.644640055E+01 -5.497226485E+02  3.554401835E+02  6.666544820E+02  1.250000000E+02  0.00000E+00  9.000E+00
      21     1     1     2   502   511  2.003475292E+01  4.846321716E+01 -1.228981482E+01  5.386199300E+01  1.359195024E-06  0.00000E+00  9.000E+00
#rwgt            1           1   2.9037995623588254E-002           6      235184           0
</event>
<event>
      5   9999  3.19816E-02  1.22647E+02 -1.00000E+00  1.19967E-01
      21    -1     0     0   502   501  0.000000000E+00  0.000000000E+00  1.322083738E+03  1.322083738E+03  0.000000000E+00  0.00000E+00  9.000E+00
      21    -1     0     0   501   512  0.000000000E+00  0.000000000E+00 -3.309660067E+02  3.309660067E+02  0.000000000E+00  0.00000E+00  9.000E+00
      25     1     1     2     0     0  4.655868735E+01  2.594416988E+02  1.117435704E+03  1.154887553E+03  1.250000000E+02  0.00000E+00  9.000E+00
      25     1     1     2     0     0 -1.280928479E+02 -1.678207385E+02  8.006808036E+01  2.580842409E+02  1.250000000E+02  0.00000E+00  9.000E+00
      21     1     1     2   502   512  8.153416053E+01 -9.162096031E+01 -2.063860531E+02  2.400779511E+02  2.697398305E-06  0.00000E+00  9.000E+00
#rwgt            1           1   2.7119011709636650E-002           6      235303           0
</event>
<event>
      5   9999  3.19816E-02  1.09519E+02 -1.00000E+00  1.22077E-01
      21    -1     0     0   502   501  0.000000000E+00  0.000000000E+00  2.746414142E+02  2.746414142E+02  0.000000000E+00  0.00000E+00  9.000E+00
      21    -1     0     0   501   511  0.000000000E+00  0.000000000E+00 -5.400628213E+02  5.400628213E+02  0.000000000E+00  0.00000E+00  9.000E+00
      25     1     1     2     0     0 -3.136088721E+02 -8.535277689E+01 -1.298521208E+02  3.716479442E+02  1.250000000E+02  0.00000E+00  9.000E+00
      25     1     1     2     0     0  2.050195127E+02  9.959243292E+01  1.088307257E+01  2.601828099E+02  1.250000000E+02  0.00000E+00  9.000E+00
      21     1     1     2   502   511  1.085893593E+02 -1.423965603E+01 -1.464523589E+02  1.828734814E+02  1.907348633E-06  0.00000E+00  9.000E+00
#rwgt            1           1   2.7450546450255835E-002           6      235412           0
</event>
<event>
      5   9999  3.19816E-02  1.32288E+02 -1.00000E+00  1.18598E-01
      21    -1     0     0   502   512  0.000000000E+00  0.000000000E+00  3.637801117E+02  3.637801117E+02  0.000000000E+00  0.00000E+00  9.000E+00
      21    -1     0     0   501   502  0.000000000E+00  0.000000000E+00 -1.030431985E+03  1.030431985E+03  0.000000000E+00  0.00000E+00  9.000E+00
      25     1     1     2     0     0 -1.643682405E+02 -4.645727674E+02 -2.635094046E+02  5.726316277E+02  1.250000000E+02  0.00000E+00  9.000E+00
      25     1     1     2     0     0  2.966526513E+02  4.635427370E+02 -3.953586945E+02  6.890632495E+02  1.250000000E+02  0.00000E+00  9.000E+00
      21     1     1     2   501   512 -1.322844108E+02  1.030030389E+00 -7.783774280E+00  1.325172195E+02  1.865920525E-06  0.00000E+00  9.000E+00
#rwgt            1           1   3.0838430807795261E-002           6      235470           0
</event>
<event>
      5   9999  3.19816E-02  3.20428E+01 -1.00000E+00  1.51079E-01
      21    -1     0     0   511   501  0.000000000E+00  0.000000000E+00  1.000913815E+03  1.000913815E+03  0.000000000E+00  0.00000E+00  9.000E+00
      21    -1     0     0   501   502  0.000000000E+00  0.000000000E+00 -4.562885756E+02  4.562885756E+02  0.000000000E+00  0.00000E+00  9.000E+00
      25     1     1     2     0     0  3.691613365E+02 -5.132686863E+02  1.585153559E+02  6.636843789E+02  1.250000000E+02  0.00000E+00  9.000E+00
      25     1     1     2     0     0 -3.427608889E+02  5.314279517E+02  3.191649314E+02  7.192996234E+02  1.250000000E+02  0.00000E+00  9.000E+00
      21     1     1     2   511   502 -2.640044761E+01 -1.815926534E+01  6.694495202E+01  7.421838824E+01  9.536743164E-07  0.00000E+00  9.000E+00
#rwgt            1           1   3.0394688677245544E-002           6      235576           0
</event>
<event>
      5   9999  3.19816E-02  3.38025E+01 -1.00000E+00  1.49525E-01
      21    -1     0     0   502   512  0.000000000E+00  0.000000000E+00  3.693610699E+02  3.693610699E+02  0.000000000E+00  0.00000E+00  9.000E+00
      21    -1     0     0   501   502  0.000000000E+00  0.000000000E+00 -1.068447951E+02  1.068447951E+02  0.000000000E+00  0.00000E+00  9.000E+00
      25     1     1     2     0     0 -4.318210529E+01  8.964656241E+01  2.810166444E+00  1.597939217E+02  1.250000000E+02  0.00000E+00  9.000E+00
      25     1     1     2     0     0  1.216839655E+01 -7.620187434E+01  2.137855822E+02  2.593917321E+02  1.250000000E+02  0.00000E+00  9.000E+00
      21     1     1     2   501   512  3.101370874E+01 -1.344468806E+01  4.592052620E+01  5.702021127E+01  9.536743164E-07  0.00000E+00  9.000E+00
#rwgt            1           1   3.0212080695558995E-002           6      235785           0
</event>
<event>
      5   9999  3.19816E-02  2.15239E+02 -1.00000E+00  1.10499E-01
      21    -1     0     0   502   511  0.000000000E+00  0.000000000E+00  1.384160160E+03  1.384160160E+03  0.000000000E+00  0.00000E+00  9.000E+00
      21    -1     0     0   501   502  0.000000000E+00  0.000000000E+00 -3.083880790E+02  3.083880790E+02  0.000000000E+00  0.00000E+00  9.000E+00
      25     1     1     2     0     0 -5.193772213E+02 -1.094558146E+02  8.371423515E+02  9.990823740E+02  1.250000000E+02  0.00000E+00  9.000E+00
      25     1     1     2     0     0  3.109461325E+02  1.631618172E+02  8.539632402E-01  3.727398626E+02  1.250000000E+02  0.00000E+00  9.000E+00
      21     1     1     2   501   511  2.084310888E+02 -5.370600262E+01  2.377757658E+02  3.207260019E+02  2.697398305E-06  0.00000E+00  9.000E+00
#rwgt            2          11   4.3985521894861932E-003           6      235944           0
</event>
<event>
      5   9999  3.19816E-02  3.63207E+01 -1.00000E+00  1.47488E-01
      21    -1     0     0   502   512  0.000000000E+00  0.000000000E+00  1.109932247E+03  1.109932247E+03  0.000000000E+00  0.00000E+00  9.000E+00
      21    -1     0     0   501   502  0.000000000E+00  0.000000000E+00 -2.172518540E+02  2.172518540E+02  0.000000000E+00  0.00000E+00  9.000E+00
      25     1     1     2     0     0  1.489006234E+02  3.412947373E+02  3.834174542E+02  5.488965636E+02  1.250000000E+02  0.00000E+00  9.000E+00
      25     1     1     2     0     0 -1.366299575E+02 -3.754799294E+02  1.948505295E+02  4.617842045E+02  1.250000000E+02  0.00000E+00  9.000E+00
      21     1     1     2   501   512 -1.227066596E+01  3.418519216E+01  3.144124092E+02  3.165033328E+02  0.000000000E+00  0.00000E+00  9.000E+00
#rwgt            1           1   2.8315249510017050E-002           6      235994           0
</event>
<event>
      5   9999  3.19816E-02  1.94266E+02 -1.00000E+00  1.12110E-01
      21    -1     0     0   511   501  0.000000000E+00  0.000000000E+00  5.273535647E+02  5.273535647E+02  0.000000000E+00  0.00000E+00  9.000E+00
      21    -1     0     0   501   502  0.000000000E+00  0.000000000E+00 -9.677194502E+02  9.677194502E+02  0.000000000E+00  0.00000E+00  9.000E+00
      25     1     1     2     0     0  6.366725127E+01 -6.455188739E+01 -8.706054716E+02  8.841941824E+02  1.250000000E+02  0.00000E+00  9.000E+00
      25     1     1     2     0     0 -1.835480069E+02 -8.831379799E+01  2.505679472E+02  3.462636192E+02  1.250000000E+02  0.00000E+00  9.000E+00
      21     1     1     2   511   502  1.198807557E+02  1.528656854E+02  1.796716389E+02  2.646152134E+02  0.000000000E+00  0.00000E+00  9.000E+00
#rwgt            1           1   2.9697499290124350E-002           6      236167           0
</event>
<event>
      5   9999  3.19816E-02  2.24662E+01 -1.00000E+00  1.62307E-01
      21    -1     0     0   502   501  0.000000000E+00  0.000000000E+00  4.591355469E+01  4.591355469E+01  0.000000000E+00  0.00000E+00  9.000E+00
      21    -1     0     0   501   512  0.000000000E+00  0.000000000E+00 -7.287991073E+02  7.287991073E+02  0.000000000E+00  0.00000E+00  9.000E+00
      25     1     1     2     0     0  2.649524645E+01 -9.906457809E+01 -2.931202863E+02  3.347540753E+02  1.250000000E+02  0.00000E+00  9.000E+00
      25     1     1     2     0     0 -4.876273508E+01  1.020463484E+02 -2.714788058E+02  3.195575121E+02  1.250000000E+02  0.00000E+00  9.000E+00
      21     1     1     2   502   512  2.226748863E+01 -2.981770349E+00 -1.182864605E+02  1.204010745E+02  1.348699152E-06  0.00000E+00  9.000E+00
#rwgt            1           1   2.9596122098998121E-002           6      236217           0
</event>
<event>
      5   9999  3.19816E-02  2.82356E+01 -1.00000E+00  1.54891E-01
      21    -1     0     0   502   501  0.000000000E+00  0.000000000E+00  1.697930993E+02  1.697930993E+02  0.000000000E+00  0.00000E+00  9.000E+00
      21    -1     0     0   501   511  0.000000000E+00  0.000000000E+00 -2.169436594E+02  2.169436594E+02  0.000000000E+00  0.00000E+00  9.000E+00
      25     1     1     2     0     0  3.977861847E+01 -1.171882983E+01  1.007809933E+02  1.658356960E+02  1.250000000E+02  0.00000E+00  9.000E+00
      25     1     1     2     0     0 -2.724506393E+01  3.702020839E+01 -1.356760455E+02  1.901204320E+02  1.250000000E+02  0.00000E+00  9.000E+00
      21     1     1     2   502   511 -1.253355455E+01 -2.530137856E+01 -1.225550799E+01  3.078063064E+01  2.920019320E-07  0.00000E+00  9.000E+00
#rwgt            1           1   3.4742867641126655E-002           6      236335           0
</event>
<event>
      5   9999  3.19816E-02  5.04044E+01 -1.00000E+00  1.38876E-01
      21    -1     0     0   502   512  0.000000000E+00  0.000000000E+00  6.337999671E+02  6.337999671E+02  0.000000000E+00  0.00000E+00  9.000E+00
      21    -1     0     0   501   502  0.000000000E+00  0.000000000E+00 -8.104990463E+02  8.104990463E+02  0.000000000E+00  0.00000E+00  9.000E+00
      25     1     1     2     0     0 -3.068845769E+02 -7.619902047E+01 -7.047585131E+02  7.824921699E+02  1.250000000E+02  0.00000E+00  9.000E+00
      25     1     1     2     0     0  3.233568504E+02  2.856218995E+01  4.733382739E+02  5.874092040E+02  1.250000000E+02  0.00000E+00  9.000E+00
      21     1     1     2   501   512 -1.647227350E+01  4.763683052E+01  5.472115992E+01  7.439763947E+01  1.168007728E-06  0.00000E+00  9.000E+00
#rwgt            1           1   2.7379933752270900E-002           6      236498           0
</event>
<event>
      5   9999  3.34011E-02  3.19857E+02  7.55638E-03  1.04695E-01
       1    -1     0     0   501     0  0.000000000E+00  0.000000000E+00  1.957009293E+03  1.957009293E+03  0.000000000E+00  0.00000E+00  9.000E+00
      -1    -1     0     0     0   502  0.000000000E+00  0.000000000E+00 -1.116205864E+03  1.116205864E+03  0.000000000E+00  0.00000E+00  9.000E+00
      25     1     1     2     0     0  1.270334170E+01  3.452886483E+02 -8.817367376E+02  9.552331129E+02  1.250000000E+02  0.00000E+00  9.000E+00
      25     1     1     2     0     0 -1.294750588E+01 -2.543135416E+01 -1.619382957E+02  2.065512123E+02  1.250000000E+02  0.00000E+00  9.000E+00
      21     1     1     2   501   502  2.441641773E-01 -3.198572941E+02  1.884478463E+03  1.911430832E+03  2.157918644E-05  0.00000E+00  9.000E+00
#rwgt            3           6   1.1369938133268438E-004           6      236682           0
</event>
<event>
      5   9999  3.19816E-02  4.53367E+01 -1.00000E+00  1.41546E-01
      21    -1     0     0   502   511  0.000000000E+00  0.000000000E+00  2.910749867E+02  2.910749867E+02  0.000000000E+00  0.00000E+00  9.000E+00
      21    -1     0     0   501   502  0.000000000E+00  0.000000000E+00 -6.440079347E+02  6.440079347E+02  0.000000000E+00  0.00000E+00  9.000E+00
      25     1     1     2     0     0  5.473378375E+01  2.281929405E+01 -4.109860417E+02  4.336485140E+02  1.250000000E+02  0.00000E+00  9.000E+00
      25     1     1     2     0     0 -8.797796409E+01 -5.364530513E+01 -1.897629973E+02  2.495053828E+02  1.250000000E+02  0.00000E+00  9.000E+00
      21     1     1     2   501   511  3.324418034E+01  3.082601108E+01  2.478160910E+02  2.519290246E+02  2.697398305E-06  0.00000E+00  9.000E+00
#rwgt            1           1   2.3634809632267367E-002           6      236701           0
</event>
<event>
      5   9999  3.19816E-02  1.36139E+02 -1.00000E+00  1.18087E-01
      21    -1     0     0   502   512  0.000000000E+00  0.000000000E+00  1.126982757E+03  1.126982757E+03  0.000000000E+00  0.00000E+00  9.000E+00
      21    -1     0     0   501   502  0.000000000E+00  0.000000000E+00 -3.602448933E+02  3.602448933E+02  0.000000000E+00  0.00000E+00  9.000E+00
      25     1     1     2     0     0  3.415497351E+02  3.673713981E+02  1.779596242E+02  5.467289946E+02  1.250000000E+02  0.00000E+00  9.000E+00
      25     1     1     2     0     0 -2.884132563E+02 -4.927127631E+02  4.019125703E+02  7.093002097E+02  1.250000000E+02  0.00000E+00  9.000E+00
      21     1     1     2   501   512 -5.313647880E+01  1.253413649E+02  1.868656694E+02  2.311984462E+02  3.814697266E-06  0.00000E+00  9.000E+00
#rwgt            1           1   3.0815714222830550E-002           6      236777           0
</event>
<event>
      5   9999  3.19816E-02  8.98832E+01 -1.00000E+00  1.25948E-01
      21    -1     0     0   502   501  0.000000000E+00  0.000000000E+00  4.812314417E+02  4.812314417E+02  0.000000000E+00  0.00000E+00  9.000E+00
      21    -1     0     0   511   502  0.000000000E+00  0.000000000E+00 -3.898991407E+02  3.898991407E+02  0.000000000E+00  0.00000E+00  9.000E+00
      25     1     1     2     0     0 -3.451538942E+02 -4.986774711E+01  9.614838968E+01  3.827368753E+02  1.250000000E+02  0.00000E+00  9.000E+00
      25     1     1     2     0     0  3.298961672E+02  1.384464991E+02  5.129640925E+01  3.824333091E+02  1.250000000E+02  0.00000E+00  9.000E+00
      21     1     1     2   511   501  1.525772696E+01 -8.857875202E+01 -5.611249786E+01  1.059603981E+02  9.536743164E-07  0.00000E+00  9.000E+00
#rwgt            1           1   3.0238379160326085E-002           6      236836           0
</event>
<event>
      5   9999  3.57065E-02  7.82689E+01 -1.00000E+00  1.28811E-01
      21    -1     0     0   502   501  0.000000000E+00  0.000000000E+00  2.047090509E+03  2.047090509E+03  0.000000000E+00  0.00000E+00  9.000E+00
      21    -1     0     0   501   512  0.000000000E+00  0.000000000E+00 -2.859654113E+02  2.859654113E+02  0.000000000E+00  0.00000E+00  9.000E+00
      25     1     1     2     0     0 -1.775114810E+02  1.039785593E+01  5.004200233E+02  5.455855946E+02  1.250000000E+02  0.00000E+00  9.000E+00
      25     1     1     2     0     0  1.720525948E+02  6.768043520E+01  1.509883651E+03  1.526288432E+03  1.250000000E+02  0.00000E+00  9.000E+00
      21     1     1     2   502   512  5.458886157E+00 -7.807829113E+01 -2.491785764E+02  2.611818944E+02  7.136645101E-06  0.00000E+00  9.000E+00
#rwgt            1           1   9.9389443788027096E-002           6      236932           0
</event>
<event>
      5   9999  3.19816E-02  1.95921E+01 -1.00000E+00  1.67111E-01
      21    -1     0     0   511   501  0.000000000E+00  0.000000000E+00  1.265020144E+03  1.265020144E+03  0.000000000E+00  0.00000E+00  9.000E+00
      21    -1     0     0   501   502  0.000000000E+00  0.000000000E+00 -1.397948140E+02  1.397948140E+02  0.000000000E+00  0.00000E+00  9.000E+00
      25     1     1     2     0     0 -2.381140384E+02 -1.000144279E+02  6.672323948E+01  2.945813500E+02  1.250000000E+02  0.00000E+00  9.000E+00
      25     1     1     2     0     0  2.576184333E+02  1.018659466E+02  8.871576313E+02  9.377726756E+02  1.250000000E+02  0.00000E+00  9.000E+00
      21     1     1     2   511   502 -1.950439490E+01 -1.851518761E+00  1.713444589E+02  1.724609322E+02  1.907348633E-06  0.00000E+00  9.000E+00
#rwgt            1           1   2.7371106842935870E-002           6      237035           0
</event>
<event>
      5   9999  3.19816E-02  4.87393E+00 -1.00000E+00  2.44762E-01
       1    -1     0     0   502     0  0.000000000E+00  0.000000000E+00  1.742937004E+03  1.742937004E+03  0.000000000E+00  0.00000E+00  9.000E+00
      21    -1     0     0   501   502  0.000000000E+00  0.000000000E+00 -2.863706941E+01  2.863706941E+01  0.000000000E+00  0.00000E+00  9.000E+00
      25     1     1     2     0     0 -1.317377461E+01 -4.398034670E+01  8.735829565E+02  8.836741487E+02  1.250000000E+02  0.00000E+00  9.000E+00
      25     1     1     2     0     0  1.175222864E+01  3.931832566E+01  1.599099028E+02  2.070754032E+02  1.250000000E+02  0.00000E+00  9.000E+00
       1     1     1     2   501     0  1.421545971E+00  4.662021047E+00  6.808070756E+02  6.808245218E+02  1.525878906E-05  0.00000E+00  9.000E+00
#rwgt            1           1   3.3219454083844975E-002           6      237201           0
</event>
<event>
      5   9999  3.19816E-02  1.25224E+02 -1.00000E+00  1.19588E-01
      21    -1     0     0   502   511  0.000000000E+00  0.000000000E+00  3.654843247E+02  3.654843247E+02  0.000000000E+00  0.00000E+00  9.000E+00
      21    -1     0     0   501   502  0.000000000E+00  0.000000000E+00 -1.130165602E+03  1.130165602E+03  0.000000000E+00  0.00000E+00  9.000E+00
      25     1     1     2     0     0  2.470821741E+01  7.464936052E+01 -1.848801060E+02  2.366192651E+02  1.250000000E+02  0.00000E+00  9.000E+00
      25     1     1     2     0     0  5.922688119E+01 -1.675797371E+02 -8.944044620E+02  9.204211718E+02  1.250000000E+02  0.00000E+00  9.000E+00
      21     1     1     2   501   511 -8.393509860E+01  9.293037662E+01  3.146032910E+02  3.386094895E+02  6.607249480E-06  0.00000E+00  9.000E+00
#rwgt            1           1   3.2659298575098888E-002           6      237471           0
</event>
<event>
      5   9999  3.19816E-02  7.39932E+01 -1.00000E+00  1.30012E-01
      21    -1     0     0   502   512  0.000000000E+00  0.000000000E+00  1.484225899E+02  1.484225899E+02  0.000000000E+00  0.00000E+00  9.000E+00
      21    -1     0     0   501   502  0.000000000E+00  0.000000000E+00 -4.334629983E+02  4.334629983E+02  0.000000000E+00  0.00000E+00  9.000E+00
      25     1     1     2     0     0  8.250147755E+01 -6.418053302E+01 -2.413065149E+02  2.911691412E+02  1.250000000E+02  0.00000E+00  9.000E+00
      25     1     1     2     0     0 -1.562226346E+02  7.051936215E+01 -4.432235296E+01  2.167209334E+02  1.250000000E+02  0.00000E+00  9.000E+00
      21     1     1     2   501   512  7.372115706E+01 -6.338829128E+00  5.884594822E-01  7.399551363E+01  1.545649836E-06  0.00000E+00  9.000E+00
#rwgt            1           1   2.4567292634743099E-002           6      237519           0
</event>
<event>
      5   9999  3.19816E-02  4.52135E+01 -1.00000E+00  1.41616E-01
      21    -1     0     0   502   501  0.000000000E+00  0.000000000E+00  2.224529031E+02  2.224529031E+02  0.000000000E+00  0.00000E+00  9.000E+00
      21    -1     0     0   501   511  0.000000000E+00  0.000000000E+00 -2.380833950E+02  2.380833950E+02  0.000000000E+00  0.00000E+00  9.000E+00
      25     1     1     2     0     0  5.102632712E+00  1.353145471E+02 -6.034017747E+01  1.939123527E+02  1.250000000E+02  0.00000E+00  9.000E+00
      25     1     1     2     0     0  2.085465946E+01 -1.723345434E+02  5.364094727E+01  2.205367609E+02  1.250000000E+02  0.00000E+00  9.000E+00
      21     1     1     2   502   511 -2.595729217E+01  3.701999638E+01 -8.931261704E+00  4.608718460E+01  8.429369702E-07  0.00000E+00  9.000E+00
#rwgt            1           1   2.8300438796840414E-002           6      237567           0
</event>
<event>
      5   9999  3.19816E-02  3.17468E+01 -1.00000E+00  1.51352E-01
      21    -1     0     0   502   501  0.000000000E+00  0.000000000E+00  1.294672840E+02  1.294672840E+02  0.000000000E+00  0.00000E+00  9.000E+00
      21    -1     0     0   512   502  0.000000000E+00  0.000000000E+00 -2.725825430E+03  2.725825430E+03  0.000000000E+00  0.00000E+00  9.000E+00
      25     1     1     2     0     0 -4.588318738E+02 -2.144570086E+01 -4.473015976E+02  6.532153747E+02  1.250000000E+02  0.00000E+00  9.000E+00
      25     1     1     2     0     0  4.276978787E+02  2.765302245E+01 -2.050301233E+03  2.098344660E+03  1.250000000E+02  0.00000E+00  9.000E+00
      21     1     1     2   512   501  3.113399511E+01 -6.207321585E+00 -9.875531544E+01  1.037326796E+02  1.348699152E-06  0.00000E+00  9.000E+00
#rwgt            1           1   8.2326693499640113E-002           6      237677           0
</event>
<event>
      5   9999  3.19816E-02  4.43162E+01 -1.00000E+00  1.42133E-01
      21    -1     0     0   502   501  0.000000000E+00  0.000000000E+00  4.702648173E+02  4.702648173E+02  0.000000000E+00  0.00000E+00  9.000E+00
      21    -1     0     0   511   502  0.000000000E+00  0.000000000E+00 -3.962951216E+02  3.962951216E+02  0.000000000E+00  0.00000E+00  9.000E+00
      25     1     1     2     0     0 -4.423358844E+01 -3.757932504E+02  1.672204830E+02  4.321630102E+02  1.250000000E+02  0.00000E+00  9.000E+00
      25     1     1     2     0     0  7.395806696E+01  3.429240770E+02 -5.619420020E+01  3.766291364E+02  1.250000000E+02  0.00000E+00  9.000E+00
      21     1     1     2   511   501 -2.972447851E+01  3.286917342E+01 -3.705658702E+01  5.776779228E+01  1.348699152E-06  0.00000E+00  9.000E+00
#rwgt            1           1   2.8011242092735360E-002           6      237847           0
</event>
<event>
      5   9999  3.19816E-02  1.35852E+01 -1.00000E+00  1.81535E-01
      21    -1     0     0   502   501  0.000000000E+00  0.000000000E+00  2.465829722E+02  2.465829722E+02  0.000000000E+00  0.00000E+00  9.000E+00
      21    -1     0     0   512   502  0.000000000E+00  0.000000000E+00 -7.200434143E+02  7.200434143E+02  0.000000000E+00  0.00000E+00  9.000E+00
      25     1     1     2     0     0  9.321755435E+01 -3.231129237E+02 -1.040011367E+01  3.589214904E+02  1.250000000E+02  0.00000E+00  9.000E+00
      25     1     1     2     0     0 -1.049014695E+02  3.300443512E+02 -4.018939407E+02  5.450480086E+02  1.250000000E+02  0.00000E+00  9.000E+00
      21     1     1     2   512   501  1.168391516E+01 -6.931427484E+00 -6.116638778E+01  6.265688752E+01  9.536743164E-07  0.00000E+00  9.000E+00
#rwgt            2          11   1.1864759762374216E-003           6      237995           0
</event>
<event>
      5   9999  3.19816E-02  1.56693E+01 -1.00000E+00  1.75616E-01
      21    -1     0     0   502   501  0.000000000E+00  0.000000000E+00  3.734007196E+02  3.734007196E+02  0.000000000E+00  0.00000E+00  9.000E+00
       2    -1     0     0   501     0  0.000000000E+00  0.000000000E+00 -3.862109489E+03  3.862109489E+03  0.000000000E+00  0.00000E+00  9.000E+00
      25     1     1     2     0     0  2.757301259E+02  2.962010985E+02 -3.238546527E+02  5.331688561E+02  1.250000000E+02  0.00000E+00  9.000E+00
      25     1     1     2     0     0 -2.815218471E+02 -2.816414369E+02  1.066618328E+02  4.307878782E+02  1.250000000E+02  0.00000E+00  9.000E+00
       2     1     1     2   502     0  5.791721248E+00 -1.455966153E+01 -3.271515949E+03  3.271553474E+03  4.315837288E-05  0.00000E+00  9.000E+00
#rwgt            1           1   2.7301524279759671E-002           6      238015           0
</event>
<event>
      5   9999  3.19816E-02  3.53856E+02 -1.00000E+00  1.03313E-01
      21    -1     0     0   502   501  0.000000000E+00  0.000000000E+00  1.165870572E+03  1.165870572E+03  0.000000000E+00  0.00000E+00  9.000E+00
      21    -1     0     0   501   511  0.000000000E+00  0.000000000E+00 -1.113404464E+03  1.113404464E+03  0.000000000E+00  0.00000E+00  9.000E+00
      25     1     1     2     0     0 -3.951657375E+02 -5.943994262E+02  1.397808387E+02  7.379907322E+02  1.250000000E+02  0.00000E+00  9.000E+00
      25     1     1     2     0     0  7.480644616E+02  5.683851001E+02  3.212881276E+02  1.000756275E+03  1.250000000E+02  0.00000E+00  9.000E+00
      21     1     1     2   502   511 -3.528987241E+02  2.601432614E+01 -4.086028585E+02  5.405280294E+02  1.078959322E-05  0.00000E+00  9.000E+00
#rwgt            1           1   2.5117630214368140E-002           6      238185           0
</event>
<event>
      5   9999  3.19816E-02  4.97752E+01 -1.00000E+00  1.39187E-01
      21    -1     0     0   502   501  0.000000000E+00  0.000000000E+00  2.185562160E+02  2.185562160E+02  0.000000000E+00  0.00000E+00  9.000E+00
      21    -1     0     0   501   512  0.000000000E+00  0.000000000E+00 -3.078348521E+02  3.078348521E+02  0.000000000E+00  0.00000E+00  9.000E+00
      25     1     1     2     0     0  1.577228816E+02  2.953847761E+01  7.775690384E+01  2.177617164E+02  1.250000000E+02  0.00000E+00  9.000E+00
      25     1     1     2     0     0 -1.290099283E+02  1.112033051E+01 -5.853784084E+01  1.892588232E+02  1.250000000E+02  0.00000E+00  9.000E+00
      21     1     1     2   502   512 -2.871295329E+01 -4.065880812E+01 -1.084976991E+02  1.193705285E+02  1.907348633E-06  0.00000E+00  9.000E+00
#rwgt            1           1   2.7704111150433204E-002           6      238255           0
</event>
<event>
      5   9999  3.19816E-02  7.93285E+01 -1.00000E+00  1.28527E-01
      -1    -1     0     0     0   501  0.000000000E+00  0.000000000E+00  1.478462079E+03  1.478462079E+03  0.000000000E+00  0.00000E+00  9.000E+00
      21    -1     0     0   501   502  0.000000000E+00  0.000000000E+00 -8.755892420E+02  8.755892420E+02  0.000000000E+00  0.00000E+00  9.000E+00
      25     1     1     2     0     0  6.750826539E+02 -4.470459690E+01 -5.089821112E+02  8.558170833E+02  1.250000000E+02  0.00000E+00  9.000E+00
      25     1     1     2     0     0 -6.076488835E+02  8.648623317E+01  3.217871920E+02  7.041938874E+02  1.250000000E+02  0.00000E+00  9.000E+00
      -1     1     1     2     0   502 -6.743377041E+01 -4.178163627E+01  7.900677564E+02  7.940403505E+02  1.078959322E-05  0.00000E+00  9.000E+00
#rwgt            2           5   1.6685018410486698E-004           6      238566           0
</event>
<event>
      5   9999  3.19816E-02  4.44708E+01 -1.00000E+00  1.42043E-01
      21    -1     0     0   502   501  0.000000000E+00  0.000000000E+00  7.347648247E+02  7.347648247E+02  0.000000000E+00  0.00000E+00  9.000E+00
      21    -1     0     0   501   511  0.000000000E+00  0.000000000E+00 -9.774661624E+01  9.774661624E+01  0.000000000E+00  0.00000E+00  9.000E+00
      25     1     1     2     0     0 -1.075973390E+02  8.612092551E+01  1.921204759E+02  2.674495811E+02  1.250000000E+02  0.00000E+00  9.000E+00
      25     1     1     2     0     0  1.519360592E+02 -8.954562911E+01  4.675876650E+02  5.151370791E+02  1.250000000E+02  0.00000E+00  9.000E+00
      21     1     1     2   502   511 -4.433872016E+01  3.424703600E+00 -2.268993246E+01  4.992478078E+01  1.215700987E-06  0.00000E+00  9.000E+00
#rwgt            1           1   3.2508217261494242E-002           6      238615           0
</event>
<event>
      5   9999  3.19816E-02  1.27930E+02 -1.00000E+00  1.19200E-01
      21    -1     0     0   502   501  0.000000000E+00  0.000000000E+00  8.331940610E+02  8.331940610E+02  0.000000000E+00  0.00000E+00  9.000E+00
      21    -1     0     0   501   512  0.000000000E+00  0.000000000E+00 -3.956150314E+02  3.956150314E+02  0.000000000E+00  0.00000E+00  9.000E+00
      25     1     1     2     0     0 -8.404920519E+01  3.443769690E+02  4.311879806E+02  5.720208391E+02  1.250000000E+02  0.00000E+00  9.000E+00
      25     1     1     2     0     0  2.113632417E+02 -3.318422084E+02  1.722597214E+02  4.473165354E+02  1.250000000E+02  0.00000E+00  9.000E+00
      21     1     1     2   502   512 -1.273140365E+02 -1.253476063E+01 -1.658686724E+02  2.094717179E+02  4.672030912E-06  0.00000E+00  9.000E+00
#rwgt            2          11   3.4609292666826956E-003           6      238754           0
</event>
<event>
      5   9999  3.19816E-02  3.70307E+01 -1.00000E+00  1.46949E-01
      21    -1     0     0   502   501  0.000000000E+00  0.000000000E+00  6.587554743E+02  6.587554743E+02  0.000000000E+00  0.00000E+00  9.000E+00
      21    -1     0     0   511   502  0.000000000E+00  0.000000000E+00 -1.226253172E+02  1.226253172E+02  0.000000000E+00  0.00000E+00  9.000E+00
      25     1     1     2     0     0 -1.687318338E+01 -2.112502422E+02  3.896576335E+02  4.608355894E+02  1.250000000E+02  0.00000E+00  9.000E+00
      25     1     1     2     0     0 -2.015214117E+01  2.106199011E+02  1.124320745E+02  2.702458565E+02  1.250000000E+02  0.00000E+00  9.000E+00
      21     1     1     2   511   501  3.702532455E+01  6.303410496E-01  3.404044916E+01  5.029934559E+01  9.536743164E-07  0.00000E+00  9.000E+00
#rwgt            1           1   2.9523212392222768E-002           6      238774           0
</event>
<event>
      5   9999  3.19816E-02  4.98149E+01 -1.00000E+00  1.39167E-01
      21    -1     0     0   502   501  0.000000000E+00  0.000000000E+00  4.841318501E+01  4.841318501E+01  0.000000000E+00  0.00000E+00  9.000E+00
      21    -1     0     0   501   512  0.000000000E+00  0.000000000E+00 -2.225402447E+03  2.225402447E+03  0.000000000E+00  0.00000E+00  9.000E+00
      25     1     1     2     0     0  8.969112191E+01 -1.435980659E+02 -2.348610229E+02  3.153563095E+02  1.250000000E+02  0.00000E+00  9.000E+00
      25     1     1     2     0     0 -4.090621035E+01  1.536757183E+02 -1.595097710E+03  1.607871652E+03  1.250000000E+02  0.00000E+00  9.000E+00
      21     1     1     2   502   512 -4.878491156E+01 -1.007765241E+01 -3.470305292E+02  3.505876708E+02  6.607249480E-06  0.00000E+00  9.000E+00
#rwgt            1           1   2.5808713021120061E-002           6      238931           0
</event>
<event>
      5   9999  3.19816E-02  6.59806E+01 -1.00000E+00  1.32535E-01
       1    -1     0     0   502     0  0.000000000E+00  0.000000000E+00  2.672127005E+03  2.672127005E+03  0.000000000E+00  0.00000E+00  9.000E+00
      21    -1     0     0   501   502  0.000000000E+00  0.000000000E+00 -1.363924795E+02  1.363924795E+02  0.000000000E+00  0.00000E+00  9.000E+00
      25     1     1     2     0     0 -4.272690604E+02 -5.557558582E+01  7.948385590E+02  9.127107047E+02  1.250000000E+02  0.00000E+00  9.000E+00
      25     1     1     2     0     0  4.828342065E+02  9.115577978E+01  7.654738525E+02  9.181576477E+02  1.250000000E+02  0.00000E+00  9.000E+00
       1     1     1     2   501     0 -5.556514610E+01 -3.558019396E+01  9.754221144E+02  9.776511325E+02  1.525878906E-05  0.00000E+00  9.000E+00
#rwgt            1           1   9.8888479348819905E-003           6      239025           0
</event>
<event>
      5   9999  3.19816E-02  4.98320E+01 -1.00000E+00  1.39159E-01
      21    -1     0     0   511   501  0.000000000E+00  0.000000000E+00  4.456669260E+02  4.456669260E+02  0.000000000E+00  0.00000E+00  9.000E+00
      21    -1     0     0   501   502  0.000000000E+00  0.000000000E+00 -2.013076876E+02  2.013076876E+02  0.000000000E+00  0.00000E+00  9.000E+00
      25     1     1     2     0     0  6.006331657E+01 -2.239529068E+02  1.249196108E+02  2.915345874E+02  1.250000000E+02  0.00000E+00  9.000E+00
      25     1     1     2     0     0 -1.069141818E+02  2.069756835E+02  4.856364270E+01  2.687991875E+02  1.250000000E+02  0.00000E+00  9.000E+00
      21     1     1     2   511   502  4.685086521E+01  1.697722335E+01  7.087598491E+01  8.664083864E+01  1.651812370E-06  0.00000E+00  9.000E+00
#rwgt            1           1   2.7466595724121599E-002           6      239118           0
</event>
<event>
      5   9999  3.19816E-02  5.79696E+01 -1.00000E+00  1.35507E-01
      21    -1     0     0   502   501  0.000000000E+00  0.000000000E+00  3.572116001E+02  3.572116001E+02  0.000000000E+00  0.00000E+00  9.000E+00
      21    -1     0     0   501   512  0.000000000E+00  0.000000000E+00 -7.430766762E+02  7.430766762E+02  0.000000000E+00  0.00000E+00  9.000E+00
      25     1     1     2     0     0  7.026430952E+01 -2.588816906E+02 -4.028195533E+02  4.998453715E+02  1.250000000E+02  0.00000E+00  9.000E+00
      25     1     1     2     0     0 -1.168254483E+02  2.934148059E+02  2.096967176E+02  3.991718265E+02  1.250000000E+02  0.00000E+00  9.000E+00
      21     1     1     2   502   512  4.656113878E+01 -3.453311527E+01 -1.927422405E+02  2.012710783E+02  0.000000000E+00  0.00000E+00  9.000E+00
#rwgt            1           1   2.4734679201653106E-002           6      239182           0
</event>
<event>
      5   9999  3.19816E-02  7.82662E+01 -1.00000E+00  1.28812E-01
      -2    -1     0     0     0   501  0.000000000E+00  0.000000000E+00  3.208016933E+02  3.208016933E+02  0.000000000E+00  0.00000E+00  9.000E+00
      21    -1     0     0   501   502  0.000000000E+00  0.000000000E+00 -2.458144122E+02  2.458144122E+02  0.000000000E+00  0.00000E+00  9.000E+00
      25     1     1     2     0     0  2.070177143E+02 -3.671070059E+01  7.768023251E+01  2.566383215E+02  1.250000000E+02  0.00000E+00  9.000E+00
      25     1     1     2     0     0 -1.904508042E+02 -3.978202714E+01 -9.225118167E+00  2.314394550E+02  1.250000000E+02  0.00000E+00  9.000E+00
      -2     1     1     2     0   502 -1.656691006E+01  7.649272773E+01  6.532166769E+00  7.853832891E+01  8.800520337E-07  0.00000E+00  9.000E+00
#rwgt            1           1   2.7761027226154710E-002           6      239287           0
</event>
<event>
      5   9999  3.19816E-02  1.35999E+02 -1.00000E+00  1.18105E-01
      21    -1     0     0   502   511  0.000000000E+00  0.000000000E+00  2.505144045E+02  2.505144045E+02  0.000000000E+00  0.00000E+00  9.000E+00
      21    -1     0     0   501   502  0.000000000E+00  0.000000000E+00 -7.280581524E+02  7.280581524E+02  0.000000000E+00  0.00000E+00  9.000E+00
      25     1     1     2     0     0 -1.508491984E+02  1.810056756E+02 -4.055182773E+02  4.853747094E+02  1.250000000E+02  0.00000E+00  9.000E+00
      25     1     1     2     0     0  9.786854166E+01 -3.062607733E+02 -1.374184651E+01  3.452357905E+02  1.250000000E+02  0.00000E+00  9.000E+00
      21     1     1     2   501   511  5.298065672E+01  1.252550978E+02 -5.828362404E+01  1.479620571E+02  2.236564522E-06  0.00000E+00  9.000E+00
#rwgt            1           1   3.1770417683336889E-002           6      239367           0
</event>
<event>
      5   9999  3.19816E-02  6.93777E+01 -1.00000E+00  1.31417E-01
      21    -1     0     0   502   512  0.000000000E+00  0.000000000E+00  8.688991958E+02  8.688991958E+02  0.000000000E+00  0.00000E+00  9.000E+00
      21    -1     0     0   501   502  0.000000000E+00  0.000000000E+00 -3.457765382E+02  3.457765382E+02  0.000000000E+00  0.00000E+00  9.000E+00
      25     1     1     2     0     0  6.625874404E+01  4.942357889E+01  7.770696586E+02  7.913881258E+02  1.250000000E+02  0.00000E+00  9.000E+00
      25     1     1     2     0     0 -1.149901416E+02 -4.226169423E-02 -2.966422584E+02  3.418250487E+02  1.250000000E+02  0.00000E+00  9.000E+00
      21     1     1     2   501   512  4.873139754E+01 -4.938131720E+01  4.269525744E+01  8.146255951E+01  1.719260824E-06  0.00000E+00  9.000E+00
#rwgt            1           1   2.8613534058550560E-002           6      239448           0
</event>
<event>
      5   9999  3.19816E-02  3.14141E+01 -1.00000E+00  1.51663E-01
      21    -1     0     0   511   501  0.000000000E+00  0.000000000E+00  2.152329413E+02  2.152329413E+02  0.000000000E+00  0.00000E+00  9.000E+00
      21    -1     0     0   501   502  0.000000000E+00  0.000000000E+00 -8.349304090E+02  8.349304090E+02  0.000000000E+00  0.00000E+00  9.000E+00
      25     1     1     2     0     0 -4.489453697E+01  2.949822397E+02 -1.324330915E+01  3.237752715E+02  1.250000000E+02  0.00000E+00  9.000E+00
      25     1     1     2     0     0  7.205648270E+01 -2.792001464E+02 -6.176741131E+02  6.930304239E+02  1.250000000E+02  0.00000E+00  9.000E+00
      21     1     1     2   511   502 -2.716194573E+01 -1.578209333E+01  1.121995447E+01  3.335765496E+01  4.616955931E-07  0.00000E+00  9.000E+00
#rwgt            1           1   2.8393737540531504E-002           6      239499           0
</event>
<event>
      5   9999  3.19816E-02  1.14981E+02 -1.00000E+00  1.21161E-01
      21    -1     0     0   502   512  0.000000000E+00  0.000000000E+00  1.352752977E+03  1.352752977E+03  0.000000000E+00  0.00000E+00  9.000E+00
      21    -1     0     0   501   502  0.000000000E+00  0.000000000E+00 -4.555791751E+02  4.555791751E+02  0.000000000E+00  0.00000E+00  9.000E+00
      25     1     1     2     0     0  3.084658617E+02 -1.384756084E+02 -3.511171350E+02  5.032245269E+02  1.250000000E+02  0.00000E+00  9.000E+00
      25     1     1     2     0     0 -2.261611843E+02  5.818532234E+01  9.132156722E+02  9.508534467E+02  1.250000000E+02  0.00000E+00  9.000E+00
      21     1     1     2   501   512 -8.230467739E+01  8.029028601E+01  3.350752649E+02  3.542541786E+02  6.607249480E-06  0.00000E+00  9.000E+00
#rwgt            1           1   2.2752045860113673E-002           6      239670           0
</event>
<event>
      5   9999  3.19816E-02  1.28066E+02 -1.00000E+00  1.19181E-01
      21    -1     0     0   502   501  0.000000000E+00  0.000000000E+00  2.579243575E+03  2.579243575E+03  0.000000000E+00  0.00000E+00  9.000E+00
      21    -1     0     0   501   511  0.000000000E+00  0.000000000E+00 -8.735979850E+02  8.735979850E+02  0.000000000E+00  0.00000E+00  9.000E+00
      25     1     1     2     0     0 -1.657003569E+02  5.257377598E+02  6.764200040E+02  8.814906818E+02  1.250000000E+02  0.00000E+00  9.000E+00
      25     1     1     2     0     0  2.067334627E+02 -6.470523375E+02  1.728009183E+03  1.860928851E+03  1.250000000E+02  0.00000E+00  9.000E+00
      21     1     1     2   502   511 -4.103310579E+01  1.213145777E+02 -6.987835965E+02  7.104220276E+02  1.321449896E-05  0.00000E+00  9.000E+00
#rwgt            1           1   2.1221715277730986E-002           6      239756           0
</event>
<event>
      5   9999  3.19816E-02  8.14526E+00 -1.00000E+00  2.06654E-01
      21    -1     0     0   502   501  0.000000000E+00  0.000000000E+00  1.381632842E+02  1.381632842E+02  0.000000000E+00  0.00000E+00  9.000E+00
      21    -1     0     0   501   512  0.000000000E+00  0.000000000E+00 -6.391423543E+02  6.391423543E+02  0.000000000E+00  0.00000E+00  9.000E+00
      25     1     1     2     0     0 -1.801831711E+02  2.353630223E+01 -4.522073245E+02  5.031266212E+02  1.250000000E+02  0.00000E+00  9.000E+00
      25     1     1     2     0     0  1.732603868E+02 -1.924441783E+01  1.009893910E+01  2.147475211E+02  1.250000000E+02  0.00000E+00  9.000E+00
      21     1     1     2   502   512  6.922784307E+00 -4.291884396E+00 -5.887068473E+01  5.943149615E+01  1.168007728E-06  0.00000E+00  9.000E+00
#rwgt            1           1   1.7992464761536830E-002           6      239829           0
</event>
<event>
      5   9999  3.19816E-02  2.09489E+01 -1.00000E+00  1.64725E-01
      21    -1     0     0   511   501  0.000000000E+00  0.000000000E+00  3.049887616E+02  3.049887616E+02  0.000000000E+00  0.00000E+00  9.000E+00
      21    -1     0     0   501   502  0.000000000E+00  0.000000000E+00 -9.179617416E+02  9.179617416E+02  0.000000000E+00  0.00000E+00  9.000E+00
      25     1     1     2     0     0 -9.417591292E+01  2.454155464E+02 -2.239970124E+02  3.672840244E+02  1.250000000E+02  0.00000E+00  9.000E+00
      25     1     1     2     0     0  9.499238551E+01 -2.663485074E+02 -5.833229436E+02  6.601937119E+02  1.250000000E+02  0.00000E+00  9.000E+00
      21     1     1     2   511   502 -8.164725947E-01  2.093296101E+01  1.943469760E+02  1.954727669E+02  3.814697266E-06  0.00000E+00  9.000E+00
#rwgt            1           1   2.8394891410549732E-002           6      240140           0
</event>
<event>
      5   9999  3.19816E-02  8.09654E+01 -1.00000E+00  1.28098E-01
       1    -1     0     0   502     0  0.000000000E+00  0.000000000E+00  3.382697460E+03  3.382697460E+03  0.000000000E+00  0.00000E+00  9.000E+00
      21    -1     0     0   501   502  0.000000000E+00  0.000000000E+00 -4.130640447E+02  4.130640447E+02  0.000000000E+00  0.00000E+00  9.000E+00
      25     1     1     2     0     0 -6.809618486E+02 -6.224176079E+02  3.485040876E+02  9.940788786E+02  1.250000000E+02  0.00000E+00  9.000E+00
      25     1     1     2     0     0  6.083724525E+02  5.865543917E+02  1.993211698E+03  2.168566570E+03  1.250000000E+02  0.00000E+00  9.000E+00
       1     1     1     2   501     0  7.258939610E+01  3.586321622E+01  6.279176305E+02  6.331160568E+02  1.321449896E-05  0.00000E+00  9.000E+00
#rwgt            1           1   3.3504967519780535E-002           6      240327           0
</event>
<event>
      5   9999  3.19816E-02  3.54831E+02 -1.00000E+00  1.03276E-01
      21    -1     0     0   502   501  0.000000000E+00  0.000000000E+00  1.405783610E+03  1.405783610E+03  0.000000000E+00  0.00000E+00  9.000E+00
      21    -1     0     0   501   511  0.000000000E+00  0.000000000E+00 -2.862441992E+02  2.862441992E+02  0.000000000E+00  0.00000E+00  9.000E+00
      25     1     1     2     0     0 -2.154985188E+02  1.973717429E+02  6.808250763E+02  7.513607662E+02  1.250000000E+02  0.00000E+00  9.000E+00
      25     1     1     2     0     0 -7.937206420E+01 -3.947447192E+02  4.043711059E+02  5.841783197E+02  1.250000000E+02  0.00000E+00  9.000E+00
      21     1     1     2   502   511  2.948705830E+02  1.973729763E+02  3.434322870E+01  3.564887233E+02  6.793883728E-06  0.00000E+00  9.000E+00
#rwgt            1           1   3.0670655844529101E-002           6      240504           0
</event>
<event>
      5   9999  3.19816E-02  1.38005E+02 -1.00000E+00  1.17846E-01
      21    -1     0     0   502   501  0.000000000E+00  0.000000000E+00  7.054664453E+02  7.054664453E+02  0.000000000E+00  0.00000E+00  9.000E+00
      -2    -1     0     0     0   502  0.000000000E+00  0.000000000E+00 -1.190680418E+03  1.190680418E+03  0.000000000E+00  0.00000E+00  9.000E+00
      25     1     1     2     0     0  6.727854288E+01  1.482582929E+02 -6.721540704E+02  7.027965695E+02  1.250000000E+02  0.00000E+00  9.000E+00
      25     1     1     2     0     0 -1.302314676E+01 -2.136618227E+01  6.745999487E+02  6.865392974E+02  1.250000000E+02  0.00000E+00  9.000E+00
      -2     1     1     2     0   501 -5.425539613E+01 -1.268921107E+02 -4.876598513E+02  5.068109967E+02  0.000000000E+00  0.00000E+00  9.000E+00
#rwgt            1           1   2.2338416370386891E-002           6      240534           0
</event>
<event>
      5   9999  3.19816E-02  1.42748E+01 -1.00000E+00  1.79435E-01
      21    -1     0     0   502   511  0.000000000E+00  0.000000000E+00  5.570502345E+02  5.570502345E+02  0.000000000E+00  0.00000E+00  9.000E+00
      21    -1     0     0   501   502  0.000000000E+00  0.000000000E+00 -3.642039801E+03  3.642039801E+03  0.000000000E+00  0.00000E+00  9.000E+00
      25     1     1     2     0     0  1.721941934E+02  2.463301069E+01 -2.233151251E+03  2.243400797E+03  1.250000000E+02  0.00000E+00  9.000E+00
      25     1     1     2     0     0 -1.579798552E+02 -2.332028615E+01 -1.396345426E+03  1.410995046E+03  1.250000000E+02  0.00000E+00  9.000E+00
      21     1     1     2   501   511 -1.421433823E+01 -1.312724545E+00  5.445071104E+02  5.446941930E+02  1.321449896E-05  0.00000E+00  9.000E+00
#rwgt            1           1   8.8280285082789917E-003           6      240643           0
</event>
<event>
      5   9999  3.19816E-02  9.16817E+01 -1.00000E+00  1.25548E-01
      -3    -1     0     0     0   501  0.000000000E+00  0.000000000E+00  3.189641074E+03  3.189641074E+03  0.000000000E+00  0.00000E+00  9.000E+00
      21    -1     0     0   501   502  0.000000000E+00  0.000000000E+00 -2.009036207E+02  2.009036207E+02  0.000000000E+00  0.00000E+00  9.000E+00
      25     1     1     2     0     0 -2.192771064E+00 -2.256674785E+02 -6.178536484E+00  2.580577327E+02  1.250000000E+02  0.00000E+00  9.000E+00
      25     1     1     2     0     0 -6.143376969E+01  2.916765383E+02  3.160882595E+02  4.520908082E+02  1.250000000E+02  0.00000E+00  9.000E+00
      -3     1     1     2     0   502  6.362654075E+01 -6.600905980E+01  2.678827731E+03  2.680396154E+03  3.051757812E-05  0.00000E+00  9.000E+00
#rwgt            1           1   3.4594380496973214E-002           6      240765           0
</event>
<event>
      5   9999  3.19816E-02  7.11511E+02 -1.00000E+00  9.46859E-02
       2    -1     0     0   502     0  0.000000000E+00  0.000000000E+00  1.481586010E+03  1.481586010E+03  0.000000000E+00  0.00000E+00  9.000E+00
      21    -1     0     0   501   502  0.000000000E+00  0.000000000E+00 -1.664398602E+03  1.664398602E+03  0.000000000E+00  0.00000E+00  9.000E+00
      25     1     1     2     0     0  4.006658224E+02  6.882152021E+02  9.351722935E+02  1.234643869E+03  1.250000000E+02  0.00000E+00  9.000E+00
      25     1     1     2     0     0  3.094866917E+02 -7.321598705E+02 -3.928414059E+02  8.954269699E+02  1.250000000E+02  0.00000E+00  9.000E+00
       2     1     1     2   501     0 -7.101525141E+02  4.394466830E+01 -7.251434799E+02  1.015913773E+03  1.525878906E-05  0.00000E+00  9.000E+00
#rwgt            1           1   3.7903417030461101E-002           6      240804           0
</event>
<event>
      5   9999  3.19816E-02  2.07889E+02 -1.00000E+00  1.11040E-01
      -1    -1     0     0     0   501  0.000000000E+00  0.000000000E+00  5.396981088E+02  5.396981088E+02  0.000000000E+00  0.00000E+00  9.000E+00
      21    -1     0     0   501   502  0.000000000E+00  0.000000000E+00 -1.769777738E+03  1.769777738E+03  0.000000000E+00  0.00000E+00  9.000E+00
      25     1     1     2     0     0  6.272208153E+02  1.470044898E+02 -1.231012133E+03  1.395002560E+03  1.250000000E+02  0.00000E+00  9.000E+00
      25     1     1     2     0     0 -4.679397349E+02 -2.805983375E+02 -2.287377515E+02  6.046891610E+02  1.250000000E+02  0.00000E+00  9.000E+00
      -1     1     1     2     0   502 -1.592810804E+02  1.335938477E+02  2.296702549E+02  3.097841260E+02  6.031565972E-06  0.00000E+00  9.000E+00
#rwgt            2           5   1.5609129314407742E-004           6      240876           0
</event>
<event>
      5   9999  3.19816E-02  3.93213E+02 -1.00000E+00  1.01910E-01
      21    -1     0     0   502   501  0.000000000E+00  0.000000000E+00  1.151653971E+03  1.151653971E+03  0.000000000E+00  0.00000E+00  9.000E+00
      21    -1     0     0   501   511  0.000000000E+00  0.000000000E+00 -1.045349874E+03  1.045349874E+03  0.000000000E+00  0.00000E+00  9.000E+00
      25     1     1     2     0     0  2.284151417E+02  4.664464967E+02  9.899330779E+02  1.124872575E+03  1.250000000E+02  0.00000E+00  9.000E+00
      25     1     1     2     0     0 -1.493199976E+02 -8.127042930E+01 -2.595151539E+02  3.344763960E+02  1.250000000E+02  0.00000E+00  9.000E+00
      21     1     1     2   502   511 -7.909514411E+01 -3.851760674E+02 -6.241138264E+02  7.376548739E+02  1.525878906E-05  0.00000E+00  9.000E+00
#rwgt            2          11   3.0438292245791995E-003           6      241060           0
</event>
<event>
      5   9999  3.19816E-02  1.95393E+02 -1.00000E+00  1.12018E-01
      21    -1     0     0   502   512  0.000000000E+00  0.000000000E+00  1.738856490E+02  1.738856490E+02  0.000000000E+00  0.00000E+00  9.000E+00
      21    -1     0     0   501   502  0.000000000E+00  0.000000000E+00 -1.456350516E+03  1.456350516E+03  0.000000000E+00  0.00000E+00  9.000E+00
      25     1     1     2     0     0  1.378457872E+02 -1.833342570E+02 -3.293045945E+02  4.203325193E+02  1.250000000E+02  0.00000E+00  9.000E+00
      25     1     1     2     0     0 -1.979205336E+02  3.692632075E+02 -9.103201045E+02  1.009869074E+03  1.250000000E+02  0.00000E+00  9.000E+00
      21     1     1     2   501   512  6.007474642E+01 -1.859289505E+02 -4.284016774E+01  2.000345714E+02  2.900487199E-06  0.00000E+00  9.000E+00
#rwgt            1           1   2.4444506641688228E-002           6      241080           0
</event>
<event>
      5   9999  3.19816E-02  8.44200E+01 -1.00000E+00  1.27229E-01
      21    -1     0     0   511   501  0.000000000E+00  0.000000000E+00  1.228644597E+03  1.228644597E+03  0.000000000E+00  0.00000E+00  9.000E+00
      21    -1     0     0   501   502  0.000000000E+00  0.000000000E+00 -1.410277850E+03  1.410277850E+03  0.000000000E+00  0.00000E+00  9.000E+00
      25     1     1     2     0     0 -1.015249837E+03 -4.336567408E+02 -3.373560317E+02  1.161130696E+03  1.250000000E+02  0.00000E+00  9.000E+00
      25     1     1     2     0     0  9.749935493E+02  3.594532350E+02 -2.394718540E+02  1.073680967E+03  1.250000000E+02  0.00000E+00  9.000E+00
      21     1     1     2   511   502  4.025628752E+01  7.420350584E+01  3.951946325E+02  4.041107850E+02  7.629394531E-06  0.00000E+00  9.000E+00
#rwgt            1           1   1.6173149986757250E-002           6      241115           0
</event>
<event>
      5   9999  3.19816E-02  1.10362E+01 -1.00000E+00  1.90934E-01
      21    -1     0     0   502   501  0.000000000E+00  0.000000000E+00  5.948323943E+02  5.948323943E+02  0.000000000E+00  0.00000E+00  9.000E+00
      21    -1     0     0   512   502  0.000000000E+00  0.000000000E+00 -3.465083253E+02  3.465083253E+02  0.000000000E+00  0.00000E+00  9.000E+00
      25     1     1     2     0     0  2.767410292E+02  1.534549912E+02 -4.081351850E+01  3.426729853E+02  1.250000000E+02  0.00000E+00  9.000E+00
      25     1     1     2     0     0 -2.768396260E+02 -1.424192780E+02  3.801358688E+02  5.070026706E+02  1.250000000E+02  0.00000E+00  9.000E+00
      21     1     1     2   512   501  9.859672016E-02 -1.103571318E+01 -9.099828137E+01  9.166506367E+01  1.348699152E-06  0.00000E+00  9.000E+00
#rwgt            1           1   3.0157563617572967E-002           6      241212           0
</event>
<event>
      5   9999  3.19816E-02  1.52434E+02 -1.00000E+00  1.16117E-01
       1    -1     0     0   502     0  0.000000000E+00  0.000000000E+00  2.625246860E+03  2.625246860E+03  0.000000000E+00  0.00000E+00  9.000E+00
      21    -1     0     0   501   502  0.000000000E+00  0.000000000E+00 -1.322181513E+02  1.322181513E+02  0.000000000E+00  0.00000E+00  9.000E+00
      25     1     1     2     0     0 -3.262112524E+01 -6.628219738E+01 -7.409070741E+01  1.630088968E+02  1.250000000E+02  0.00000E+00  9.000E+00
      25     1     1     2     0     0 -1.179732920E+02  4.267496970E+01  7.361753946E+02  7.571776953E+02  1.250000000E+02  0.00000E+00  9.000E+00
       1     1     1     2   501     0  1.505944173E+02  2.360722768E+01  1.830944022E+03  1.837278419E+03  0.000000000E+00  0.00000E+00  9.000E+00
#rwgt            1           1   2.5071538530429597E-002           6      241513           0
</event>
<event>
      5   9999  3.19816E-02  1.89546E+01 -1.00000E+00  1.68316E-01
      21    -1     0     0   511   501  0.000000000E+00  0.000000000E+00  1.409519630E+02  1.409519630E+02  0.000000000E+00  0.00000E+00  9.000E+00
      21    -1     0     0   501   502  0.000000000E+00  0.000000000E+00 -1.583771581E+03  1.583771581E+03  0.000000000E+00  0.00000E+00  9.000E+00
      25     1     1     2     0     0 -3.331946022E+01 -6.635315144E+01 -1.414452895E+02  2.028415566E+02  1.250000000E+02  0.00000E+00  9.000E+00
      25     1     1     2     0     0  3.582402816E+01  4.756474240E+01 -1.407390425E+03  1.414184774E+03  1.250000000E+02  0.00000E+00  9.000E+00
      21     1     1     2   511   502 -2.504567933E+00  1.878840903E+01  1.060160964E+02  1.076972138E+02  3.015782986E-06  0.00000E+00  9.000E+00
#rwgt            1           1   1.9761340338251863E-002           6      241592           0
</event>
<event>
      5   9999  3.19816E-02  7.47895E+01 -1.00000E+00  1.29781E-01
      -4    -1     0     0     0   501  0.000000000E+00  0.000000000E+00  4.009554468E+02  4.009554468E+02  0.000000000E+00  0.00000E+00  9.000E+00
      21    -1     0     0   501   502  0.000000000E+00  0.000000000E+00 -5.102372317E+02  5.102372317E+02  0.000000000E+00  0.00000E+00  9.000E+00
      25     1     1     2     0     0 -1.059830615E+02 -5.698020832E+01  1.134049046E+02  2.072795838E+02  1.250000000E+02  0.00000E+00  9.000E+00
      25     1     1     2     0     0  5.101351284E+01  1.076932809E+02 -4.407520993E+02  4.733789542E+02  1.250000000E+02  0.00000E+00  9.000E+00
      -4     1     1     2     0   502  5.496954867E+01 -5.071307257E+01  2.180654098E+02  2.305341405E+02  2.697398305E-06  0.00000E+00  9.000E+00
#rwgt            1           1   2.7534166434900142E-002           6      241682           0
</event>
<event>
      5   9999  3.19816E-02  3.75127E+01 -1.00000E+00  1.46591E-01
      21    -1     0     0   502   501  0.000000000E+00  0.000000000E+00  7.459051558E+01  7.459051558E+01  0.000000000E+00  0.00000E+00  9.000E+00
       2    -1     0     0   501     0  0.000000000E+00  0.000000000E+00 -3.143041367E+03  3.143041367E+03  0.000000000E+00  0.00000E+00  9.000E+00
      25     1     1     2     0     0 -2.191917110E+02 -9.784764141E+01 -7.300561832E+02  7.786052901E+02  1.250000000E+02  0.00000E+00  9.000E+00
      25     1     1     2     0     0  1.823104695E+02  1.047013567E+02 -2.480938781E+02  3.483892273E+02  1.250000000E+02  0.00000E+00  9.000E+00
       2     1     1     2   502     0  3.688124150E+01 -6.853715242E+00 -2.090300790E+03  2.090637365E+03  0.000000000E+00  0.00000E+00  9.000E+00
#rwgt            1           1   3.1026945248821599E-002           6      241748           0
</event>
<event>
      5   9999  3.19816E-02  1.63857E+02 -1.00000E+00  1.14893E-01
      21    -1     0     0   502   501  0.000000000E+00  0.000000000E+00  2.934947368E+02  2.934947368E+02  0.000000000E+00  0.00000E+00  9.000E+00
       2    -1     0     0   501     0  0.000000000E+00  0.000000000E+00 -1.564629877E+03  1.564629877E+03  0.000000000E+00  0.00000E+00  9.000E+00
      25     1     1     2     0     0  3.613350863E+02 -1.091193824E+02  1.913045716E+01  3.980716752E+02  1.250000000E+02  0.00000E+00  9.000E+00
      25     1     1     2     0     0 -2.048193907E+02  6.062307368E+01 -1.140943192E+02  2.725227579E+02  1.250000000E+02  0.00000E+00  9.000E+00
       2     1     1     2   502     0 -1.565156956E+02  4.849630873E+01 -1.176171278E+03  1.187530181E+03  0.000000000E+00  0.00000E+00  9.000E+00
#rwgt            1           1   2.4578084762445065E-002           6      241866           0
</event>
<event>
      5   9999  3.19816E-02  6.76974E+01 -1.00000E+00  1.31961E-01
       2    -1     0     0   502     0  0.000000000E+00  0.000000000E+00  1.658624168E+03  1.658624168E+03  0.000000000E+00  0.00000E+00  9.000E+00
      21    -1     0     0   501   502  0.000000000E+00  0.000000000E+00 -1.592003171E+02  1.592003171E+02  0.000000000E+00  0.00000E+00  9.000E+00
      25     1     1     2     0     0 -1.385894343E+02  9.481974128E+01 -4.595612927E+01  2.143240081E+02  1.250000000E+02  0.00000E+00  9.000E+00
      25     1     1     2     0     0  2.052828182E+02 -8.320398742E+01  5.515600614E+02  6.073775105E+02  1.250000000E+02  0.00000E+00  9.000E+00
       2     1     1     2   501     0 -6.669338385E+01 -1.161575387E+01  9.938199187E+02  9.961229663E+02  1.868812365E-05  0.00000E+00  9.000E+00
#rwgt            1           1   2.5497559148832158E-002           6      241903           0
</event>
<event>
      5   9999  3.19816E-02  4.25558E+01 -1.00000E+00  1.43191E-01
      21    -1     0     0   502   501  0.000000000E+00  0.000000000E+00  1.534775183E+02  1.534775183E+02  0.000000000E+00  0.00000E+00  9.000E+00
      21    -1     0     0   511   502  0.000000000E+00  0.000000000E+00 -1.237460962E+03  1.237460962E+03  0.000000000E+00  0.00000E+00  9.000E+00
      25     1     1     2     0     0  3.282098036E+02  1.231595356E+02 -2.176346236E+02  4.311377689E+02  1.250000000E+02  0.00000E+00  9.000E+00
      25     1     1     2     0     0 -3.345757338E+02 -8.108257748E+01 -7.261577762E+02  8.132929496E+02  1.250000000E+02  0.00000E+00  9.000E+00
      21     1     1     2   511   501  6.365930138E+00 -4.207695807E+01 -1.401910442E+02  1.465077620E+02  0.000000000E+00  0.00000E+00  9.000E+00
#rwgt            1           1   2.8868211922205640E-002           6      241968           0
</event>
<event>
      5   9999  3.19816E-02  9.08057E+01 -1.00000E+00  1.25742E-01
       2    -1     0     0   502     0  0.000000000E+00  0.000000000E+00  1.789398242E+03  1.789398242E+03  0.000000000E+00  0.00000E+00  9.000E+00
      21    -1     0     0   501   502  0.000000000E+00  0.000000000E+00 -1.062104365E+02  1.062104365E+02  0.000000000E+00  0.00000E+00  9.000E+00
      25     1     1     2     0     0 -4.470302714E+01 -1.844806485E+02  7.317550780E+01  2.387700258E+02  1.250000000E+02  0.00000E+00  9.000E+00
      25     1     1     2     0     0 -3.348341964E+01  1.383010162E+02  3.910999702E+02  4.345486131E+02  1.250000000E+02  0.00000E+00  9.000E+00
       2     1     1     2   501     0  7.818644678E+01  4.617963230E+01  1.218912328E+03  1.222290040E+03  2.157918644E-05  0.00000E+00  9.000E+00
#rwgt            2          18   1.0288592811416595E-003           6      242115           0
</event>
<event>
      5   9999  3.19816E-02  7.08849E+01 -1.00000E+00  1.30945E-01
      21    -1     0     0   502   501  0.000000000E+00  0.000000000E+00  9.705391559E+01  9.705391559E+01  0.000000000E+00  0.00000E+00  9.000E+00
       2    -1     0     0   501     0  0.000000000E+00  0.000000000E+00 -5.578260260E+02  5.578260260E+02  0.000000000E+00  0.00000E+00  9.000E+00
      25     1     1     2     0     0  6.628045972E+01 -1.546447168E+02 -1.698015498E+02  2.697510965E+02  1.250000000E+02  0.00000E+00  9.000E+00
      25     1     1     2     0     0 -8.610817607E+01  8.658934257E+01 -2.438920403E+02  3.000344306E+02  1.250000000E+02  0.00000E+00  9.000E+00
       2     1     1     2   502     0  1.982771635E+01  6.805537421E+01 -4.707852033E+01  8.509441445E+01  6.743495762E-07  0.00000E+00  9.000E+00
#rwgt            1           1   2.0093785565065903E-002           6      242134           0
</event>
<event>
      5   9999  3.19816E-02  5.12229E+01 -1.00000E+00  1.38479E-01
      21    -1     0     0   502   511  0.000000000E+00  0.000000000E+00  2.489802265E+02  2.489802265E+02  0.000000000E+00  0.00000E+00  9.000E+00
      21    -1     0     0   501   502  0.000000000E+00  0.000000000E+00 -6.847983222E+02  6.847983222E+02  0.000000000E+00  0.00000E+00  9.000E+00
      25     1     1     2     0     0 -1.273882793E+02  3.343097530E+02 -1.675659179E+02  4.143598937E+02  1.250000000E+02  0.00000E+00  9.000E+00
      25     1     1     2     0     0  1.609704108E+02 -2.956312737E+02 -2.921357613E+02  4.629013136E+02  1.250000000E+02  0.00000E+00  9.000E+00
      21     1     1     2   501   511 -3.358213149E+01 -3.867847932E+01  2.388358349E+01  5.651734139E+01  6.743495762E-07  0.00000E+00  9.000E+00
#rwgt            1           1   2.7867641197782105E-002           6      242294           0
</event>
<event>
      5   9999  3.19816E-02  7.10004E+01 -1.00000E+00  1.30909E-01
       1    -1     0     0   502     0  0.000000000E+00  0.000000000E+00  1.821905843E+03  1.821905843E+03  0.000000000E+00  0.00000E+00  9.000E+00
      21    -1     0     0   501   502  0.000000000E+00  0.000000000E+00 -1.087679198E+02  1.087679198E+02  0.000000000E+00  0.00000E+00  9.000E+00
      25     1     1     2     0     0  2.455128366E+02  1.063443651E+02  4.169515264E+02  5.109395779E+02  1.250000000E+02  0.00000E+00  9.000E+00
      25     1     1     2     0     0 -3.132445699E+02 -1.276392825E+02  1.299549559E+03  1.348654145E+03  1.250000000E+02  0.00000E+00  9.000E+00
       1     1     1     2   501     0  6.773173332E+01  2.129491745E+01 -3.363162020E+00  7.108003986E+01  1.004475328E-06  0.00000E+00  9.000E+00
#rwgt            1           1   3.6983076826025557E-002           6      242458           0
</event>
<event>
      5   9999  3.19816E-02  9.78572E+01 -1.00000E+00  1.24253E-01
      21    -1     0     0   502   501  0.000000000E+00  0.000000000E+00  9.344924511E+02  9.344924511E+02  0.000000000E+00  0.00000E+00  9.000E+00
      21    -1     0     0   501   511  0.000000000E+00  0.000000000E+00 -6.190582936E+01  6.190582936E+01  0.000000000E+00  0.00000E+00  9.000E+00
      25     1     1     2     0     0  7.729574146E+01  4.192638733E+01  4.592059288E+02  4.839705969E+02  1.250000000E+02  0.00000E+00  9.000E+00
      25     1     1     2     0     0 -7.327903993E+01 -1.397011280E+02  3.138795856E+02  3.728694371E+02  1.250000000E+02  0.00000E+00  9.000E+00
      21     1     1     2   502   511 -4.016701523E+00  9.777474067E+01  9.950110735E+01  1.395582465E+02  3.015782986E-06  0.00000E+00  9.000E+00
#rwgt            2          11   3.1105218281550734E-003           6      242631           0
</event>
<event>
      5   9999  3.19816E-02  1.68228E+02 -1.00000E+00  1.14453E-01
       2    -1     0     0   502     0  0.000000000E+00  0.000000000E+00  1.288617925E+03  1.288617925E+03  0.000000000E+00  0.00000E+00  9.000E+00
      21    -1     0     0   501   502  0.000000000E+00  0.000000000E+00 -7.654590340E+02  7.654590340E+02  0.000000000E+00  0.00000E+00  9.000E+00
      25     1     1     2     0     0 -2.325534451E+02  1.193528773E+02  3.898079688E+02  4.856968876E+02  1.250000000E+02  0.00000E+00  9.000E+00
      25     1     1     2     0     0  2.333421347E+02  4.887310437E+01 -6.833889654E+02  7.344947993E+02  1.250000000E+02  0.00000E+00  9.000E+00
       2     1     1     2   501     0 -7.886895811E-01 -1.682259817E+02  8.167398876E+02  8.338852721E+02  1.525878906E-05  0.00000E+00  9.000E+00
#rwgt            1           1   2.5365554168632332E-002           6      242651           0
</event>
<event>
      5   9999  3.19816E-02  5.61603E+02 -1.00000E+00  9.74393E-02
      21    -1     0     0   511   501  0.000000000E+00  0.000000000E+00  1.510420829E+03  1.510420829E+03  0.000000000E+00  0.00000E+00  9.000E+00
      21    -1     0     0   501   502  0.000000000E+00  0.000000000E+00 -7.613020446E+02  7.613020446E+02  0.000000000E+00  0.00000E+00  9.000E+00
      25     1     1     2     0     0 -4.052863133E+02 -6.796961584E+02 -3.050952906E+02  8.572934152E+02  1.250000000E+02  0.00000E+00  9.000E+00
      25     1     1     2     0     0 -4.859442333E+01  3.489547480E+02  5.105470292E+02  6.327828246E+02  1.250000000E+02  0.00000E+00  9.000E+00
      21     1     1     2   511   502  4.538807366E+02  3.307414104E+02  5.436670462E+02  7.816466341E+02  1.525878906E-05  0.00000E+00  9.000E+00
#rwgt            2          11   1.6848342088996869E-003           6      242716           0
</event>
<event>
      5   9999  3.19816E-02  2.81708E+01 -1.00000E+00  1.54962E-01
      21    -1     0     0   502   501  0.000000000E+00  0.000000000E+00  2.810885364E+02  2.810885364E+02  0.000000000E+00  0.00000E+00  9.000E+00
      21    -1     0     0   512   502  0.000000000E+00  0.000000000E+00 -2.166795748E+02  2.166795748E+02  0.000000000E+00  0.00000E+00  9.000E+00
      25     1     1     2     0     0 -1.308469517E+02 -7.151127888E+01  1.413485095E+02  2.404977940E+02  1.250000000E+02  0.00000E+00  9.000E+00
      25     1     1     2     0     0  1.533085598E+02  8.851327412E+01 -6.210961421E+01  2.254345102E+02  1.250000000E+02  0.00000E+00  9.000E+00
      21     1     1     2   512   501 -2.246160816E+01 -1.700199524E+01 -1.482993367E+01  3.183580713E+01  2.384185791E-07  0.00000E+00  9.000E+00
#rwgt            1           1   2.5100761521943626E-002           6      242766           0
</event>
<event>
      5   9999  3.19816E-02  5.93734E+01 -1.00000E+00  1.34948E-01
      21    -1     0     0   502   511  0.000000000E+00  0.000000000E+00  4.584336710E+02  4.584336710E+02  0.000000000E+00  0.00000E+00  9.000E+00
      21    -1     0     0   501   502  0.000000000E+00  0.000000000E+00 -8.890479559E+01  8.890479559E+01  0.000000000E+00  0.00000E+00  9.000E+00
      25     1     1     2     0     0 -5.446999313E+01  8.366923920E+01  2.164126075E+02  2.691225342E+02  1.250000000E+02  0.00000E+00  9.000E+00
      25     1     1     2     0     0 -4.157137376E+00 -7.428547809E+01  4.065064617E+01  1.510400248E+02  1.250000000E+02  0.00000E+00  9.000E+00
      21     1     1     2   501   511  5.862713050E+01 -9.383761113E+00  1.124656218E+02  1.271759076E+02  1.348699152E-06  0.00000E+00  9.000E+00
#rwgt            1           1   2.3541256315070994E-002           6      242896           0
</event>
<event>
      5   9999  3.19816E-02  5.33738E+01 -1.00000E+00  1.37477E-01
      21    -1     0     0   512   501  0.000000000E+00  0.000000000E+00  7.126463837E+02  7.126463837E+02  0.000000000E+00  0.00000E+00  9.000E+00
      21    -1     0     0   501   502  0.000000000E+00  0.000000000E+00 -1.024175213E+02  1.024175213E+02  0.000000000E+00  0.00000E+00  9.000E+00
      25     1     1     2     0     0  4.479024496E+01  2.272583257E+02  3.249074760E+02  4.181415796E+02  1.250000000E+02  0.00000E+00  9.000E+00
      25     1     1     2     0     0 -4.802682987E+01 -1.739827496E+02  2.042970945E+02  2.998981100E+02  1.250000000E+02  0.00000E+00  9.000E+00
      21     1     1     2   512   502  3.236584912E+00 -5.327557610E+01  8.102429197E+01  9.702421543E+01  9.536743164E-07  0.00000E+00  9.000E+00
#rwgt            1           1   2.7978425795339587E-002           6      242950           0
</event>
<event>
      5   9999  3.19816E-02  1.78798E+02 -1.00000E+00  1.13449E-01
      21    -1     0     0   502   501  0.000000000E+00  0.000000000E+00  9.456872034E+02  9.456872034E+02  0.000000000E+00  0.00000E+00  9.000E+00
      21    -1     0     0   511   502  0.000000000E+00  0.000000000E+00 -6.591777356E+02  6.591777356E+02  0.000000000E+00  0.00000E+00  9.000E+00
      25     1     1     2     0     0  2.812410795E+01  3.930695333E+02  1.315553986E+02  4.338507190E+02  1.250000000E+02  0.00000E+00  9.000E+00
      25     1     1     2     0     0  1.038417004E+02 -5.137086148E+02  5.298428093E+02  7.556705911E+02  1.250000000E+02  0.00000E+00  9.000E+00
      21     1     1     2   511   501 -1.319658083E+02  1.206390815E+02 -3.748887401E+02  4.153436288E+02  0.000000000E+00  0.00000E+00  9.000E+00
#rwgt            2          11   3.7391272229926348E-003           6      243040           0
</event>
<event>
      5   9999  3.19816E-02  4.97514E+01 -1.00000E+00  1.39199E-01
      21    -1     0     0   502   501  0.000000000E+00  0.000000000E+00  4.902074091E+02  4.902074091E+02  0.000000000E+00  0.00000E+00  9.000E+00
      21    -1     0     0   501   512  0.000000000E+00  0.000000000E+00 -3.774266442E+02  3.774266442E+02  0.000000000E+00  0.00000E+00  9.000E+00
      25     1     1     2     0     0 -1.119190535E+02  1.087426743E+01  4.357330110E+02  4.670464443E+02  1.250000000E+02  0.00000E+00  9.000E+00
      25     1     1     2     0     0  7.773918725E+01  2.527727457E+01 -3.170742401E+02  3.504902218E+02  1.250000000E+02  0.00000E+00  9.000E+00
      21     1     1     2   502   512  3.417986628E+01 -3.615154200E+01 -5.878006095E+00  5.009738719E+01  5.840038640E-07  0.00000E+00  9.000E+00
#rwgt            1           1   2.9864351539711374E-002           6      243060           0
</event>
<event>
      5   9999  3.19816E-02  4.46301E+01 -1.00000E+00  1.41951E-01
      21    -1     0     0   502   511  0.000000000E+00  0.000000000E+00  1.364060900E+03  1.364060900E+03  0.000000000E+00  0.00000E+00  9.000E+00
      21    -1     0     0   501   502  0.000000000E+00  0.000000000E+00 -7.790835422E+02  7.790835422E+02  0.000000000E+00  0.00000E+00  9.000E+00
      25     1     1     2     0     0  2.237851278E+02  8.586013919E+01  3.675111796E+02  4.562249599E+02  1.250000000E+02  0.00000E+00  9.000E+00
      25     1     1     2     0     0 -1.932575789E+02 -5.330382531E+01 -7.151875502E+02  7.531985273E+02  1.250000000E+02  0.00000E+00  9.000E+00
      21     1     1     2   501   511 -3.052754887E+01 -3.255631388E+01  9.326537287E+02  9.337209553E+02  1.525878906E-05  0.00000E+00  9.000E+00
#rwgt            1           1   2.8349183453555825E-002           6      243214           0
</event>
<event>
      5   9999  3.19816E-02  1.33069E+01 -1.00000E+00  1.82428E-01
      21    -1     0     0   502   512  0.000000000E+00  0.000000000E+00  1.533221714E+03  1.533221714E+03  0.000000000E+00  0.00000E+00  9.000E+00
      21    -1     0     0   501   502  0.000000000E+00  0.000000000E+00 -4.195311752E+01  4.195311752E+01  0.000000000E+00  0.00000E+00  9.000E+00
      25     1     1     2     0     0 -1.654424781E+02 -1.011873416E+02  6.934573909E+02  7.308339378E+02  1.250000000E+02  0.00000E+00  9.000E+00
      25     1     1     2     0     0  1.787292967E+02  1.019173139E+02  6.059860702E+02  6.520547658E+02  1.250000000E+02  0.00000E+00  9.000E+00
      21     1     1     2   501   512 -1.328681853E+01 -7.299723110E-01  1.918251359E+02  1.922861283E+02  3.814697266E-06  0.00000E+00  9.000E+00
#rwgt            1           1   3.0770463640812915E-002           6      243389           0
</event>
<event>
      5   9999  3.19816E-02  2.85552E+01 -1.00000E+00  1.54544E-01
      21    -1     0     0   502   501  0.000000000E+00  0.000000000E+00  1.790334694E+02  1.790334694E+02  0.000000000E+00  0.00000E+00  9.000E+00
      21    -1     0     0   501   511  0.000000000E+00  0.000000000E+00 -3.204197680E+03  3.204197680E+03  0.000000000E+00  0.00000E+00  9.000E+00
      25     1     1     2     0     0  5.938249538E+02 -2.422110256E+02 -2.351147615E+03  2.440248833E+03  1.250000000E+02  0.00000E+00  9.000E+00
      25     1     1     2     0     0 -5.660311551E+02  2.356608070E+02 -6.147449604E+02  8.771907722E+02  1.250000000E+02  0.00000E+00  9.000E+00
      21     1     1     2   502   511 -2.779379874E+01  6.550218618E+00 -5.927163478E+01  6.579154430E+01  1.168007728E-06  0.00000E+00  9.000E+00
#rwgt            1           1   3.8973024572651428E-002           6      243480           0
</event>
<event>
      5   9999  3.19816E-02  5.89099E+01 -1.00000E+00  1.35130E-01
      21    -1     0     0   502   501  0.000000000E+00  0.000000000E+00  5.536437770E+02  5.536437770E+02  0.000000000E+00  0.00000E+00  9.000E+00
      21    -1     0     0   501   512  0.000000000E+00  0.000000000E+00 -6.061156014E+02  6.061156014E+02  0.000000000E+00  0.00000E+00  9.000E+00
      25     1     1     2     0     0 -6.787787432E+01 -4.991967971E+02 -1.168046109E+02  5.320462058E+02  1.250000000E+02  0.00000E+00  9.000E+00
      25     1     1     2     0     0  9.072209460E+00  5.026993035E+02  1.353184828E+02  5.354670732E+02  1.250000000E+02  0.00000E+00  9.000E+00
      21     1     1     2   502   512  5.880566486E+01 -3.502506437E+00 -7.098569632E+01  9.224609939E+01  9.536743164E-07  0.00000E+00  9.000E+00
#rwgt            1           1   3.0693667794519028E-002           6      243773           0
</event>
<event>
      5   9999  3.19816E-02  7.22103E+01 -1.00000E+00  1.30541E-01
      21    -1     0     0   502   501  0.000000000E+00  0.000000000E+00  4.481823068E+02  4.481823068E+02  0.000000000E+00  0.00000E+00  9.000E+00
      21    -1     0     0   511   502  0.000000000E+00  0.000000000E+00 -4.771159894E+02  4.771159894E+02  0.000000000E+00  0.00000E+00  9.000E+00
      25     1     1     2     0     0 -6.210652843E+01  2.918489849E+01 -3.554246777E+02  3.829630278E+02  1.250000000E+02  0.00000E+00  9.000E+00
      25     1     1     2     0     0  1.258578832E+02  4.728012479E+00  4.010423581E+02  4.385459313E+02  1.250000000E+02  0.00000E+00  9.000E+00
      21     1     1     2   511   501 -6.375135475E+01 -3.391291097E+01 -7.455136301E+01  1.037893371E+02  0.000000000E+00  0.00000E+00  9.000E+00
#rwgt            1           1   3.1075365057220659E-002           6      243864           0
</event>
<event>
      5   9999  3.19816E-02  2.17098E+01 -1.00000E+00  1.63482E-01
      21    -1     0     0   502   501  0.000000000E+00  0.000000000E+00  1.292824956E+02  1.292824956E+02  0.000000000E+00  0.00000E+00  9.000E+00
      -2    -1     0     0     0   502  0.000000000E+00  0.000000000E+00 -5.245205690E+02  5.245205690E+02  0.000000000E+00  0.00000E+00  9.000E+00
      25     1     1     2     0     0 -1.115860760E+02  7.048783596E+01 -2.869125405E+01  1.840330824E+02  1.250000000E+02  0.00000E+00  9.000E+00
      25     1     1     2     0     0  1.188133675E+02 -5.001629998E+01 -1.064031567E+02  2.087220120E+02  1.250000000E+02  0.00000E+00  9.000E+00
      -2     1     1     2     0   501 -7.227291505E+00 -2.047153598E+01 -2.601436626E+02  2.610479702E+02  0.000000000E+00  0.00000E+00  9.000E+00
#rwgt            1           1   3.0172596678599988E-002           6      243985           0
</event>
<event>
      5   9999  3.19816E-02  5.68373E+01 -1.00000E+00  1.35972E-01
      21    -1     0     0   502   511  0.000000000E+00  0.000000000E+00  1.275836530E+02  1.275836530E+02  0.000000000E+00  0.00000E+00  9.000E+00
      21    -1     0     0   501   502  0.000000000E+00  0.000000000E+00 -1.347346195E+03  1.347346195E+03  0.000000000E+00  0.00000E+00  9.000E+00
      25     1     1     2     0     0 -2.637482863E+02  1.650695120E+02 -8.143018231E+02  8.806381558E+02  1.250000000E+02  0.00000E+00  9.000E+00
      25     1     1     2     0     0  3.197171052E+02 -1.551712523E+02 -3.385168293E+02  5.064738775E+02  1.250000000E+02  0.00000E+00  9.000E+00
      21     1     1     2   501   511 -5.596881883E+01 -9.898259683E+00 -6.694388987E+01  8.781781492E+01  9.536743164E-07  0.00000E+00  9.000E+00
#rwgt            1           1   2.4542922515710604E-002           6      244090           0
</event>
<event>
      5   9999  3.19816E-02  1.18060E+01 -1.00000E+00  1.87775E-01
      21    -1     0     0   502   512  0.000000000E+00  0.000000000E+00  2.675440350E+02  2.675440350E+02  0.000000000E+00  0.00000E+00  9.000E+00
      21    -1     0     0   501   502  0.000000000E+00  0.000000000E+00 -3.931062103E+02  3.931062103E+02  0.000000000E+00  0.00000E+00  9.000E+00
      25     1     1     2     0     0 -2.781219729E+02 -5.679380667E+01  2.303782565E+01  3.110194684E+02  1.250000000E+02  0.00000E+00  9.000E+00
      25     1     1     2     0     0  2.714732730E+02  4.703793086E+01 -1.500899476E+02  3.377311020E+02  1.250000000E+02  0.00000E+00  9.000E+00
      21     1     1     2   501   512  6.648699907E+00  9.755875814E+00  1.489946720E+00  1.189967498E+01  1.074538015E-07  0.00000E+00  9.000E+00
#rwgt            1           1   2.8191206141038511E-002           6      244175           0
</event>
<event>
      5   9999  3.19816E-02  4.83793E+01 -1.00000E+00  1.39897E-01
      21    -1     0     0   511   501  0.000000000E+00  0.000000000E+00  1.127269466E+03  1.127269466E+03  0.000000000E+00  0.00000E+00  9.000E+00
      21    -1     0     0   501   502  0.000000000E+00  0.000000000E+00 -1.097020653E+02  1.097020653E+02  0.000000000E+00  0.00000E+00  9.000E+00
      25     1     1     2     0     0  2.245713605E+02  9.346263119E+01  1.889399584E+02  3.324016656E+02  1.250000000E+02  0.00000E+00  9.000E+00
      25     1     1     2     0     0 -2.562760828E+02 -1.300052441E+02  6.926353214E+02  7.602285726E+02  1.250000000E+02  0.00000E+00  9.000E+00
      21     1     1     2   511   502  3.170472225E+01  3.654261289E+01  1.359921209E+02  1.443412932E+02  1.907348633E-06  0.00000E+00  9.000E+00
#rwgt            1           1   2.4435291054924670E-002           6      244376           0
</event>
<event>
      5   9999  3.19816E-02  1.26116E+02 -1.00000E+00  1.19459E-01
      21    -1     0     0   512   501  0.000000000E+00  0.000000000E+00  2.581672266E+03  2.581672266E+03  0.000000000E+00  0.00000E+00  9.000E+00
      21    -1     0     0   501   502  0.000000000E+00  0.000000000E+00 -9.091335143E+01  9.091335143E+01  0.000000000E+00  0.00000E+00  9.000E+00
      25     1     1     2     0     0 -1.749839995E+01  9.960299429E+00  2.507747092E+01  1.290708376E+02  1.250000000E+02  0.00000E+00  9.000E+00
      25     1     1     2     0     0  6.770328778E+01 -1.256527415E+02  2.050247271E+02  2.793429529E+02  1.250000000E+02  0.00000E+00  9.000E+00
      21     1     1     2   512   502 -5.020488783E+01  1.156924420E+02  2.260656717E+03  2.264171827E+03  0.000000000E+00  0.00000E+00  9.000E+00
#rwgt            1           1   7.9410883072187563E-002           6      244477           0
</event>
<event>
      5   9999  3.19816E-02  1.96759E+01 -1.00000E+00  1.66957E-01
      21    -1     0     0   511   501  0.000000000E+00  0.000000000E+00  4.294100721E+02  4.294100721E+02  0.000000000E+00  0.00000E+00  9.000E+00
      21    -1     0     0   501   502  0.000000000E+00  0.000000000E+00 -1.042985918E+03  1.042985918E+03  0.000000000E+00  0.00000E+00  9.000E+00
      25     1     1     2     0     0  2.446380069E+02  1.388608702E+02 -3.284087620E+02  4.501193294E+02  1.250000000E+02  0.00000E+00  9.000E+00
      25     1     1     2     0     0 -2.501825034E+02 -1.199823694E+02 -6.179983625E+02  6.888643046E+02  1.250000000E+02  0.00000E+00  9.000E+00
      21     1     1     2   511   502  5.544496523E+00 -1.887850083E+01  3.328312787E+02  3.334123563E+02  6.607249480E-06  0.00000E+00  9.000E+00
#rwgt            1           1   2.8082097640903157E-002           6      244530           0
</event>
<event>
      5   9999  3.19816E-02  5.65245E+01 -1.00000E+00  1.36103E-01
       2    -1     0     0   502     0  0.000000000E+00  0.000000000E+00  1.080325394E+03  1.080325394E+03  0.000000000E+00  0.00000E+00  9.000E+00
      21    -1     0     0   501   502  0.000000000E+00  0.000000000E+00 -3.562149771E+02  3.562149771E+02  0.000000000E+00  0.00000E+00  9.000E+00
      25     1     1     2     0     0  1.367591172E+02 -6.579308675E+01  3.490893893E+02  4.006497075E+02  1.250000000E+02  0.00000E+00  9.000E+00
      25     1     1     2     0     0 -8.058762777E+01  5.948538934E+01 -3.097895527E+02  3.487512642E+02  1.250000000E+02  0.00000E+00  9.000E+00
       2     1     1     2   501     0 -5.617148947E+01  6.307697407E+00  6.848105798E+02  6.871393989E+02  7.629394531E-06  0.00000E+00  9.000E+00
#rwgt            1           1   2.4469317062197363E-002           6      244739           0
</event>
<event>
      5   9999  3.19816E-02  2.01993E+01 -1.00000E+00  1.66015E-01
      21    -1     0     0   511   501  0.000000000E+00  0.000000000E+00  1.398534198E+03  1.398534198E+03  0.000000000E+00  0.00000E+00  9.000E+00
      21    -1     0     0   501   502  0.000000000E+00  0.000000000E+00 -1.564644198E+02  1.564644198E+02  0.000000000E+00  0.00000E+00  9.000E+00
      25     1     1     2     0     0  3.333135135E+02 -2.498342197E+01  1.058662647E+03  1.117190078E+03  1.250000000E+02  0.00000E+00  9.000E+00
      25     1     1     2     0     0 -3.473102177E+02  3.954716858E+01  1.534926770E+02  4.017130415E+02  1.250000000E+02  0.00000E+00  9.000E+00
      21     1     1     2   511   502  1.399670417E+01 -1.456374660E+01  2.991445436E+01  3.609549865E+01  3.371747881E-07  0.00000E+00  9.000E+00
#rwgt            1           1   2.9303800186451481E-002           6      244837           0
</event>
<event>
      5   9999  3.19816E-02  3.57325E+01 -1.00000E+00  1.47946E-01
      21    -1     0     0   502   512  0.000000000E+00  0.000000000E+00  2.177461337E+02  2.177461337E+02  0.000000000E+00  0.00000E+00  9.000E+00
      21    -1     0     0   501   502  0.000000000E+00  0.000000000E+00 -2.763143118E+02  2.763143118E+02  0.000000000E+00  0.00000E+00  9.000E+00
      25     1     1     2     0     0 -1.665132916E+02 -6.916284947E+01  2.728779111E+01  2.210877644E+02  1.250000000E+02  0.00000E+00  9.000E+00
      25     1     1     2     0     0  1.342107034E+02  5.388686250E+01 -1.182214938E+02  2.247612699E+02  1.250000000E+02  0.00000E+00  9.000E+00
      21     1     1     2   501   512  3.230258823E+01  1.527598697E+01  3.236552465E+01  4.821141121E+01  4.768371582E-07  0.00000E+00  9.000E+00
#rwgt            1           1   2.3282727775294259E-002           6      245013           0
</event>
<event>
      5   9999  3.19816E-02  1.89175E+02 -1.00000E+00  1.12535E-01
      21    -1     0     0   502   501  0.000000000E+00  0.000000000E+00  9.670277086E+02  9.670277086E+02  0.000000000E+00  0.00000E+00  9.000E+00
      21    -1     0     0   501   511  0.000000000E+00  0.000000000E+00 -2.859590290E+02  2.859590290E+02  0.000000000E+00  0.00000E+00  9.000E+00
      25     1     1     2     0     0 -2.140138610E+02  3.145669836E+02  8.910039720E+01  4.102660121E+02  1.250000000E+02  0.00000E+00  9.000E+00
      25     1     1     2     0     0  5.507136025E+01 -2.119781296E+02  6.026098035E+02  6.532466284E+02  1.250000000E+02  0.00000E+00  9.000E+00
      21     1     1     2   502   511  1.589425008E+02 -1.025888540E+02 -1.064152110E+01  1.894740971E+02  4.958304010E-06  0.00000E+00  9.000E+00
#rwgt            1           1   3.0422029142502523E-002           6      245139           0
</event>
<event>
      5   9999  3.19816E-02  4.51660E+01 -1.00000E+00  1.41643E-01
      21    -1     0     0   502   512  0.000000000E+00  0.000000000E+00  1.400467326E+02  1.400467326E+02  0.000000000E+00  0.00000E+00  9.000E+00
      21    -1     0     0   501   502  0.000000000E+00  0.000000000E+00 -1.113426555E+03  1.113426555E+03  0.000000000E+00  0.00000E+00  9.000E+00
      25     1     1     2     0     0 -2.003482084E+02 -2.053772829E+02 -4.545534988E+02  5.518723731E+02  1.250000000E+02  0.00000E+00  9.000E+00
      25     1     1     2     0     0  1.586789194E+02  1.879520381E+02 -5.700465896E+02  6.333112050E+02  1.250000000E+02  0.00000E+00  9.000E+00
      21     1     1     2   501   512  4.166928898E+01  1.742524485E+01  5.122026583E+01  6.828970958E+01  2.236564522E-06  0.00000E+00  9.000E+00
#rwgt            1           1   2.8745767057780383E-002           6      245203           0
</event>
<event>
      5   9999  3.19816E-02  1.05528E+02 -1.00000E+00  1.22786E-01
       2    -1     0     0   502     0  0.000000000E+00  0.000000000E+00  2.863977550E+03  2.863977550E+03  0.000000000E+00  0.00000E+00  9.000E+00
      21    -1     0     0   501   502  0.000000000E+00  0.000000000E+00 -2.198404126E+02  2.198404126E+02  0.000000000E+00  0.00000E+00  9.000E+00
      25     1     1     2     0     0  8.008317489E+01  3.388062692E+02  2.325198252E+02  4.369135751E+02  1.250000000E+02  0.00000E+00  9.000E+00
      25     1     1     2     0     0 -1.827574746E+02 -3.144332807E+02  2.012979059E+02  4.340673098E+02  1.250000000E+02  0.00000E+00  9.000E+00
       2     1     1     2   501     0  1.026742997E+02 -2.437298854E+01  2.210319407E+03  2.212837078E+03  3.051757812E-05  0.00000E+00  9.000E+00
#rwgt            1           1   2.9385636780057688E-002           6      245309           0
</event>
<event>
      5   9999  3.19816E-02  9.28904E+01 -1.00000E+00  1.25286E-01
      21    -1     0     0   502   511  0.000000000E+00  0.000000000E+00  6.244407301E+01  6.244407301E+01  0.000000000E+00  0.00000E+00  9.000E+00
      21    -1     0     0   501   502  0.000000000E+00  0.000000000E+00 -1.931527132E+03  1.931527132E+03  0.000000000E+00  0.00000E+00  9.000E+00
      25     1     1     2     0     0  1.135869449E+02 -1.063479250E+02 -4.037107969E+02  4.503546189E+02  1.250000000E+02  0.00000E+00  9.000E+00
      25     1     1     2     0     0 -2.062735152E+02  1.001977797E+02 -1.413090135E+03  1.437023690E+03  1.250000000E+02  0.00000E+00  9.000E+00
      21     1     1     2   501   511  9.268657031E+01  6.150145330E+00 -5.228212773E+01  1.065928960E+02  1.651812370E-06  0.00000E+00  9.000E+00
#rwgt            1           1   2.4737031736037376E-002           6      245418           0
</event>
<event>
      5   9999  3.19816E-02  3.47346E+02 -1.00000E+00  1.03565E-01
      21    -1     0     0   502   501  0.000000000E+00  0.000000000E+00  9.253203305E+01  9.253203305E+01  0.000000000E+00  0.00000E+00  9.000E+00
       2    -1     0     0   501     0  0.000000000E+00  0.000000000E+00 -2.122568897E+03  2.122568897E+03  0.000000000E+00  0.00000E+00  9.000E+00
      25     1     1     2     0     0  1.912266468E+02  2.799506979E+01 -1.997860264E+02  3.047799382E+02  1.250000000E+02  0.00000E+00  9.000E+00
      25     1     1     2     0     0  1.464205487E+02  5.351331178E+01 -6.501851338E+02  6.801972948E+02  1.250000000E+02  0.00000E+00  9.000E+00
       2     1     1     2   502     0 -3.376471955E+02 -8.150838157E+01 -1.180065703E+03  1.230123697E+03  2.157918644E-05  0.00000E+00  9.000E+00
#rwgt            2          13   2.0147768191333881E-003           6      245834           0
</event>
<event>
      5   9999  3.19816E-02  4.81597E+02 -1.00000E+00  9.93169E-02
       2    -1     0     0   502     0  0.000000000E+00  0.000000000E+00  3.645246211E+02  3.645246211E+02  0.000000000E+00  0.00000E+00  9.000E+00
      21    -1     0     0   501   502  0.000000000E+00  0.000000000E+00 -2.854133774E+03  2.854133774E+03  0.000000000E+00  0.00000E+00  9.000E+00
      25     1     1     2     0     0  2.702469693E+01 -6.258935064E+02 -9.075588879E+02  1.109847355E+03  1.250000000E+02  0.00000E+00  9.000E+00
      25     1     1     2     0     0  4.537971515E+02  5.985730915E+02 -1.400502188E+03  1.594130791E+03  1.250000000E+02  0.00000E+00  9.000E+00
       2     1     1     2   501     0 -4.808218484E+02  2.732041493E+01 -1.815480772E+02  5.146802496E+02  6.031565972E-06  0.00000E+00  9.000E+00
#rwgt            2          18   1.7309571304662758E-004           6      245913           0
</event>
<event>
      5   9999  3.19816E-02  6.20366E+01 -1.00000E+00  1.33933E-01
      21    -1     0     0   502   511  0.000000000E+00  0.000000000E+00  4.510491953E+02  4.510491953E+02  0.000000000E+00  0.00000E+00  9.000E+00
      21    -1     0     0   501   502  0.000000000E+00  0.000000000E+00 -5.090630343E+02  5.090630343E+02  0.000000000E+00  0.00000E+00  9.000E+00
      25     1     1     2     0     0 -2.118871231E+02 -2.996273027E+02 -1.989368617E+02  4.357448203E+02  1.250000000E+02  0.00000E+00  9.000E+00
      25     1     1     2     0     0  2.697577425E+02  2.772772335E+02  4.349158878E+01  4.088623511E+02  1.250000000E+02  0.00000E+00  9.000E+00
      21     1     1     2   501   511 -5.787061934E+01  2.235006915E+01  9.743143390E+01  1.155050583E+02  1.907348633E-06  0.00000E+00  9.000E+00
#rwgt            1           1   3.1060383487956339E-002           6      245977           0
</event>
<event>
      5   9999  3.19816E-02  1.98376E+02 -1.00000E+00  1.11777E-01
      21    -1     0     0   502   501  0.000000000E+00  0.000000000E+00  2.633984137E+02  2.633984137E+02  0.000000000E+00  0.00000E+00  9.000E+00
      21    -1     0     0   501   512  0.000000000E+00  0.000000000E+00 -1.611126867E+03  1.611126867E+03  0.000000000E+00  0.00000E+00  9.000E+00
      25     1     1     2     0     0 -2.084116264E+01  2.295149873E+02  1.110928681E+02  2.847421795E+02  1.250000000E+02  0.00000E+00  9.000E+00
      25     1     1     2     0     0  1.849631121E+02 -3.409469314E+02 -7.481591805E+02  8.519526526E+02  1.250000000E+02  0.00000E+00  9.000E+00
      21     1     1     2   502   512 -1.641219495E+02  1.114319441E+02 -7.106621412E+02  7.378304489E+02  1.078959322E-05  0.00000E+00  9.000E+00
#rwgt            2          11   2.1128868605305583E-003           6      246059           0
</event>
<event>
      5   9999  3.19816E-02  4.85524E+01 -1.00000E+00  1.39807E-01
      21    -1     0     0   511   501  0.000000000E+00  0.000000000E+00  2.312747713E+02  2.312747713E+02  0.000000000E+00  0.00000E+00  9.000E+00
      21    -1     0     0   501   502  0.000000000E+00  0.000000000E+00 -2.290186623E+02  2.290186623E+02  0.000000000E+00  0.00000E+00  9.000E+00
      25     1     1     2     0     0  7.607906718E+01 -1.131121009E+02 -1.547264537E+00  1.849588221E+02  1.250000000E+02  0.00000E+00  9.000E+00
      25     1     1     2     0     0 -6.690994846E+01  1.607908269E+02 -2.959274485E+01  2.164055493E+02  1.250000000E+02  0.00000E+00  9.000E+00
      21     1     1     2   511   502 -9.169118717E+00 -4.767872596E+01  3.339611843E+01  5.892906221E+01  4.768371582E-07  0.00000E+00  9.000E+00
#rwgt            1           1   2.6836583829425668E-002           6      246079           0
</event>
<event>
      5   9999  3.19816E-02  2.74697E+01 -1.00000E+00  1.55746E-01
      21    -1     0     0   512   501  0.000000000E+00  0.000000000E+00  1.781252637E+02  1.781252637E+02  0.000000000E+00  0.00000E+00  9.000E+00
      21    -1     0     0   501   502  0.000000000E+00  0.000000000E+00 -3.222966221E+03  3.222966221E+03  0.000000000E+00  0.00000E+00  9.000E+00
      25     1     1     2     0     0 -2.821452732E+01  9.182449827E+01 -3.910690838E+01  1.624258240E+02  1.250000000E+02  0.00000E+00  9.000E+00
      25     1     1     2     0     0  9.042160170E-01 -8.886933470E+01 -3.118668887E+03  3.122438022E+03  1.250000000E+02  0.00000E+00  9.000E+00
      21     1     1     2   512   502  2.731031131E+01 -2.955163573E+00  1.129348384E+02  1.162276380E+02  6.325959759E-06  0.00000E+00  9.000E+00
#rwgt            1           1   3.3232745167331636E-002           6      246163           0
</event>
<event>
      5   9999  3.19816E-02  6.13577E+01 -1.00000E+00  1.34186E-01
      21    -1     0     0   502   511  0.000000000E+00  0.000000000E+00  2.290533759E+02  2.290533759E+02  0.000000000E+00  0.00000E+00  9.000E+00
      21    -1     0     0   501   502  0.000000000E+00  0.000000000E+00 -9.039182880E+02  9.039182880E+02  0.000000000E+00  0.00000E+00  9.000E+00
      25     1     1     2     0     0 -2.590218304E+02  3.224545202E+02 -3.257269777E+02  5.411028462E+02  1.250000000E+02  0.00000E+00  9.000E+00
      25     1     1     2     0     0  2.094020874E+02 -2.863622947E+02 -3.694568533E+02  5.272342596E+02  1.250000000E+02  0.00000E+00  9.000E+00
      21     1     1     2   501   511  4.961974301E+01 -3.609222544E+01  2.031891889E+01  6.463455808E+01  1.066240300E-06  0.00000E+00  9.000E+00
#rwgt            1           1   2.7756644232075054E-002           6      246328           0
</event>
<event>
      5   9999  3.19816E-02  7.19735E+02 -1.00000E+00  9.45562E-02
      21    -1     0     0   502   501  0.000000000E+00  0.000000000E+00  4.804387060E+02  4.804387060E+02  0.000000000E+00  0.00000E+00  9.000E+00
       2    -1     0     0   501     0  0.000000000E+00  0.000000000E+00 -3.571124900E+03  3.571124900E+03  0.000000000E+00  0.00000E+00  9.000E+00
      25     1     1     2     0     0 -6.844836272E+02  8.105231212E+02 -5.140989864E+02  1.185490756E+03  1.250000000E+02  0.00000E+00  9.000E+00
      25     1     1     2     0     0  2.476482036E+02 -2.385150749E+02 -2.839362531E+02  4.631024396E+02  1.250000000E+02  0.00000E+00  9.000E+00
       2     1     1     2   502     0  4.368354235E+02 -5.720080463E+02 -2.292650954E+03  2.402970410E+03  4.315837288E-05  0.00000E+00  9.000E+00
#rwgt            2          13   9.1760143964763068E-004           6      246417           0
</event>
<event>
      5   9999  3.19816E-02  6.30241E+01 -1.00000E+00  1.33572E-01
       2    -1     0     0   502     0  0.000000000E+00  0.000000000E+00  1.695261900E+03  1.695261900E+03  0.000000000E+00  0.00000E+00  9.000E+00
      21    -1     0     0   501   502  0.000000000E+00  0.000000000E+00 -1.528046381E+02  1.528046381E+02  0.000000000E+00  0.00000E+00  9.000E+00
      25     1     1     2     0     0  1.727733889E+02 -2.924930268E+02  1.960837448E+02  4.116754178E+02  1.250000000E+02  0.00000E+00  9.000E+00
      25     1     1     2     0     0 -1.609806259E+02  3.544040300E+02  9.385641396E+02  1.023740505E+03  1.250000000E+02  0.00000E+00  9.000E+00
       2     1     1     2   501     0 -1.179276308E+01 -6.191100318E+01  4.078093771E+02  4.126506144E+02  5.394796609E-06  0.00000E+00  9.000E+00
#rwgt            1           1   2.9393247368888684E-002           6      246436           0
</event>
<event>
      5   9999  3.19816E-02  1.63716E+02 -1.00000E+00  1.14907E-01
      21    -1     0     0   502   501  0.000000000E+00  0.000000000E+00  2.331717940E+03  2.331717940E+03  0.000000000E+00  0.00000E+00  9.000E+00
      21    -1     0     0   511   502  0.000000000E+00  0.000000000E+00 -1.178107553E+03  1.178107553E+03  0.000000000E+00  0.00000E+00  9.000E+00
      25     1     1     2     0     0 -2.916548351E+02  9.209760223E+02 -7.392653138E+02  1.222864498E+03  1.250000000E+02  0.00000E+00  9.000E+00
      25     1     1     2     0     0  4.246908225E+02 -8.255587977E+02  1.904928411E+03  2.122801656E+03  1.250000000E+02  0.00000E+00  9.000E+00
      21     1     1     2   511   501 -1.330359874E+02 -9.541722467E+01 -1.205271028E+01  1.641593389E+02  3.788530489E-06  0.00000E+00  9.000E+00
#rwgt            1           1   3.5699686675140903E-002           6      246505           0
</event>
<event>
      5   9999  3.19816E-02  4.91449E+01 -1.00000E+00  1.39504E-01
      21    -1     0     0   502   501  0.000000000E+00  0.000000000E+00  1.065995300E+02  1.065995300E+02  0.000000000E+00  0.00000E+00  9.000E+00
      21    -1     0     0   512   502  0.000000000E+00  0.000000000E+00 -1.068381918E+03  1.068381918E+03  0.000000000E+00  0.00000E+00  9.000E+00
      25     1     1     2     0     0  7.311148531E+01 -8.919906793E+00 -1.938145217E+02  2.421031244E+02  1.250000000E+02  0.00000E+00  9.000E+00
      25     1     1     2     0     0 -1.218839078E+02  1.495906249E+01 -1.234740231E+01  1.756613756E+02  1.250000000E+02  0.00000E+00  9.000E+00
      21     1     1     2   512   501  4.877242252E+01 -6.039155696E+00 -7.556204640E+02  7.572169479E+02  0.000000000E+00  0.00000E+00  9.000E+00
#rwgt            1           1   2.1514680050719576E-002           6      246569           0
</event>
<event>
      5   9999  3.19816E-02  2.81524E+01 -1.00000E+00  1.54982E-01
      21    -1     0     0   502   501  0.000000000E+00  0.000000000E+00  4.292988748E+02  4.292988748E+02  0.000000000E+00  0.00000E+00  9.000E+00
      21    -1     0     0   511   502  0.000000000E+00  0.000000000E+00 -1.229701657E+03  1.229701657E+03  0.000000000E+00  0.00000E+00  9.000E+00
      25     1     1     2     0     0  5.177690147E+02 -4.198198623E+02 -1.906416846E+02  7.044875594E+02  1.250000000E+02  0.00000E+00  9.000E+00
      25     1     1     2     0     0 -5.457852928E+02  4.225852708E+02 -5.610635627E+02  8.982634460E+02  1.250000000E+02  0.00000E+00  9.000E+00
      21     1     1     2   511   501  2.801627805E+01 -2.765408520E+00 -4.869753466E+01  5.624952624E+01  6.743495762E-07  0.00000E+00  9.000E+00
#rwgt            1           1   1.2969038162128632E-002           6      246657           0
</event>
<event>
      5   9999  3.19816E-02  2.11692E+02 -1.00000E+00  1.10757E-01
      21    -1     0     0   502   501  0.000000000E+00  0.000000000E+00  2.586668548E+02  2.586668548E+02  0.000000000E+00  0.00000E+00  9.000E+00
      21    -1     0     0   512   502  0.000000000E+00  0.000000000E+00 -9.790204879E+02  9.790204879E+02  0.000000000E+00  0.00000E+00  9.000E+00
      25     1     1     2     0     0 -1.196075088E+02  1.954492763E+01 -3.089718109E+02  3.546498840E+02  1.250000000E+02  0.00000E+00  9.000E+00
      25     1     1     2     0     0  2.971069337E+02  9.581329599E+01  8.202983953E+01  3.461309179E+02  1.250000000E+02  0.00000E+00  9.000E+00
      21     1     1     2   512   501 -1.774994250E+02 -1.153582236E+02 -4.934116617E+02  5.369065408E+02  7.629394531E-06  0.00000E+00  9.000E+00
#rwgt            2          11   2.6655445242770408E-003           6      246864           0
</event>
<event>
      5   9999  3.19816E-02  7.17834E+01 -1.00000E+00  1.30670E-01
       2    -1     0     0   502     0  0.000000000E+00  0.000000000E+00  2.632828426E+03  2.632828426E+03  0.000000000E+00  0.00000E+00  9.000E+00
      21    -1     0     0   501   502  0.000000000E+00  0.000000000E+00 -3.138373040E+02  3.138373040E+02  0.000000000E+00  0.00000E+00  9.000E+00
      25     1     1     2     0     0  3.292284532E+02  7.132002827E+01 -1.257216409E+02  3.806689531E+02  1.250000000E+02  0.00000E+00  9.000E+00
      25     1     1     2     0     0 -3.937826526E+02 -3.992548380E+01  6.588753572E+02  7.787172517E+02  1.250000000E+02  0.00000E+00  9.000E+00
       2     1     1     2   501     0  6.455419941E+01 -3.139454447E+01  1.785837406E+03  1.787279525E+03  4.315837288E-05  0.00000E+00  9.000E+00
#rwgt            1           1   2.9941405785866956E-002           6      246914           0
</event>
<event>
      5   9999  3.19816E-02  3.26639E+01 -1.00000E+00  1.50517E-01
      21    -1     0     0   502   501  0.000000000E+00  0.000000000E+00  2.972005140E+02  2.972005140E+02  0.000000000E+00  0.00000E+00  9.000E+00
      21    -1     0     0   511   502  0.000000000E+00  0.000000000E+00 -4.146972897E+02  4.146972897E+02  0.000000000E+00  0.00000E+00  9.000E+00
      25     1     1     2     0     0  2.325863523E+02  2.137754359E+02 -6.328330162E+01  3.455808510E+02  1.250000000E+02  0.00000E+00  9.000E+00
      25     1     1     2     0     0 -2.214483527E+02 -1.830691188E+02 -1.283211641E+01  3.135974145E+02  1.250000000E+02  0.00000E+00  9.000E+00
      21     1     1     2   511   501 -1.113799968E+01 -3.070631705E+01 -4.138135771E+01  5.271953822E+01  1.066240300E-06  0.00000E+00  9.000E+00
#rwgt            1           1   2.7843184886416780E-002           6      246994           0
</event>
<event>
      5   9999  3.19816E-02  3.71621E+02 -1.00000E+00  1.02656E-01
      21    -1     0     0   502   512  0.000000000E+00  0.000000000E+00  6.298292646E+02  6.298292646E+02  0.000000000E+00  0.00000E+00  9.000E+00
      21    -1     0     0   501   502  0.000000000E+00  0.000000000E+00 -7.445008099E+02  7.445008099E+02  0.000000000E+00  0.00000E+00  9.000E+00
      25     1     1     2     0     0 -1.589765521E+02 -8.322034693E+01  3.526012486E+02  4.149118108E+02  1.250000000E+02  0.00000E+00  9.000E+00
      25     1     1     2     0     0  5.627850764E+01 -2.739282104E+02 -4.999893000E+02  5.863601581E+02  1.250000000E+02  0.00000E+00  9.000E+00
      21     1     1     2   501   512  1.026980445E+02  3.571485573E+02  3.271650611E+01  3.730581056E+02  5.223489356E-06  0.00000E+00  9.000E+00
#rwgt            1           1   3.0654900162120073E-002           6      247098           0
</event>
<event>
      5   9999  3.19816E-02  1.07769E+02 -1.00000E+00  1.22384E-01
      21    -1     0     0   502   511  0.000000000E+00  0.000000000E+00  2.045255806E+03  2.045255806E+03  0.000000000E+00  0.00000E+00  9.000E+00
      21    -1     0     0   501   502  0.000000000E+00  0.000000000E+00 -2.826813671E+02  2.826813671E+02  0.000000000E+00  0.00000E+00  9.000E+00
      25     1     1     2     0     0 -1.982934843E+02 -1.942234254E+00  6.765779628E+02  7.160354865E+02  1.250000000E+02  0.00000E+00  9.000E+00
      25     1     1     2     0     0  1.310241453E+02 -8.225435931E+01 -2.228088745E+02  2.986668727E+02  1.250000000E+02  0.00000E+00  9.000E+00
      21     1     1     2   501   511  6.726933896E+01  8.419659356E+01  1.308805351E+03  1.313234814E+03  1.525878906E-05  0.00000E+00  9.000E+00
#rwgt            1           1   3.0008958520757287E-002           6      247154           0
</event>
<event>
      5   9999  3.19816E-02  1.03050E+02 -1.00000E+00  1.23244E-01
      21    -1     0     0   512   501  0.000000000E+00  0.000000000E+00  1.132453249E+02  1.132453249E+02  0.000000000E+00  0.00000E+00  9.000E+00
      21    -1     0     0   501   502  0.000000000E+00  0.000000000E+00 -2.425465571E+03  2.425465571E+03  0.000000000E+00  0.00000E+00  9.000E+00
      25     1     1     2     0     0 -8.058384664E+01  1.303634874E+02 -1.627296478E+03  1.639270333E+03  1.250000000E+02  0.00000E+00  9.000E+00
      25     1     1     2     0     0 -1.933183131E+01 -1.051422187E+02 -7.563691181E+02  7.740464125E+02  1.250000000E+02  0.00000E+00  9.000E+00
      21     1     1     2   512   502  9.991567795E+01 -2.522126870E+01  7.144534998E+01  1.253941511E+02  3.303624740E-06  0.00000E+00  9.000E+00
#rwgt            1           1   4.7834178739678629E-002           6      247240           0
</event>
<event>
      5   9999  3.19816E-02  2.28570E+01 -1.00000E+00  1.61722E-01
      21    -1     0     0   502   501  0.000000000E+00  0.000000000E+00  3.347863217E+02  3.347863217E+02  0.000000000E+00  0.00000E+00  9.000E+00
      21    -1     0     0   501   511  0.000000000E+00  0.000000000E+00 -7.806383543E+02  7.806383543E+02  0.000000000E+00  0.00000E+00  9.000E+00
      25     1     1     2     0     0  1.141214859E+02  2.081458210E+01  2.958615610E+02  3.414908837E+02  1.250000000E+02  0.00000E+00  9.000E+00
      25     1     1     2     0     0 -1.005927922E+02 -2.391366449E+00 -7.315085926E+02  7.489021629E+02  1.250000000E+02  0.00000E+00  9.000E+00
      21     1     1     2   502   511 -1.352869375E+01 -1.842321565E+01 -1.020500097E+01  2.503162948E+01  1.192092896E-07  0.00000E+00  9.000E+00
#rwgt            1           1   2.6653332852658498E-002           6      247288           0
</event>
<event>
      5   9999  3.19816E-02  1.02015E+01 -1.00000E+00  1.94761E-01
      21    -1     0     0   512   501  0.000000000E+00  0.000000000E+00  2.454758172E+01  2.454758172E+01  0.000000000E+00  0.00000E+00  9.000E+00
      21    -1     0     0   501   502  0.000000000E+00  0.000000000E+00 -1.500125656E+03  1.500125656E+03  0.000000000E+00  0.00000E+00  9.000E+00
      25     1     1     2     0     0 -5.142278152E+00 -7.087185327E+01 -1.174845588E+03  1.183611600E+03  1.250000000E+02  0.00000E+00  9.000E+00
      25     1     1     2     0     0  5.771041925E+00  8.105399611E+01 -2.668255620E+02  3.056532933E+02  1.250000000E+02  0.00000E+00  9.000E+00
      21     1     1     2   512   502 -6.287637733E-01 -1.018214284E+01 -3.390692416E+01  3.540834482E+01  8.259061849E-07  0.00000E+00  9.000E+00
#rwgt            1           1   3.9632786312340476E-002           6      247575           0
</event>
<event>
      5   9999  3.19816E-02  7.34742E+01 -1.00000E+00  1.30164E-01
      21    -1     0     0   511   501  0.000000000E+00  0.000000000E+00  1.909848899E+02  1.909848899E+02  0.000000000E+00  0.00000E+00  9.000E+00
      21    -1     0     0   501   502  0.000000000E+00  0.000000000E+00 -5.956541962E+02  5.956541962E+02  0.000000000E+00  0.00000E+00  9.000E+00
      25     1     1     2     0     0 -2.507952998E+01  2.656110772E+02 -2.020225047E+02  3.572342643E+02  1.250000000E+02  0.00000E+00  9.000E+00
      25     1     1     2     0     0  5.240761269E+01 -1.974082204E+02 -2.466433338E+02  3.437651778E+02  1.250000000E+02  0.00000E+00  9.000E+00
      21     1     1     2   511   502 -2.732808270E+01 -6.820285686E+01  4.399653214E+01  8.563964403E+01  8.259061849E-07  0.00000E+00  9.000E+00
#rwgt            1           1   2.7728933618882456E-002           6      247755           0
</event>
<event>
      5   9999  3.19816E-02  2.01667E+02 -1.00000E+00  1.11517E-01
      21    -1     0     0   502   501  0.000000000E+00  0.000000000E+00  2.323989611E+02  2.323989611E+02  0.000000000E+00  0.00000E+00  9.000E+00
      21    -1     0     0   512   502  0.000000000E+00  0.000000000E+00 -7.079863624E+02  7.079863624E+02  0.000000000E+00  0.00000E+00  9.000E+00
      25     1     1     2     0     0 -7.218648674E+01 -2.533336627E+02  5.737301602E+01  2.971624076E+02  1.250000000E+02  0.00000E+00  9.000E+00
      25     1     1     2     0     0  7.131054009E+01  5.166843019E+01 -2.866897647E+02  3.249166678E+02  1.250000000E+02  0.00000E+00  9.000E+00
      21     1     1     2   512   501  8.759466529E-01  2.016652325E+02 -2.462706525E+02  3.183062481E+02  3.814697266E-06  0.00000E+00  9.000E+00
#rwgt            2          11   3.1169652285115653E-003           6      247878           0
</event>
<event>
      5   9999  3.19816E-02  1.11998E+02 -1.00000E+00  1.21654E-01
      21    -1     0     0   502   501  0.000000000E+00  0.000000000E+00  2.275682892E+02  2.275682892E+02  0.000000000E+00  0.00000E+00  9.000E+00
      21    -1     0     0   501   511  0.000000000E+00  0.000000000E+00 -9.664798259E+02  9.664798259E+02  0.000000000E+00  0.00000E+00  9.000E+00
      25     1     1     2     0     0 -4.222625850E+02 -2.389869983E+01 -2.815337759E+02  5.232237624E+02  1.250000000E+02  0.00000E+00  9.000E+00
      25     1     1     2     0     0  3.169422117E+02 -1.419675957E+01 -2.131322891E+02  4.021247148E+02  1.250000000E+02  0.00000E+00  9.000E+00
      21     1     1     2   502   511  1.053203732E+02  3.809545940E+01 -2.442454716E+02  2.686996380E+02  2.697398305E-06  0.00000E+00  9.000E+00
#rwgt            1           1   2.7706018676091463E-002           6      247913           0
</event>
<event>
      5   9999  3.19816E-02  1.80928E+02 -1.00000E+00  1.13256E-01
      -1    -1     0     0     0   501  0.000000000E+00  0.000000000E+00  3.588690285E+02  3.588690285E+02  0.000000000E+00  0.00000E+00  9.000E+00
      21    -1     0     0   501   502  0.000000000E+00  0.000000000E+00 -2.423922197E+03  2.423922197E+03  0.000000000E+00  0.00000E+00  9.000E+00
      25     1     1     2     0     0 -3.911660996E+02 -2.381917749E+01 -2.704086003E+02  4.922642399E+02  1.250000000E+02  0.00000E+00  9.000E+00
      25     1     1     2     0     0  5.682282336E+02  6.102012497E+01 -1.959986838E+03  2.045429096E+03  1.250000000E+02  0.00000E+00  9.000E+00
      -1     1     1     2     0   502 -1.770621340E+02 -3.720094748E+01  1.653422693E+02  2.450978902E+02  5.394796609E-06  0.00000E+00  9.000E+00
#rwgt            1           1   2.8350098249536951E-002           6      248010           0
</event>
<event>
      5   9999  3.19816E-02  5.54236E+02 -1.00000E+00  9.75978E-02
       2    -1     0     0   502     0  0.000000000E+00  0.000000000E+00  2.566356308E+03  2.566356308E+03  0.000000000E+00  0.00000E+00  9.000E+00
      21    -1     0     0   501   502  0.000000000E+00  0.000000000E+00 -2.735603900E+02  2.735603900E+02  0.000000000E+00  0.00000E+00  9.000E+00
      25     1     1     2     0     0 -3.724853261E+02  3.982213964E+02  1.334330281E+02  5.751130078E+02  1.250000000E+02  0.00000E+00  9.000E+00
      25     1     1     2     0     0  1.350401071E+01  2.404673626E+01  3.650141304E+02  3.868086338E+02  1.250000000E+02  0.00000E+00  9.000E+00
       2     1     1     2   501     0  3.589813154E+02 -4.222681327E+02  1.794348760E+03  1.877995057E+03  2.157918644E-05  0.00000E+00  9.000E+00
#rwgt            2          18   1.9919076529527880E-003           6      248093           0
</event>
<event>
      5   9999  3.19816E-02  2.08788E+01 -1.00000E+00  1.64843E-01
      21    -1     0     0   511   501  0.000000000E+00  0.000000000E+00  5.845040650E+02  5.845040650E+02  0.000000000E+00  0.00000E+00  9.000E+00
      21    -1     0     0   501   502  0.000000000E+00  0.000000000E+00 -3.243565957E+02  3.243565957E+02  0.000000000E+00  0.00000E+00  9.000E+00
      25     1     1     2     0     0 -1.786434899E+02  8.594921926E+00 -1.886120430E+02  2.884213445E+02  1.250000000E+02  0.00000E+00  9.000E+00
      25     1     1     2     0     0  1.933133940E+02  6.261651977E+00  6.942240697E+01  2.405280590E+02  1.250000000E+02  0.00000E+00  9.000E+00
      21     1     1     2   511   502 -1.466990411E+01 -1.485657390E+01  3.793371054E+02  3.799112573E+02  5.394796609E-06  0.00000E+00  9.000E+00
#rwgt            1           1   2.7439571890880969E-002           6      248112           0
</event>
<event>
      5   9999  3.19816E-02  1.12950E+02 -1.00000E+00  1.21495E-01
      21    -1     0     0   502   512  0.000000000E+00  0.000000000E+00  1.533959452E+03  1.533959452E+03  0.000000000E+00  0.00000E+00  9.000E+00
      21    -1     0     0   501   502  0.000000000E+00  0.000000000E+00 -4.485317875E+02  4.485317875E+02  0.000000000E+00  0.00000E+00  9.000E+00
      25     1     1     2     0     0  1.282338619E+02  5.112174987E+02 -1.936734856E+02  5.752579190E+02  1.250000000E+02  0.00000E+00  9.000E+00
      25     1     1     2     0     0 -1.648609702E+02 -4.043715883E+02  1.145587806E+03  1.232352198E+03  1.250000000E+02  0.00000E+00  9.000E+00
      21     1     1     2   501   512  3.662710827E+01 -1.068459105E+02  1.335133449E+02  1.748811222E+02  4.264961200E-06  0.00000E+00  9.000E+00
#rwgt            1           1   3.2659869814200347E-002           6      248285           0
</event>
<event>
      5   9999  3.19816E-02  2.09022E+01 -1.00000E+00  1.64803E-01
       2    -1     0     0   502     0  0.000000000E+00  0.000000000E+00  1.702687442E+03  1.702687442E+03  0.000000000E+00  0.00000E+00  9.000E+00
      21    -1     0     0   501   502  0.000000000E+00  0.000000000E+00 -8.129693407E+02  8.129693407E+02  0.000000000E+00  0.00000E+00  9.000E+00
      25     1     1     2     0     0 -2.132769808E+02 -2.690406775E+01  1.137297853E+02  2.734417003E+02  1.250000000E+02  0.00000E+00  9.000E+00
      25     1     1     2     0     0  2.034600131E+02  4.535748337E+01 -7.128916453E+02  7.531884068E+02  1.250000000E+02  0.00000E+00  9.000E+00
       2     1     1     2   501     0  9.816967628E+00 -1.845341562E+01  1.488879962E+03  1.489026676E+03  3.051757812E-05  0.00000E+00  9.000E+00
#rwgt            1           1   2.4836924427880772E-002           6      248370           0
</event>
<event>
      5   9999  3.19816E-02  3.33834E+01 -1.00000E+00  1.49885E-01
      21    -1     0     0   502   511  0.000000000E+00  0.000000000E+00  3.558361440E+02  3.558361440E+02  0.000000000E+00  0.00000E+00  9.000E+00
      21    -1     0     0   501   502  0.000000000E+00  0.000000000E+00 -2.361502300E+02  2.361502300E+02  0.000000000E+00  0.00000E+00  9.000E+00
      25     1     1     2     0     0 -1.542571077E+01 -2.179642938E+02 -2.854088327E+01  2.533494977E+02  1.250000000E+02  0.00000E+00  9.000E+00
      25     1     1     2     0     0 -1.655910905E+01  2.084028321E+02  6.977273185E+01  2.533755684E+02  1.250000000E+02  0.00000E+00  9.000E+00
      21     1     1     2   501   511  3.198481982E+01  9.561461723E+00  7.845406541E+01  8.526130792E+01  1.348699152E-06  0.00000E+00  9.000E+00
#rwgt            1           1   3.0038781377789873E-002           6      248596           0
</event>
<event>
      5   9999  3.19816E-02  8.34148E+00 -1.00000E+00  2.05325E-01
      21    -1     0     0   502   512  0.000000000E+00  0.000000000E+00  4.597995421E+02  4.597995421E+02  0.000000000E+00  0.00000E+00  9.000E+00
      21    -1     0     0   501   502  0.000000000E+00  0.000000000E+00 -6.159793043E+02  6.159793043E+02  0.000000000E+00  0.00000E+00  9.000E+00
      25     1     1     2     0     0  4.596530933E+02 -2.222073193E+02 -1.194447690E+02  5.390260771E+02  1.250000000E+02  0.00000E+00  9.000E+00
      25     1     1     2     0     0 -4.514391038E+02  2.236601379E+02 -4.957197767E+01  5.214436716E+02  1.250000000E+02  0.00000E+00  9.000E+00
      21     1     1     2   501   512 -8.213989544E+00 -1.452818607E+00  1.283698440E+01  1.530909777E+01  0.000000000E+00  0.00000E+00  9.000E+00
#rwgt            1           1   2.6535316016920062E-002           6      248704           0
</event>
<event>
      5   9999  3.19816E-02  2.35456E+02 -1.00000E+00  1.09127E-01
      21    -1     0     0   511   501  0.000000000E+00  0.000000000E+00  5.658664693E+02  5.658664693E+02  0.000000000E+00  0.00000E+00  9.000E+00
      21    -1     0     0   501   502  0.000000000E+00  0.000000000E+00 -1.107826402E+03  1.107826402E+03  0.000000000E+00  0.00000E+00  9.000E+00
      25     1     1     2     0     0  5.848956244E+00 -4.880549886E+02 -3.369613054E+02  6.061351364E+02  1.250000000E+02  0.00000E+00  9.000E+00
      25     1     1     2     0     0 -2.334486717E+02  4.277405303E+02 -4.870009313E+02  7.001822267E+02  1.250000000E+02  0.00000E+00  9.000E+00
      21     1     1     2   511   502  2.275997154E+02  6.031445834E+01  2.820023042E+02  3.673755081E+02  5.394796609E-06  0.00000E+00  9.000E+00
#rwgt            1           1   3.0088809818918819E-002           6      249093           0
</event>
<event>
      5   9999  3.19816E-02  6.47099E+01 -1.00000E+00  1.32973E-01
      21    -1     0     0   502   512  0.000000000E+00  0.000000000E+00  3.191988159E+02  3.191988159E+02  0.000000000E+00  0.00000E+00  9.000E+00
      21    -1     0     0   501   502  0.000000000E+00  0.000000000E+00 -3.111192453E+02  3.111192453E+02  0.000000000E+00  0.00000E+00  9.000E+00
      25     1     1     2     0     0 -1.129516285E+02  1.076498968E+02 -1.587697597E+02  2.553025798E+02  1.250000000E+02  0.00000E+00  9.000E+00
      25     1     1     2     0     0  1.023372057E+02 -1.714832996E+02  4.909868360E+01  2.406555764E+02  1.250000000E+02  0.00000E+00  9.000E+00
      21     1     1     2   501   512  1.061442277E+01  6.383340283E+01  1.177506467E+02  1.343599050E+02  1.348699152E-06  0.00000E+00  9.000E+00
#rwgt            1           1   2.9457932812178247E-002           6      249146           0
</event>
<event>
      5   9999  3.19816E-02  1.88694E+02 -1.00000E+00  1.12576E-01
      21    -1     0     0   511   501  0.000000000E+00  0.000000000E+00  4.098816928E+02  4.098816928E+02  0.000000000E+00  0.00000E+00  9.000E+00
      21    -1     0     0   501   502  0.000000000E+00  0.000000000E+00 -1.340166242E+03  1.340166242E+03  0.000000000E+00  0.00000E+00  9.000E+00
      25     1     1     2     0     0 -2.587682429E+02 -4.440137243E+02 -6.186659054E+02  8.139297841E+02  1.250000000E+02  0.00000E+00  9.000E+00
      25     1     1     2     0     0  3.380328331E+02  2.727752049E+02 -4.968631715E+02  6.716922806E+02  1.250000000E+02  0.00000E+00  9.000E+00
      21     1     1     2   511   502 -7.926459025E+01  1.712385195E+02  1.852445276E+02  2.644258702E+02  6.031565972E-06  0.00000E+00  9.000E+00
#rwgt            2          11   4.3846509489876432E-003           6      249315           0
</event>
<event>
      5   9999  3.19816E-02  1.91621E+02 -1.00000E+00  1.12329E-01
      21    -1     0     0   502   512  0.000000000E+00  0.000000000E+00  1.517076158E+03  1.517076158E+03  0.000000000E+00  0.00000E+00  9.000E+00
      21    -1     0     0   501   502  0.000000000E+00  0.000000000E+00 -4.438470161E+02  4.438470161E+02  0.000000000E+00  0.00000E+00  9.000E+00
      25     1     1     2     0     0 -1.212418765E+00 -3.345371317E+02 -2.254913290E+02  4.223599198E+02  1.250000000E+02  0.00000E+00  9.000E+00
      25     1     1     2     0     0  1.124411542E+02  4.905718672E+02  5.116468238E+02  7.284993084E+02  1.250000000E+02  0.00000E+00  9.000E+00
      21     1     1     2   501   512 -1.112287354E+02 -1.560347355E+02  7.870736471E+02  8.100639458E+02  0.000000000E+00  0.00000E+00  9.000E+00
#rwgt            2          11   2.0905319383867720E-003           6      249440           0
</event>
<event>
      5   9999  3.19816E-02  3.91775E+01 -1.00000E+00  1.45402E-01
      21    -1     0     0   502   501  0.000000000E+00  0.000000000E+00  6.733976722E+02  6.733976722E+02  0.000000000E+00  0.00000E+00  9.000E+00
      21    -1     0     0   511   502  0.000000000E+00  0.000000000E+00 -5.481029805E+02  5.481029805E+02  0.000000000E+00  0.00000E+00  9.000E+00
      25     1     1     2     0     0 -6.494403711E+01  6.203707021E+01  6.252634978E+02  6.439299400E+02  1.250000000E+02  0.00000E+00  9.000E+00
      25     1     1     2     0     0  1.017715281E+02 -4.867232928E+01 -1.502643629E+02  2.256785731E+02  1.250000000E+02  0.00000E+00  9.000E+00
      21     1     1     2   511   501 -3.682749099E+01 -1.336474093E+01 -3.497044431E+02  3.518921396E+02  7.629394531E-06  0.00000E+00  9.000E+00
#rwgt            1           1   2.6476704465529771E-002           6      249505           0
</event>
<event>
      5   9999  3.19816E-02  3.03018E+02 -1.00000E+00  1.05451E-01
       2    -1     0     0   502     0  0.000000000E+00  0.000000000E+00  1.730883028E+03  1.730883028E+03  0.000000000E+00  0.00000E+00  9.000E+00
      21    -1     0     0   501   502  0.000000000E+00  0.000000000E+00 -2.535595808E+02  2.535595808E+02  0.000000000E+00  0.00000E+00  9.000E+00
      25     1     1     2     0     0 -2.740925381E+02 -4.726144602E+02  5.157442632E+02  7.616484048E+02  1.250000000E+02  0.00000E+00  9.000E+00
      25     1     1     2     0     0  3.750324908E+02  1.869030497E+02  6.841741523E+02  8.119737618E+02  1.250000000E+02  0.00000E+00  9.000E+00
       2     1     1     2   501     0 -1.009399526E+02  2.857114105E+02  2.774050315E+02  4.108204421E+02  6.607249480E-06  0.00000E+00  9.000E+00
#rwgt            1           1   3.0968292265468645E-002           6      249643           0
</event>
<event>
      5   9999  3.19816E-02  1.03426E+01 -1.00000E+00  1.94081E-01
      21    -1     0     0   502   501  0.000000000E+00  0.000000000E+00  2.946095500E+02  2.946095500E+02  0.000000000E+00  0.00000E+00  9.000E+00
      21    -1     0     0   501   511  0.000000000E+00  0.000000000E+00 -3.768070085E+02  3.768070085E+02  0.000000000E+00  0.00000E+00  9.000E+00
      25     1     1     2     0     0 -1.421945645E+02  2.487369626E+02 -1.218963926E+02  3.355191518E+02  1.250000000E+02  0.00000E+00  9.000E+00
      25     1     1     2     0     0  1.503836773E+02 -2.550542481E+02  4.456511896E+01  3.244672090E+02  1.250000000E+02  0.00000E+00  9.000E+00
      21     1     1     2   502   511 -8.189112825E+00  6.317285474E+00 -4.866184888E+00  1.143019772E+01  1.192092896E-07  0.00000E+00  9.000E+00
#rwgt            1           1   2.9712705558578884E-002           6      249712           0
</event>
<event>
      5   9999  3.19816E-02  8.97371E+01 -1.00000E+00  1.25981E-01
      21    -1     0     0   512   501  0.000000000E+00  0.000000000E+00  1.362671438E+03  1.362671438E+03  0.000000000E+00  0.00000E+00  9.000E+00
      21    -1     0     0   501   502  0.000000000E+00  0.000000000E+00 -1.609746743E+02  1.609746743E+02  0.000000000E+00  0.00000E+00  9.000E+00
      25     1     1     2     0     0  3.663411925E+01  2.157986858E+02  4.057791486E+01  2.553090258E+02  1.250000000E+02  0.00000E+00  9.000E+00
      25     1     1     2     0     0 -4.593007779E+01 -1.265444043E+02  1.115143464E+02  2.149034848E+02  1.250000000E+02  0.00000E+00  9.000E+00
      21     1     1     2   512   502  9.295958538E+00 -8.925428149E+01  1.049604502E+03  1.053433601E+03  1.525878906E-05  0.00000E+00  9.000E+00
#rwgt            2          11   1.8931038825519596E-003           6      250069           0
</event>
<event>
      5   9999  3.19816E-02  3.93423E+02 -1.00000E+00  1.01903E-01
       2    -1     0     0   502     0  0.000000000E+00  0.000000000E+00  4.320459665E+03  4.320459665E+03  0.000000000E+00  0.00000E+00  9.000E+00
      21    -1     0     0   501   502  0.000000000E+00  0.000000000E+00 -3.086889748E+02  3.086889748E+02  0.000000000E+00  0.00000E+00  9.000E+00
      25     1     1     2     0     0 -3.628447418E+02  4.730470086E+02  2.937136838E+02  6.762562436E+02  1.250000000E+02  0.00000E+00  9.000E+00
      25     1     1     2     0     0 -1.291291667E+01 -5.896151274E+02  7.662141996E+02  9.749471481E+02  1.250000000E+02  0.00000E+00  9.000E+00
       2     1     1     2   501     0  3.757576585E+02  1.165681189E+02  2.951842807E+03  2.977945248E+03  4.315837288E-05  0.00000E+00  9.000E+00
#rwgt            1           1   2.9805241692149372E-002           6      250089           0
</event>
<event>
      5   9999  3.19816E-02  2.69121E+01 -1.00000E+00  1.56390E-01
      21    -1     0     0   502   501  0.000000000E+00  0.000000000E+00  2.967577283E+02  2.967577283E+02  0.000000000E+00  0.00000E+00  9.000E+00
      21    -1     0     0   511   502  0.000000000E+00  0.000000000E+00 -7.120418836E+02  7.120418836E+02  0.000000000E+00  0.00000E+00  9.000E+00
      25     1     1     2     0     0  1.768183059E+02  2.934324641E+02  6.233789337E+01  3.699707249E+02  1.250000000E+02  0.00000E+00  9.000E+00
      25     1     1     2     0     0 -1.760612892E+02 -3.203339618E+02 -3.974432963E+02  5.542540919E+02  1.250000000E+02  0.00000E+00  9.000E+00
      21     1     1     2   511   501 -7.570166911E-01  2.690149769E+01 -8.017875231E+01  8.457479515E+01  9.536743164E-07  0.00000E+00  9.000E+00
#rwgt            1           1   2.7814864502744539E-002           6      250171           0
</event>
<event>
      5   9999  3.19816E-02  6.58739E+00 -1.00000E+00  2.19352E-01
      21    -1     0     0   512   501  0.000000000E+00  0.000000000E+00  3.250087721E+02  3.250087721E+02  0.000000000E+00  0.00000E+00  9.000E+00
      21    -1     0     0   501   502  0.000000000E+00  0.000000000E+00 -1.604165365E+03  1.604165365E+03  0.000000000E+00  0.00000E+00  9.000E+00
      25     1     1     2     0     0 -3.628584354E+01 -5.402566264E+02 -3.775265632E+02  6.718222911E+02  1.250000000E+02  0.00000E+00  9.000E+00
      25     1     1     2     0     0  4.240830478E+01  5.426875043E+02 -1.007140536E+03  1.151635902E+03  1.250000000E+02  0.00000E+00  9.000E+00
      21     1     1     2   512   502 -6.122461242E+00 -2.430877830E+00  1.055105067E+02  1.057159436E+02  1.348699152E-06  0.00000E+00  9.000E+00
#rwgt            1           1   2.8585418661285642E-002           6      250283           0
</event>
<event>
      5   9999  3.19816E-02  1.99394E+02 -1.00000E+00  1.11696E-01
      21    -1     0     0   502   501  0.000000000E+00  0.000000000E+00  7.039272175E+02  7.039272175E+02  0.000000000E+00  0.00000E+00  9.000E+00
      21    -1     0     0   501   511  0.000000000E+00  0.000000000E+00 -1.268861446E+03  1.268861446E+03  0.000000000E+00  0.00000E+00  9.000E+00
      25     1     1     2     0     0  1.787810444E+02  2.447165956E+02 -5.332848565E+02  6.259925017E+02  1.250000000E+02  0.00000E+00  9.000E+00
      25     1     1     2     0     0 -3.766979633E+02 -2.204895528E+02  5.608810336E+02  7.216159174E+02  1.250000000E+02  0.00000E+00  9.000E+00
      21     1     1     2   502   511  1.979169189E+02 -2.422704280E+01 -5.925304054E+02  6.251802442E+02  7.629394531E-06  0.00000E+00  9.000E+00
#rwgt            1           1   3.0287305446460879E-002           6      250650           0
</event>
<event>
      5   9999  3.19816E-02  6.68842E+01 -1.00000E+00  1.32230E-01
      21    -1     0     0   502   512  0.000000000E+00  0.000000000E+00  8.492483153E+02  8.492483153E+02  0.000000000E+00  0.00000E+00  9.000E+00
      21    -1     0     0   501   502  0.000000000E+00  0.000000000E+00 -9.570904956E+01  9.570904956E+01  0.000000000E+00  0.00000E+00  9.000E+00
      25     1     1     2     0     0 -1.515922917E+01  2.888052433E+01  6.565119459E+02  6.691015035E+02  1.250000000E+02  0.00000E+00  9.000E+00
      25     1     1     2     0     0  1.040747118E+01 -9.559572171E+01 -3.651202695E-01  1.577085628E+02  1.250000000E+02  0.00000E+00  9.000E+00
      21     1     1     2   501   512  4.751757993E+00  6.671519738E+01  9.739244019E+01  1.181472986E+02  1.907348633E-06  0.00000E+00  9.000E+00
#rwgt            1           1   2.6412931738312703E-002           6      250728           0
</event>
<event>
      5   9999  3.19816E-02  1.89157E+02 -1.00000E+00  1.12536E-01
      21    -1     0     0   502   511  0.000000000E+00  0.000000000E+00  1.580796585E+03  1.580796585E+03  0.000000000E+00  0.00000E+00  9.000E+00
      21    -1     0     0   501   502  0.000000000E+00  0.000000000E+00 -3.908741045E+02  3.908741045E+02  0.000000000E+00  0.00000E+00  9.000E+00
      25     1     1     2     0     0  2.797752490E+02  6.526195604E+01  6.220750638E+01  3.194183569E+02  1.250000000E+02  0.00000E+00  9.000E+00
      25     1     1     2     0     0 -3.144098912E+02 -2.512207916E+02 -8.074262326E+01  4.290802222E+02  1.250000000E+02  0.00000E+00  9.000E+00
      21     1     1     2   501   511  3.463464224E+01  1.859588356E+02  1.208457597E+03  1.223172110E+03  0.000000000E+00  0.00000E+00  9.000E+00
#rwgt            1           1   2.8891576255538794E-002           6      250822           0
</event>
<event>
      5   9999  3.19816E-02  4.16278E+02 -1.00000E+00  1.01167E-01
      21    -1     0     0   502   512  0.000000000E+00  0.000000000E+00  4.855050653E+02  4.855050653E+02  0.000000000E+00  0.00000E+00  9.000E+00
      21    -1     0     0   501   502  0.000000000E+00  0.000000000E+00 -1.395493714E+03  1.395493714E+03  0.000000000E+00  0.00000E+00  9.000E+00
      25     1     1     2     0     0 -4.377625989E+02 -1.650686928E+02 -4.381879070E+02  6.530830025E+02  1.250000000E+02  0.00000E+00  9.000E+00
      25     1     1     2     0     0  4.028742579E+02  5.798826078E+02 -3.122031642E+02  7.820916329E+02  1.250000000E+02  0.00000E+00  9.000E+00
      21     1     1     2   501   512  3.488834101E+01 -4.148139150E+02 -1.595975775E+02  4.458241438E+02  3.814697266E-06  0.00000E+00  9.000E+00
#rwgt            2          11   3.1220782203801797E-003           6      251061           0
</event>
<event>
      5   9999  3.19816E-02  3.40655E+01 -1.00000E+00  1.49303E-01
      21    -1     0     0   502   501  0.000000000E+00  0.000000000E+00  3.871266754E+01  3.871266754E+01  0.000000000E+00  0.00000E+00  9.000E+00
       1    -1     0     0   501     0  0.000000000E+00  0.000000000E+00 -2.376149641E+03  2.376149641E+03  0.000000000E+00  0.00000E+00  9.000E+00
      25     1     1     2     0     0 -1.319930456E+01 -2.980566413E+01 -5.620376673E+02  5.766922392E+02  1.250000000E+02  0.00000E+00  9.000E+00
      25     1     1     2     0     0  4.719724865E+01  3.195055205E+01 -1.199699827E+02  1.823902815E+02  1.250000000E+02  0.00000E+00  9.000E+00
       1     1     1     2   502     0 -3.399794409E+01 -2.144887926E+00 -1.655429323E+03  1.655779788E+03  2.157918644E-05  0.00000E+00  9.000E+00
#rwgt            1           1   2.8392846567981127E-002           6      251081           0
</event>
<event>
      5   9999  3.19816E-02  1.66003E+02 -1.00000E+00  1.14675E-01
      21    -1     0     0   502   501  0.000000000E+00  0.000000000E+00  4.383096364E+02  4.383096364E+02  0.000000000E+00  0.00000E+00  9.000E+00
      21    -1     0     0   501   511  0.000000000E+00  0.000000000E+00 -2.102511500E+03  2.102511500E+03  0.000000000E+00  0.00000E+00  9.000E+00
      25     1     1     2     0     0 -5.693163121E+02  1.389500593E+02 -1.837964546E+02  6.267649631E+02  1.250000000E+02  0.00000E+00  9.000E+00
      25     1     1     2     0     0  4.747800560E+02 -2.754046117E+02 -1.627473780E+02  5.859825175E+02  1.250000000E+02  0.00000E+00  9.000E+00
      21     1     1     2   502   511  9.453625605E+01  1.364545525E+02 -1.317658031E+03  1.328073656E+03  0.000000000E+00  0.00000E+00  9.000E+00
#rwgt            1           1   2.9850102684906076E-002           6      251160           0
</event>
<event>
      5   9999  3.52638E-02  2.07480E+02 -1.00000E+00  1.11071E-01
      -3    -1     0     0     0   501  0.000000000E+00  0.000000000E+00  6.472856987E+02  6.472856987E+02  0.000000000E+00  0.00000E+00  9.000E+00
      21    -1     0     0   501   502  0.000000000E+00  0.000000000E+00 -1.565567282E+02  1.565567282E+02  0.000000000E+00  0.00000E+00  9.000E+00
      25     1     1     2     0     0 -1.418298063E+02 -1.541038910E+01  3.886000537E+00  1.897189370E+02  1.250000000E+02  0.00000E+00  9.000E+00
      25     1     1     2     0     0 -3.503300369E+01 -9.306795577E+01  1.538033776E+02  2.217418199E+02  1.250000000E+02  0.00000E+00  9.000E+00
      -3     1     1     2     0   502  1.768628100E+02  1.084783449E+02  3.330395924E+02  3.923816700E+02  3.814697266E-06  0.00000E+00  9.000E+00
#rwgt            1           1   9.1330384017849389E-002           6      251267           0
</event>
<event>
      5   9999  3.19816E-02  3.18194E+01 -1.00000E+00  1.51285E-01
      21    -1     0     0   511   501  0.000000000E+00  0.000000000E+00  5.050361155E+02  5.050361155E+02  0.000000000E+00  0.00000E+00  9.000E+00
      21    -1     0     0   501   502  0.000000000E+00  0.000000000E+00 -1.544758609E+02  1.544758609E+02  0.000000000E+00  0.00000E+00  9.000E+00
      25     1     1     2     0     0  1.617727704E+02  1.198876840E+02  5.828174868E+01  2.440599276E+02  1.250000000E+02  0.00000E+00  9.000E+00
      25     1     1     2     0     0 -1.918712671E+02 -1.302100745E+02  2.614994131E+02  3.711821516E+02  1.250000000E+02  0.00000E+00  9.000E+00
      21     1     1     2   511   502  3.009849663E+01  1.032239055E+01  3.077909278E+01  4.426989721E+01  5.840038640E-07  0.00000E+00  9.000E+00
#rwgt            1           1   2.5774998616997700E-002           6      251304           0
</event>
<event>
      5   9999  3.19816E-02  6.07567E+01 -1.00000E+00  1.34413E-01
      21    -1     0     0   502   512  0.000000000E+00  0.000000000E+00  5.841540920E+02  5.841540920E+02  0.000000000E+00  0.00000E+00  9.000E+00
      21    -1     0     0   501   502  0.000000000E+00  0.000000000E+00 -1.546049962E+02  1.546049962E+02  0.000000000E+00  0.00000E+00  9.000E+00
      25     1     1     2     0     0  1.386442163E+02  3.730791161E+01 -6.182492409E+01  2.001534916E+02  1.250000000E+02  0.00000E+00  9.000E+00
      25     1     1     2     0     0 -9.363434098E+01  3.502540897E+00  3.067012284E+02  3.441951498E+02  1.250000000E+02  0.00000E+00  9.000E+00
      21     1     1     2   501   512 -4.500987530E+01 -4.081045251E+01  1.846727914E+02  1.944104467E+02  0.000000000E+00  0.00000E+00  9.000E+00
#rwgt            1           1   2.4339594432161629E-002           6      251446           0
</event>
<event>
      5   9999  3.27858E-02  3.57267E+01 -1.00000E+00  1.47950E-01
      21    -1     0     0   502   511  0.000000000E+00  0.000000000E+00  6.334252013E+02  6.334252013E+02  0.000000000E+00  0.00000E+00  9.000E+00
      21    -1     0     0   501   502  0.000000000E+00  0.000000000E+00 -2.037187296E+02  2.037187296E+02  0.000000000E+00  0.00000E+00  9.000E+00
      25     1     1     2     0     0 -2.340183500E+01 -1.009160915E+02  2.642987196E+00  1.623689896E+02  1.250000000E+02  0.00000E+00  9.000E+00
      25     1     1     2     0     0  2.964196600E+01  6.573856388E+01 -8.097921053E+01  1.654776041E+02  1.250000000E+02  0.00000E+00  9.000E+00
      21     1     1     2   501   511 -6.240130999E+00  3.517752760E+01  5.080426950E+02  5.092973371E+02  0.000000000E+00  0.00000E+00  9.000E+00
#rwgt            1           1   8.4803131144768923E-002           6      251542           0
</event>
<event>
      5   9999  3.19816E-02  1.29310E+02 -1.00000E+00  1.19007E-01
      21    -1     0     0   502   501  0.000000000E+00  0.000000000E+00  4.207483782E+02  4.207483782E+02  0.000000000E+00  0.00000E+00  9.000E+00
      21    -1     0     0   501   512  0.000000000E+00  0.000000000E+00 -3.762689003E+03  3.762689003E+03  0.000000000E+00  0.00000E+00  9.000E+00
      25     1     1     2     0     0 -6.770963364E+02  1.611373271E+02  7.042483951E+00  7.071769818E+02  1.250000000E+02  0.00000E+00  9.000E+00
      25     1     1     2     0     0  6.372143037E+02 -2.841431748E+02 -2.015127158E+03  2.136151183E+03  1.250000000E+02  0.00000E+00  9.000E+00
      21     1     1     2   502   512  3.988203272E+01  1.230058477E+02 -1.333855950E+03  1.340109216E+03  2.157918644E-05  0.00000E+00  9.000E+00
#rwgt            1           1   3.1758937456103198E-002           6      251633           0
</event>
<event>
      5   9999  3.19816E-02  2.89837E+01 -1.00000E+00  1.54087E-01
      21    -1     0     0   502   511  0.000000000E+00  0.000000000E+00  4.651710191E+02  4.651710191E+02  0.000000000E+00  0.00000E+00  9.000E+00
      21    -1     0     0   501   502  0.000000000E+00  0.000000000E+00 -1.062749956E+03  1.062749956E+03  0.000000000E+00  0.00000E+00  9.000E+00
      25     1     1     2     0     0 -6.797461849E+02 -9.799911672E+01 -2.292267709E+02  7.347303011E+02  1.250000000E+02  0.00000E+00  9.000E+00
      25     1     1     2     0     0  6.507706076E+02  9.731252578E+01 -3.679831252E+02  7.642046138E+02  1.250000000E+02  0.00000E+00  9.000E+00
      21     1     1     2   501   511  2.897557733E+01  6.865909375E-01 -3.690406891E-01  2.898606009E+01  2.446809690E-07  0.00000E+00  9.000E+00
#rwgt            1           1   2.9720096805045084E-002           6      251717           0
</event>
<event>
      5   9999  3.19816E-02  6.84580E+01 -1.00000E+00  1.31713E-01
      21    -1     0     0   502   501  0.000000000E+00  0.000000000E+00  6.895721662E+02  6.895721662E+02  0.000000000E+00  0.00000E+00  9.000E+00
      21    -1     0     0   501   512  0.000000000E+00  0.000000000E+00 -1.336160782E+03  1.336160782E+03  0.000000000E+00  0.00000E+00  9.000E+00
      25     1     1     2     0     0 -6.272212344E+01  1.860543575E+01  6.745758286E+02  6.891718041E+02  1.250000000E+02  0.00000E+00  9.000E+00
      25     1     1     2     0     0 -4.041616734E-02 -4.594322787E+01 -8.203781579E+02  8.311173827E+02  1.250000000E+02  0.00000E+00  9.000E+00
      21     1     1     2   502   512  6.276253961E+01  2.733779212E+01 -5.007862869E+02  5.054437619E+02  5.394796609E-06  0.00000E+00  9.000E+00
#rwgt            1           1   3.5262957796308766E-002           6      251890           0
</event>
<event>
      5   9999  3.19816E-02  6.85442E+01 -1.00000E+00  1.31685E-01
      21    -1     0     0   502   511  0.000000000E+00  0.000000000E+00  2.689841287E+02  2.689841287E+02  0.000000000E+00  0.00000E+00  9.000E+00
      21    -1     0     0   501   502  0.000000000E+00  0.000000000E+00 -1.071708931E+03  1.071708931E+03  0.000000000E+00  0.00000E+00  9.000E+00
      25     1     1     2     0     0  6.245619769E+01 -3.580499952E+02 -7.248678912E+02  8.204626959E+02  1.250000000E+02  0.00000E+00  9.000E+00
      25     1     1     2     0     0 -1.120558535E+02  4.053593858E+02 -9.642323574E+01  4.492161911E+02  1.250000000E+02  0.00000E+00  9.000E+00
      21     1     1     2   501   511  4.959965584E+01 -4.730939067E+01  1.856632463E+01  7.101417264E+01  1.305872339E-06  0.00000E+00  9.000E+00
#rwgt            1           1   3.2170597558313141E-002           6      252019           0
</event>
<event>
      5   9999  3.19816E-02  7.98891E+01 -1.00000E+00  1.28379E-01
      21    -1     0     0   512   501  0.000000000E+00  0.000000000E+00  1.242693363E+02  1.242693363E+02  0.000000000E+00  0.00000E+00  9.000E+00
      21    -1     0     0   501   502  0.000000000E+00  0.000000000E+00 -8.814137208E+02  8.814137208E+02  0.000000000E+00  0.00000E+00  9.000E+00
      25     1     1     2     0     0  2.822191067E+02  2.303925424E+01 -3.015535175E+02  4.321318726E+02  1.250000000E+02  0.00000E+00  9.000E+00
      25     1     1     2     0     0 -2.145695306E+02 -6.553402412E+01 -4.030890625E+02  4.779545837E+02  1.250000000E+02  0.00000E+00  9.000E+00
      21     1     1     2   512   502 -6.764957611E+01  4.249476988E+01 -5.250180445E+01  9.559660080E+01  9.536743164E-07  0.00000E+00  9.000E+00
#rwgt            1           1   2.8858568875758089E-002           6      252119           0
</event>
<event>
      5   9999  3.19816E-02  1.22662E+02 -1.00000E+00  1.19965E-01
      21    -1     0     0   511   501  0.000000000E+00  0.000000000E+00  1.152812335E+03  1.152812335E+03  0.000000000E+00  0.00000E+00  9.000E+00
      21    -1     0     0   501   502  0.000000000E+00  0.000000000E+00 -1.184476076E+02  1.184476076E+02  0.000000000E+00  0.00000E+00  9.000E+00
      25     1     1     2     0     0  2.592838947E+02  8.046989806E+01  2.684451322E+02  4.017353999E+02  1.250000000E+02  0.00000E+00  9.000E+00
      25     1     1     2     0     0 -2.270975717E+02  3.789347677E+01  3.583831052E+02  4.439286798E+02  1.250000000E+02  0.00000E+00  9.000E+00
      21     1     1     2   511   502 -3.218632299E+01 -1.183633748E+02  4.075364895E+02  4.255958625E+02  5.394796609E-06  0.00000E+00  9.000E+00
#rwgt            1           1   2.7069472364369861E-002           6      252223           0
</event>
<event>
      5   9999  3.19816E-02  4.58149E+01 -1.00000E+00  1.41277E-01
      21    -1     0     0   502   501  0.000000000E+00  0.000000000E+00  5.360166844E+02  5.360166844E+02  0.000000000E+00  0.00000E+00  9.000E+00
      21    -1     0     0   501   512  0.000000000E+00  0.000000000E+00 -8.583391049E+02  8.583391049E+02  0.000000000E+00  0.00000E+00  9.000E+00
      25     1     1     2     0     0  4.644064194E+02 -4.040327238E+02 -1.213677281E+02  6.397428309E+02  1.250000000E+02  0.00000E+00  9.000E+00
      25     1     1     2     0     0 -5.100735280E+02  4.003560446E+02 -1.345468892E+02  6.739345902E+02  1.250000000E+02  0.00000E+00  9.000E+00
      21     1     1     2   502   512  4.566710861E+01  3.676679137E+00 -6.640780318E+01  8.067836824E+01  9.536743164E-07  0.00000E+00  9.000E+00
#rwgt            1           1   2.8607060960622360E-002           6      252279           0
</event>
<event>
      5   9999  3.19816E-02  1.22236E+02 -1.00000E+00  1.20029E-01
      21    -1     0     0   511   501  0.000000000E+00  0.000000000E+00  5.484580503E+02  5.484580503E+02  0.000000000E+00  0.00000E+00  9.000E+00
      21    -1     0     0   501   502  0.000000000E+00  0.000000000E+00 -4.528868269E+02  4.528868269E+02  0.000000000E+00  0.00000E+00  9.000E+00
      25     1     1     2     0     0 -2.131724476E+02  7.624637744E+01 -2.828843087E+02  3.832812735E+02  1.250000000E+02  0.00000E+00  9.000E+00
      25     1     1     2     0     0  3.054667637E+02 -1.563923859E+02  2.644918659E+02  4.509428669E+02  1.250000000E+02  0.00000E+00  9.000E+00
      21     1     1     2   511   502 -9.229431611E+01  8.014600846E+01  1.139636662E+02  1.671207368E+02  1.907348633E-06  0.00000E+00  9.000E+00
#rwgt            1           1   3.0402269162954569E-002           6      252408           0
</event>
<event>
      5   9999  3.19816E-02  3.02489E+01 -1.00000E+00  1.52791E-01
      21    -1     0     0   502   512  0.000000000E+00  0.000000000E+00  1.572364434E+03  1.572364434E+03  0.000000000E+00  0.00000E+00  9.000E+00
      21    -1     0     0   501   502  0.000000000E+00  0.000000000E+00 -9.676645866E+01  9.676645866E+01  0.000000000E+00  0.00000E+00  9.000E+00
      25     1     1     2     0     0  9.099565085E+01  2.579851049E+02  1.110009519E+03  1.150035937E+03  1.250000000E+02  0.00000E+00  9.000E+00
      25     1     1     2     0     0 -7.748018209E+01 -2.309235299E+02  1.723635663E+02  3.235166985E+02  1.250000000E+02  0.00000E+00  9.000E+00
      21     1     1     2   501   512 -1.351546876E+01 -2.706157501E+01  1.932248901E+02  1.955782577E+02  2.697398305E-06  0.00000E+00  9.000E+00
#rwgt            1           1   2.9087847908106455E-002           6      252466           0
</event>
<event>
      5   9999  3.19816E-02  2.88539E+02 -1.00000E+00  1.06145E-01
       2    -1     0     0   502     0  0.000000000E+00  0.000000000E+00  3.727267351E+03  3.727267351E+03  0.000000000E+00  0.00000E+00  9.000E+00
      21    -1     0     0   501   502  0.000000000E+00  0.000000000E+00 -1.843466945E+03  1.843466945E+03  0.000000000E+00  0.00000E+00  9.000E+00
      25     1     1     2     0     0  6.062720159E+02  6.185254999E+02 -1.526534503E+03  1.759565896E+03  1.250000000E+02  0.00000E+00  9.000E+00
      25     1     1     2     0     0 -3.297658623E+02 -7.009833769E+02  6.045078403E+02  9.905442684E+02  1.250000000E+02  0.00000E+00  9.000E+00
       2     1     1     2   501     0 -2.765061536E+02  8.245787702E+01  2.805827068E+03  2.820624132E+03  6.103515625E-05  0.00000E+00  9.000E+00
#rwgt            2          18   4.2386431813254705E-003           6      252656           0
</event>
<event>
      5   9999  3.19816E-02  7.00931E+01 -1.00000E+00  1.31191E-01
      21    -1     0     0   502   501  0.000000000E+00  0.000000000E+00  1.485423991E+02  1.485423991E+02  0.000000000E+00  0.00000E+00  9.000E+00
      -2    -1     0     0     0   502  0.000000000E+00  0.000000000E+00 -3.740816267E+02  3.740816267E+02  0.000000000E+00  0.00000E+00  9.000E+00
      25     1     1     2     0     0  5.830021358E+01 -9.718805745E+01  4.553237829E+01  1.747645012E+02  1.250000000E+02  0.00000E+00  9.000E+00
      25     1     1     2     0     0 -7.350879957E+01  2.876480472E+01 -1.795951202E+02  2.326163468E+02  1.250000000E+02  0.00000E+00  9.000E+00
      -2     1     1     2     0   501  1.520858599E+01  6.842325273E+01 -9.147648565E+01  1.152431778E+02  1.348699152E-06  0.00000E+00  9.000E+00
#rwgt            1           1   2.6889320820516344E-002           6      252690           0
</event>
<event>
      5   9999  3.19816E-02  9.31739E+01 -1.00000E+00  1.25225E-01
      21    -1     0     0   502   501  0.000000000E+00  0.000000000E+00  2.420965025E+02  2.420965025E+02  0.000000000E+00  0.00000E+00  9.000E+00
      21    -1     0     0   501   511  0.000000000E+00  0.000000000E+00 -1.085539048E+03  1.085539048E+03  0.000000000E+00  0.00000E+00  9.000E+00
      25     1     1     2     0     0  2.022973082E+02 -3.198163165E+02 -4.847816885E+02  6.275706834E+02  1.250000000E+02  0.00000E+00  9.000E+00
      25     1     1     2     0     0 -1.905098486E+02  4.122416039E+02 -1.910421811E+02  5.082905246E+02  1.250000000E+02  0.00000E+00  9.000E+00
      21     1     1     2   502   511 -1.178745960E+01 -9.242528746E+01 -1.676186761E+02  1.917743427E+02  3.303624740E-06  0.00000E+00  9.000E+00
#rwgt            1           1   2.8020388610877654E-002           6      252731           0
</event>
<event>
      5   9999  3.19816E-02  1.10471E+02 -1.00000E+00  1.21913E-01
      21    -1     0     0   502   512  0.000000000E+00  0.000000000E+00  9.092664214E+02  9.092664214E+02  0.000000000E+00  0.00000E+00  9.000E+00
      21    -1     0     0   501   502  0.000000000E+00  0.000000000E+00 -1.023558621E+02  1.023558621E+02  0.000000000E+00  0.00000E+00  9.000E+00
      25     1     1     2     0     0  1.106919537E+01  2.319672315E+02  4.353534683E+02  5.090078250E+02  1.250000000E+02  0.00000E+00  9.000E+00
      25     1     1     2     0     0 -6.505172509E+01 -1.355837873E+02  1.240624897E+02  2.315840920E+02  1.250000000E+02  0.00000E+00  9.000E+00
      21     1     1     2   501   512  5.398252972E+01 -9.638344423E+01  2.474946014E+02  2.710303665E+02  3.814697266E-06  0.00000E+00  9.000E+00
#rwgt            1           1   2.2734860937566513E-002           6      252809           0
</event>
<event>
      5   9999  3.19816E-02  2.54183E+01 -1.00000E+00  1.58213E-01
      21    -1     0     0   511   501  0.000000000E+00  0.000000000E+00  1.238786161E+02  1.238786161E+02  0.000000000E+00  0.00000E+00  9.000E+00
      21    -1     0     0   501   502  0.000000000E+00  0.000000000E+00 -8.294346656E+02  8.294346656E+02  0.000000000E+00  0.00000E+00  9.000E+00
      25     1     1     2     0     0  5.005541644E+01  1.182687321E+02  3.006735368E+01  1.817197938E+02  1.250000000E+02  0.00000E+00  9.000E+00
      25     1     1     2     0     0 -5.499529796E+01 -9.333509217E+01 -7.256903450E+02  7.443032978E+02  1.250000000E+02  0.00000E+00  9.000E+00
      21     1     1     2   511   502  4.939881526E+00 -2.493363994E+01 -9.933058161E+00  2.729019008E+01  4.460403188E-07  0.00000E+00  9.000E+00
#rwgt            1           1   2.7775529489954529E-002           6      252900           0
</event>
<event>
      5   9999  3.19816E-02  4.86597E+02 -1.00000E+00  9.91884E-02
      21    -1     0     0   502   501  0.000000000E+00  0.000000000E+00  3.381126324E+02  3.381126324E+02  0.000000000E+00  0.00000E+00  9.000E+00
       2    -1     0     0   501     0  0.000000000E+00  0.000000000E+00 -5.186370060E+03  5.186370060E+03  0.000000000E+00  0.00000E+00  9.000E+00
      25     1     1     2     0     0  5.201996941E+02  3.345171351E+02 -2.847760779E+02  6.922657365E+02  1.250000000E+02  0.00000E+00  9.000E+00
      25     1     1     2     0     0 -8.411812102E+02 -7.002316196E+02 -3.093307424E+03  3.283608681E+03  1.250000000E+02  0.00000E+00  9.000E+00
       2     1     1     2   502     0  3.209815161E+02  3.657144845E+02 -1.470173925E+03  1.548608275E+03  2.157918644E-05  0.00000E+00  9.000E+00
#rwgt            2          13   1.0607728675562358E-003           6      253009           0
</event>
<event>
      5   9999  3.19816E-02  1.36486E+02 -1.00000E+00  1.18042E-01
      21    -1     0     0   511   501  0.000000000E+00  0.000000000E+00  4.143650835E+02  4.143650835E+02  0.000000000E+00  0.00000E+00  9.000E+00
      21    -1     0     0   501   502  0.000000000E+00  0.000000000E+00 -4.367186349E+02  4.367186349E+02  0.000000000E+00  0.00000E+00  9.000E+00
      25     1     1     2     0     0  9.975502596E+01 -2.393154297E+02 -3.005004402E+01  2.893975557E+02  1.250000000E+02  0.00000E+00  9.000E+00
      25     1     1     2     0     0 -8.478517806E+01  1.036526114E+02 -2.260819126E+02  2.909818232E+02  1.250000000E+02  0.00000E+00  9.000E+00
      21     1     1     2   511   502 -1.496984790E+01  1.356628183E+02  2.337784053E+02  2.707043394E+02  3.814697266E-06  0.00000E+00  9.000E+00
#rwgt            1           1   3.0639467707789522E-002           6      253028           0
</event>
<event>
      5   9999  3.19816E-02  5.07793E+01 -1.00000E+00  1.38693E-01
      21    -1     0     0   502   501  0.000000000E+00  0.000000000E+00  1.266282496E+03  1.266282496E+03  0.000000000E+00  0.00000E+00  9.000E+00
      21    -1     0     0   512   502  0.000000000E+00  0.000000000E+00 -6.372084757E+01  6.372084757E+01  0.000000000E+00  0.00000E+00  9.000E+00
      25     1     1     2     0     0 -1.566813353E+02  5.421482228E+01  9.334450753E+02  9.562599000E+02  1.250000000E+02  0.00000E+00  9.000E+00
      25     1     1     2     0     0  1.139657313E+02 -8.167229478E+01  2.621331879E+02  3.224862165E+02  1.250000000E+02  0.00000E+00  9.000E+00
      21     1     1     2   512   501  4.271560403E+01  2.745747250E+01  6.983384900E+00  5.125722670E+01  1.452691270E-06  0.00000E+00  9.000E+00
#rwgt            1           1   3.1432120119037302E-002           6      253117           0
</event>
<event>
      5   9999  3.19816E-02  5.21545E+01 -1.00000E+00  1.38038E-01
       2    -1     0     0   502     0  0.000000000E+00  0.000000000E+00  2.831400731E+03  2.831400731E+03  0.000000000E+00  0.00000E+00  9.000E+00
      21    -1     0     0   501   502  0.000000000E+00  0.000000000E+00 -6.970936778E+01  6.970936778E+01  0.000000000E+00  0.00000E+00  9.000E+00
      25     1     1     2     0     0 -3.267097268E+01  2.042529574E+02  2.888762520E+02  3.766445964E+02  1.250000000E+02  0.00000E+00  9.000E+00
      25     1     1     2     0     0  1.258229959E+00 -1.626196869E+02  3.869813712E+02  4.379798253E+02  1.250000000E+02  0.00000E+00  9.000E+00
       2     1     1     2   501     0  3.141274272E+01 -4.163327048E+01  2.085833740E+03  2.086485677E+03  5.285799584E-05  0.00000E+00  9.000E+00
#rwgt            1           1   2.7529832876180008E-002           6      253197           0
</event>
<event>
      5   9999  4.39413E-02  1.57861E+02 -1.00000E+00  1.15521E-01
      21    -1     0     0   502   511  0.000000000E+00  0.000000000E+00  6.357441538E+01  6.357441538E+01  0.000000000E+00  0.00000E+00  9.000E+00
      21    -1     0     0   501   502  0.000000000E+00  0.000000000E+00 -1.746881859E+03  1.746881859E+03  0.000000000E+00  0.00000E+00  9.000E+00
      25     1     1     2     0     0 -5.073820586E+01  1.021926875E+02 -1.224771346E+03  1.236409140E+03  1.250000000E+02  0.00000E+00  9.000E+00
      25     1     1     2     0     0  3.694483730E+01  5.506473674E+01 -3.628170174E+02  3.894332219E+02  1.250000000E+02  0.00000E+00  9.000E+00
      21     1     1     2   501   511  1.379336856E+01 -1.572574242E+02 -9.571908048E+01  1.846139129E+02  3.568322551E-06  0.00000E+00  9.000E+00
#rwgt            1           1  0.12144609235717924                6      253286           0
</event>
<event>
      5   9999  3.19816E-02  1.25211E+02 -1.00000E+00  1.19590E-01
      21    -1     0     0   502   501  0.000000000E+00  0.000000000E+00  8.220937150E+02  8.220937150E+02  0.000000000E+00  0.00000E+00  9.000E+00
       2    -1     0     0   501     0  0.000000000E+00  0.000000000E+00 -4.471530931E+02  4.471530931E+02  0.000000000E+00  0.00000E+00  9.000E+00
      25     1     1     2     0     0  2.264178938E+02  2.610173643E+02 -1.147836734E+02  3.849615809E+02  1.250000000E+02  0.00000E+00  9.000E+00
      25     1     1     2     0     0 -3.407021227E+02 -2.098606392E+02  5.900686015E+02  7.238268983E+02  1.250000000E+02  0.00000E+00  9.000E+00
       2     1     1     2   502     0  1.142842289E+02 -5.115672509E+01 -1.003443063E+02  1.604583288E+02  2.336015456E-06  0.00000E+00  9.000E+00
#rwgt            1           1   2.8896258095882837E-002           6      253314           0
</event>
<event>
      5   9999  3.19816E-02  1.25144E+01 -1.00000E+00  1.85132E-01
      21    -1     0     0   502   501  0.000000000E+00  0.000000000E+00  3.380225867E+02  3.380225867E+02  0.000000000E+00  0.00000E+00  9.000E+00
      21    -1     0     0   501   511  0.000000000E+00  0.000000000E+00 -9.530222479E+02  9.530222479E+02  0.000000000E+00  0.00000E+00  9.000E+00
      25     1     1     2     0     0 -2.765102089E+02 -3.148310296E+02 -3.689871118E+02  5.721476746E+02  1.250000000E+02  0.00000E+00  9.000E+00
      25     1     1     2     0     0  2.838253846E+02  3.046772594E+02  3.633849639E+01  4.362689167E+02  1.250000000E+02  0.00000E+00  9.000E+00
      21     1     1     2   502   511 -7.315175714E+00  1.015377015E+01 -2.823510458E+02  2.826282433E+02  5.394796609E-06  0.00000E+00  9.000E+00
#rwgt            1           1   2.9316438787917676E-002           6      253354           0
</event>
<event>
      5   9999  3.19816E-02  5.98491E+01 -1.00000E+00  1.34762E-01
      21    -1     0     0   502   501  0.000000000E+00  0.000000000E+00  4.306756797E+02  4.306756797E+02  0.000000000E+00  0.00000E+00  9.000E+00
       2    -1     0     0   501     0  0.000000000E+00  0.000000000E+00 -1.027514775E+03  1.027514775E+03  0.000000000E+00  0.00000E+00  9.000E+00
      25     1     1     2     0     0  5.634065523E+01 -2.797084459E+02 -3.459421589E+01  3.134211925E+02  1.250000000E+02  0.00000E+00  9.000E+00
      25     1     1     2     0     0 -1.570501961E+00  3.038361380E+02  1.970567776E+02  3.831125668E+02  1.250000000E+02  0.00000E+00  9.000E+00
       2     1     1     2   502     0 -5.477015327E+01 -2.412769210E+01 -7.593016569E+02  7.616566953E+02  1.525878906E-05  0.00000E+00  9.000E+00
#rwgt            1           1   2.6704337850157450E-002           6      253604           0
</event>
<event>
      5   9999  3.19816E-02  2.16910E+01 -1.00000E+00  1.63512E-01
      21    -1     0     0   502   501  0.000000000E+00  0.000000000E+00  7.038287308E+02  7.038287308E+02  0.000000000E+00  0.00000E+00  9.000E+00
      21    -1     0     0   501   511  0.000000000E+00  0.000000000E+00 -2.120582232E+02  2.120582232E+02  0.000000000E+00  0.00000E+00  9.000E+00
      25     1     1     2     0     0 -4.003748262E+01 -1.635629324E+02  2.071941128E+02  2.948054159E+02  1.250000000E+02  0.00000E+00  9.000E+00
      25     1     1     2     0     0  4.744525923E+01  1.839498425E+02  4.233831778E+02  4.805901709E+02  1.250000000E+02  0.00000E+00  9.000E+00
      21     1     1     2   502   511 -7.407776611E+00 -2.038691013E+01 -1.388067829E+02  1.404913671E+02  1.907348633E-06  0.00000E+00  9.000E+00
#rwgt            1           1   3.5088026468447053E-002           6      253700           0
</event>
<event>
      5   9999  3.19816E-02  2.33976E+02 -1.00000E+00  1.09222E-01
      21    -1     0     0   502   501  0.000000000E+00  0.000000000E+00  9.119175775E+02  9.119175775E+02  0.000000000E+00  0.00000E+00  9.000E+00
       2    -1     0     0   501     0  0.000000000E+00  0.000000000E+00 -1.199783902E+03  1.199783902E+03  0.000000000E+00  0.00000E+00  9.000E+00
      25     1     1     2     0     0 -7.406565691E+02  6.431835819E+02 -2.464894424E+02  1.019136555E+03  1.250000000E+02  0.00000E+00  9.000E+00
      25     1     1     2     0     0  5.177992649E+02 -5.719129944E+02  1.431813450E+02  7.945605386E+02  1.250000000E+02  0.00000E+00  9.000E+00
       2     1     1     2   502     0  2.228573042E+02 -7.127058749E+01 -1.845582272E+02  2.980043857E+02  5.394796609E-06  0.00000E+00  9.000E+00
#rwgt            2          13   7.0461767517468119E-004           6      253867           0
</event>
<event>
      5   9999  3.19816E-02  1.27356E+01 -1.00000E+00  1.84352E-01
      21    -1     0     0   502   511  0.000000000E+00  0.000000000E+00  1.119577594E+03  1.119577594E+03  0.000000000E+00  0.00000E+00  9.000E+00
      21    -1     0     0   501   502  0.000000000E+00  0.000000000E+00 -7.677482526E+01  7.677482526E+01  0.000000000E+00  0.00000E+00  9.000E+00
      25     1     1     2     0     0  1.594640341E+02 -1.353398611E+02  2.091080363E+02  3.210869462E+02  1.250000000E+02  0.00000E+00  9.000E+00
      25     1     1     2     0     0 -1.649319058E+02  1.468419596E+02  7.900601364E+02  8.298102878E+02  1.250000000E+02  0.00000E+00  9.000E+00
      21     1     1     2   501   511  5.467871651E+00 -1.150209848E+01  4.363459589E+01  4.545518505E+01  6.743495762E-07  0.00000E+00  9.000E+00
#rwgt            1           1   2.6013234927150040E-002           6      253886           0
</event>
<event>
      5   9999  3.19816E-02  1.05066E+02 -1.00000E+00  1.22870E-01
      21    -1     0     0   502   501  0.000000000E+00  0.000000000E+00  5.482385168E+02  5.482385168E+02  0.000000000E+00  0.00000E+00  9.000E+00
      21    -1     0     0   501   512  0.000000000E+00  0.000000000E+00 -1.289356790E+03  1.289356790E+03  0.000000000E+00  0.00000E+00  9.000E+00
      25     1     1     2     0     0  1.316492167E+02  4.877992504E+01  8.316522241E+00  1.881625943E+02  1.250000000E+02  0.00000E+00  9.000E+00
      25     1     1     2     0     0 -1.373530247E+02 -1.536911720E+02  4.151791290E+02  4.800890948E+02  1.250000000E+02  0.00000E+00  9.000E+00
      21     1     1     2   502   512  5.703808029E+00  1.049112470E+02 -1.164613924E+03  1.169343617E+03  1.525878906E-05  0.00000E+00  9.000E+00
#rwgt            1           1   2.7080354788542413E-002           6      254065           0
</event>
<event>
      5   9999  3.19816E-02  1.05214E+02 -1.00000E+00  1.22843E-01
       2    -1     0     0   502     0  0.000000000E+00  0.000000000E+00  1.885935253E+03  1.885935253E+03  0.000000000E+00  0.00000E+00  9.000E+00
      21    -1     0     0   501   502  0.000000000E+00  0.000000000E+00 -1.589631902E+02  1.589631902E+02  0.000000000E+00  0.00000E+00  9.000E+00
      25     1     1     2     0     0 -8.033287678E+01 -3.076069882E+02  1.164756548E+02  3.609252117E+02  1.250000000E+02  0.00000E+00  9.000E+00
      25     1     1     2     0     0 -2.486279840E+01  3.056631018E+02  7.878108325E+02  8.545870338E+02  1.250000000E+02  0.00000E+00  9.000E+00
       2     1     1     2   501     0  1.051956752E+02  1.943886392E+00  8.226855755E+02  8.293861977E+02  1.078959322E-05  0.00000E+00  9.000E+00
#rwgt            1           1   2.8028473104399966E-002           6      254141           0
</event>
<event>
      5   9999  3.19816E-02  1.93668E+01 -1.00000E+00  1.67530E-01
      21    -1     0     0   502   501  0.000000000E+00  0.000000000E+00  1.201662342E+03  1.201662342E+03  0.000000000E+00  0.00000E+00  9.000E+00
      21    -1     0     0   511   502  0.000000000E+00  0.000000000E+00 -1.622877350E+02  1.622877350E+02  0.000000000E+00  0.00000E+00  9.000E+00
      25     1     1     2     0     0  1.645887277E+02 -3.869086322E+02  5.433262433E+02  6.982951708E+02  1.250000000E+02  0.00000E+00  9.000E+00
      25     1     1     2     0     0 -1.499008766E+02  3.742856402E+02  4.863722685E+02  6.440054323E+02  1.250000000E+02  0.00000E+00  9.000E+00
      21     1     1     2   511   501 -1.468785105E+01  1.262299199E+01  9.676095024E+00  2.164947367E+01  4.298152060E-07  0.00000E+00  9.000E+00
#rwgt            1           1   2.8361036748081634E-002           6      254243           0
</event>
<event>
      5   9999  3.19816E-02  1.12454E+02 -1.00000E+00  1.21578E-01
      21    -1     0     0   502   501  0.000000000E+00  0.000000000E+00  5.749969975E+02  5.749969975E+02  0.000000000E+00  0.00000E+00  9.000E+00
      21    -1     0     0   512   502  0.000000000E+00  0.000000000E+00 -1.761446072E+03  1.761446072E+03  0.000000000E+00  0.00000E+00  9.000E+00
      25     1     1     2     0     0 -3.408272590E+02  5.329269958E+02 -1.083777138E+03  1.261099634E+03  1.250000000E+02  0.00000E+00  9.000E+00
      25     1     1     2     0     0  3.288746361E+02 -4.211104775E+02  3.218605627E+02  6.361696176E+02  1.250000000E+02  0.00000E+00  9.000E+00
      21     1     1     2   512   501  1.195262293E+01 -1.118165183E+02 -4.245324998E+02  4.391738179E+02  5.394796609E-06  0.00000E+00  9.000E+00
#rwgt            1           1   3.3939940320380661E-002           6      254390           0
</event>
<event>
      5   9999  3.19816E-02  4.45217E+02 -1.00000E+00  1.00305E-01
      21    -1     0     0   511   501  0.000000000E+00  0.000000000E+00  7.393677019E+02  7.393677019E+02  0.000000000E+00  0.00000E+00  9.000E+00
      21    -1     0     0   501   502  0.000000000E+00  0.000000000E+00 -6.206344186E+02  6.206344186E+02  0.000000000E+00  0.00000E+00  9.000E+00
      25     1     1     2     0     0  2.706121694E+02 -2.992538843E+02  1.413319798E+01  4.226210841E+02  1.250000000E+02  0.00000E+00  9.000E+00
      25     1     1     2     0     0 -7.430723995E+01 -1.003494507E+02 -2.918960086E+02  3.412035434E+02  1.250000000E+02  0.00000E+00  9.000E+00
      21     1     1     2   511   502 -1.963049294E+02  3.996033350E+02  3.964960939E+02  5.961774930E+02  5.394796609E-06  0.00000E+00  9.000E+00
#rwgt            2          11   3.3799407518149871E-003           6      254572           0
</event>
<event>
      5   9999  3.19816E-02  5.54584E+01 -1.00000E+00  1.36556E-01
      21    -1     0     0   502   512  0.000000000E+00  0.000000000E+00  2.392030394E+03  2.392030394E+03  0.000000000E+00  0.00000E+00  9.000E+00
      21    -1     0     0   501   502  0.000000000E+00  0.000000000E+00 -8.314340013E+02  8.314340013E+02  0.000000000E+00  0.00000E+00  9.000E+00
      25     1     1     2     0     0 -1.154422075E+03  3.727562687E+02  2.181205763E+00  1.219535699E+03  1.250000000E+02  0.00000E+00  9.000E+00
      25     1     1     2     0     0  1.119562548E+03 -4.158891783E+02  1.454625286E+03  1.886251264E+03  1.250000000E+02  0.00000E+00  9.000E+00
      21     1     1     2   501   512  3.485952757E+01  4.313290963E+01  1.037899008E+02  1.176774323E+02  0.000000000E+00  0.00000E+00  9.000E+00
#rwgt            2          11   5.8887591731475654E-002           6      254832           0
</event>
<event>
      5   9999  3.19816E-02  1.49955E+02 -1.00000E+00  1.16399E-01
       2    -1     0     0   502     0  0.000000000E+00  0.000000000E+00  3.527554602E+03  3.527554602E+03  0.000000000E+00  0.00000E+00  9.000E+00
      21    -1     0     0   501   502  0.000000000E+00  0.000000000E+00 -1.188549270E+02  1.188549270E+02  0.000000000E+00  0.00000E+00  9.000E+00
      25     1     1     2     0     0 -2.047901619E+02 -3.511407440E+02  1.035006648E+03  1.118973902E+03  1.250000000E+02  0.00000E+00  9.000E+00
      25     1     1     2     0     0  1.151741819E+02  2.309093271E+02  2.023817569E+02  3.509523972E+02  1.250000000E+02  0.00000E+00  9.000E+00
       2     1     1     2   501     0  8.961597998E+01  1.202314169E+02  2.171311269E+03  2.176483229E+03  3.051757812E-05  0.00000E+00  9.000E+00
#rwgt            2          18   1.0771992978914075E-003           6      254867           0
</event>
<event>
      5   9999  3.19816E-02  6.51495E+01 -1.00000E+00  1.32820E-01
       2    -1     0     0   502     0  0.000000000E+00  0.000000000E+00  4.848305090E+02  4.848305090E+02  0.000000000E+00  0.00000E+00  9.000E+00
      21    -1     0     0   501   502  0.000000000E+00  0.000000000E+00 -1.154748144E+02  1.154748144E+02  0.000000000E+00  0.00000E+00  9.000E+00
      25     1     1     2     0     0 -4.329666335E+01  4.198221104E+01 -1.378840928E+01  1.394712420E+02  1.250000000E+02  0.00000E+00  9.000E+00
      25     1     1     2     0     0  8.818215994E+01 -8.920244954E+01  2.036005452E+02  2.698357878E+02  1.250000000E+02  0.00000E+00  9.000E+00
       2     1     1     2   501     0 -4.488549658E+01  4.722023850E+01  1.795435586E+02  1.909982936E+02  0.000000000E+00  0.00000E+00  9.000E+00
#rwgt            1           1   2.8590086450705619E-002           6      254886           0
</event>
<event>
      5   9999  3.19816E-02  3.86983E+01 -1.00000E+00  1.45737E-01
      21    -1     0     0   502   501  0.000000000E+00  0.000000000E+00  2.088049803E+02  2.088049803E+02  0.000000000E+00  0.00000E+00  9.000E+00
      21    -1     0     0   501   511  0.000000000E+00  0.000000000E+00 -1.871473062E+03  1.871473062E+03  0.000000000E+00  0.00000E+00  9.000E+00
      25     1     1     2     0     0 -5.129984867E+02  2.430245625E+02 -4.815915095E+02  7.548402264E+02  1.250000000E+02  0.00000E+00  9.000E+00
      25     1     1     2     0     0  4.976692987E+02 -2.074918820E+02 -1.027875842E+03  1.167425097E+03  1.250000000E+02  0.00000E+00  9.000E+00
      21     1     1     2   502   511  1.532918802E+01 -3.553268049E+01 -1.532007309E+02  1.580127189E+02  1.907348633E-06  0.00000E+00  9.000E+00
#rwgt            1           1   2.5759799355844316E-002           6      254982           0
</event>
<event>
      5   9999  3.19816E-02  1.16608E+02 -1.00000E+00  1.20899E-01
      21    -1     0     0   502   501  0.000000000E+00  0.000000000E+00  1.944136079E+03  1.944136079E+03  0.000000000E+00  0.00000E+00  9.000E+00
       1    -1     0     0   501     0  0.000000000E+00  0.000000000E+00 -2.855236068E+02  2.855236068E+02  0.000000000E+00  0.00000E+00  9.000E+00
      25     1     1     2     0     0  2.933287152E+02 -2.294548647E+02  1.394395608E+03  1.448673663E+03  1.250000000E+02  0.00000E+00  9.000E+00
      25     1     1     2     0     0 -1.790844265E+02  2.528139813E+02  4.507170634E+02  5.610320955E+02  1.250000000E+02  0.00000E+00  9.000E+00
       1     1     1     2   502     0 -1.142442888E+02 -2.335911659E+01 -1.865001992E+02  2.199539273E+02  6.031565972E-06  0.00000E+00  9.000E+00
#rwgt            1           1   3.2212579889063092E-002           6      255108           0
</event>
<event>
      5   9999  3.19816E-02  3.79695E+01 -1.00000E+00  1.46257E-01
      21    -1     0     0   502   511  0.000000000E+00  0.000000000E+00  3.274235126E+02  3.274235126E+02  0.000000000E+00  0.00000E+00  9.000E+00
      21    -1     0     0   501   502  0.000000000E+00  0.000000000E+00 -2.590731854E+02  2.590731854E+02  0.000000000E+00  0.00000E+00  9.000E+00
      25     1     1     2     0     0  6.475141763E+01  9.129429344E+01  6.180583219E+01  1.788081514E+02  1.250000000E+02  0.00000E+00  9.000E+00
      25     1     1     2     0     0 -2.822069007E+01 -1.016474460E+02 -1.647979361E+02  2.321895139E+02  1.250000000E+02  0.00000E+00  9.000E+00
      21     1     1     2   501   511 -3.653072756E+01  1.035315254E+01  1.713424311E+02  1.754990328E+02  1.907348633E-06  0.00000E+00  9.000E+00
#rwgt            1           1   2.6001971602932900E-002           6      255163           0
</event>
<event>
      5   9999  3.19816E-02  1.53482E+02 -1.00000E+00  1.16000E-01
      21    -1     0     0   502   501  0.000000000E+00  0.000000000E+00  9.696778230E+02  9.696778230E+02  0.000000000E+00  0.00000E+00  9.000E+00
       2    -1     0     0   501     0  0.000000000E+00  0.000000000E+00 -2.511523556E+03  2.511523556E+03  0.000000000E+00  0.00000E+00  9.000E+00
      25     1     1     2     0     0  6.598396870E+02 -4.001514850E+01 -1.624465882E+02  6.921008010E+02  1.250000000E+02  0.00000E+00  9.000E+00
      25     1     1     2     0     0 -6.972280303E+02 -1.088434444E+02  5.187833465E+02  8.847231105E+02  1.250000000E+02  0.00000E+00  9.000E+00
       2     1     1     2   502     0  3.738834325E+01  1.488585929E+02 -1.898182492E+03  1.904377468E+03  2.157918644E-05  0.00000E+00  9.000E+00
#rwgt            1           1   1.9728217322715617E-002           6      255246           0
</event>
<event>
      5   9999  3.19816E-02  1.13673E+02 -1.00000E+00  1.21375E-01
      21    -1     0     0   502   511  0.000000000E+00  0.000000000E+00  3.612567761E+02  3.612567761E+02  0.000000000E+00  0.00000E+00  9.000E+00
      21    -1     0     0   501   502  0.000000000E+00  0.000000000E+00 -1.585199351E+02  1.585199351E+02  0.000000000E+00  0.00000E+00  9.000E+00
      25     1     1     2     0     0 -4.167821964E+01  1.514014682E+02  1.217756096E+02  2.347632375E+02  1.250000000E+02  0.00000E+00  9.000E+00
      25     1     1     2     0     0  8.138681421E+01 -4.488934712E+01  2.313497382E+01  1.574772810E+02  1.250000000E+02  0.00000E+00  9.000E+00
      21     1     1     2   501   511 -3.970859457E+01 -1.065121211E+02  5.782625754E+01  1.275361928E+02  2.236564522E-06  0.00000E+00  9.000E+00
#rwgt            1           1   2.9252262012913515E-002           6      255293           0
</event>
<event>
      5   9999  3.19816E-02  1.28496E+02 -1.00000E+00  1.19121E-01
      21    -1     0     0   502   501  0.000000000E+00  0.000000000E+00  2.050949988E+02  2.050949988E+02  0.000000000E+00  0.00000E+00  9.000E+00
      21    -1     0     0   501   512  0.000000000E+00  0.000000000E+00 -3.314524375E+02  3.314524375E+02  0.000000000E+00  0.00000E+00  9.000E+00
      25     1     1     2     0     0  9.401155611E+00 -3.564324397E+01 -1.132446765E+01  1.308130962E+02  1.250000000E+02  0.00000E+00  9.000E+00
      25     1     1     2     0     0 -4.868288857E+01  1.579872324E+02  3.283015089E+01  2.098399582E+02  1.250000000E+02  0.00000E+00  9.000E+00
      21     1     1     2   502   512  3.928173295E+01 -1.223439885E+02 -1.478631219E+02  1.958943820E+02  3.303624740E-06  0.00000E+00  9.000E+00
#rwgt            1           1   7.3536189098194177E-002           6      255325           0
</event>
<event>
      5   9999  3.19816E-02  1.44429E+02 -1.00000E+00  1.17049E-01
      21    -1     0     0   511   501  0.000000000E+00  0.000000000E+00  4.182747020E+02  4.182747020E+02  0.000000000E+00  0.00000E+00  9.000E+00
      21    -1     0     0   501   502  0.000000000E+00  0.000000000E+00 -4.142035521E+02  4.142035521E+02  0.000000000E+00  0.00000E+00  9.000E+00
      25     1     1     2     0     0  1.029278161E+02 -2.651177329E+02 -1.614362752E+01  3.110742103E+02  1.250000000E+02  0.00000E+00  9.000E+00
      25     1     1     2     0     0  4.144551687E+01  2.611230795E+02 -1.236792498E+02  3.175288182E+02  1.250000000E+02  0.00000E+00  9.000E+00
      21     1     1     2   511   502 -1.443733330E+02  3.994653347E+00  1.438940272E+02  2.038752255E+02  1.907348633E-06  0.00000E+00  9.000E+00
#rwgt            1           1   3.4512992651286954E-002           6      255410           0
</event>
<event>
      5   9999  3.19816E-02  3.00408E+01 -1.00000E+00  1.52999E-01
      21    -1     0     0   502   501  0.000000000E+00  0.000000000E+00  1.118221327E+03  1.118221327E+03  0.000000000E+00  0.00000E+00  9.000E+00
      21    -1     0     0   501   512  0.000000000E+00  0.000000000E+00 -5.470517768E+01  5.470517768E+01  0.000000000E+00  0.00000E+00  9.000E+00
      25     1     1     2     0     0 -1.113755246E+02  5.954216288E+01  1.626373217E+02  2.408851906E+02  1.250000000E+02  0.00000E+00  9.000E+00
      25     1     1     2     0     0  1.272182574E+02 -8.506579138E+01  8.524456905E+02  8.750481867E+02  1.250000000E+02  0.00000E+00  9.000E+00
      21     1     1     2   502   512 -1.584273276E+01  2.552362850E+01  4.843313714E+01  5.699312736E+01  6.743495762E-07  0.00000E+00  9.000E+00
#rwgt            1           1   2.9180052059258298E-002           6      255466           0
</event>
<event>
      5   9999  3.19816E-02  8.66103E+01 -1.00000E+00  1.26703E-01
      21    -1     0     0   502   511  0.000000000E+00  0.000000000E+00  5.158381502E+02  5.158381502E+02  0.000000000E+00  0.00000E+00  9.000E+00
      21    -1     0     0   501   502  0.000000000E+00  0.000000000E+00 -2.480972554E+02  2.480972554E+02  0.000000000E+00  0.00000E+00  9.000E+00
      25     1     1     2     0     0 -2.781616004E+01  3.040730354E+02  1.299827272E+02  3.546190336E+02  1.250000000E+02  0.00000E+00  9.000E+00
      25     1     1     2     0     0  9.772002991E+01 -2.529379567E+02  1.006437469E+02  3.150888414E+02  1.250000000E+02  0.00000E+00  9.000E+00
      21     1     1     2   501   511 -6.990386987E+01 -5.113507864E+01  3.711442072E+01  9.422753056E+01  6.743495762E-07  0.00000E+00  9.000E+00
#rwgt            1           1   3.0610663987012315E-002           6      255545           0
</event>
<event>
      5   9999  3.19816E-02  2.48799E+02 -1.00000E+00  1.08302E-01
      21    -1     0     0   502   501  0.000000000E+00  0.000000000E+00  7.871935410E+02  7.871935410E+02  0.000000000E+00  0.00000E+00  9.000E+00
      21    -1     0     0   512   502  0.000000000E+00  0.000000000E+00 -6.789499105E+02  6.789499105E+02  0.000000000E+00  0.00000E+00  9.000E+00
      25     1     1     2     0     0 -2.152280321E+02  5.651500930E+02 -1.836003571E+01  6.178024153E+02  1.250000000E+02  0.00000E+00  9.000E+00
      25     1     1     2     0     0 -2.720255592E+01 -5.092202231E+02  2.371161053E+02  5.761026489E+02  1.250000000E+02  0.00000E+00  9.000E+00
      21     1     1     2   512   501  2.424305880E+02 -5.592986989E+01 -1.105124391E+02  2.722383874E+02  0.000000000E+00  0.00000E+00  9.000E+00
#rwgt            2          11   4.4455709634222173E-003           6      255751           0
</event>
<event>
      5   9999  3.19816E-02  6.47509E+01 -1.00000E+00  1.32958E-01
      21    -1     0     0   502   501  0.000000000E+00  0.000000000E+00  5.448819133E+02  5.448819133E+02  0.000000000E+00  0.00000E+00  9.000E+00
      21    -1     0     0   511   502  0.000000000E+00  0.000000000E+00 -6.950757216E+02  6.950757216E+02  0.000000000E+00  0.00000E+00  9.000E+00
      25     1     1     2     0     0 -3.052333948E+02 -3.918940920E+02 -2.781855815E+02  5.828898887E+02  1.250000000E+02  0.00000E+00  9.000E+00
      25     1     1     2     0     0  3.190399502E+02  4.551559307E+02  1.492029087E+02  5.889311666E+02  1.250000000E+02  0.00000E+00  9.000E+00
      21     1     1     2   511   501 -1.380655539E+01 -6.326183869E+01 -2.121113550E+01  6.813657957E+01  1.192092896E-06  0.00000E+00  9.000E+00
#rwgt            1           1   2.2918927177160264E-002           6      255771           0
</event>
<event>
      5   9999  3.19816E-02  5.06403E+02 -1.00000E+00  9.86953E-02
      21    -1     0     0   502   501  0.000000000E+00  0.000000000E+00  4.133233613E+02  4.133233613E+02  0.000000000E+00  0.00000E+00  9.000E+00
      21    -1     0     0   501   512  0.000000000E+00  0.000000000E+00 -1.948775018E+03  1.948775018E+03  0.000000000E+00  0.00000E+00  9.000E+00
      25     1     1     2     0     0 -1.829493908E+02 -1.408283556E+02  1.291417807E+01  2.628590522E+02  1.250000000E+02  0.00000E+00  9.000E+00
      25     1     1     2     0     0 -2.292555938E+02 -1.533325497E+02  1.421423797E+02  3.345122631E+02  1.250000000E+02  0.00000E+00  9.000E+00
      21     1     1     2   502   512  4.122049845E+02  2.941609052E+02 -1.690508215E+03  1.764727065E+03  0.000000000E+00  0.00000E+00  9.000E+00
#rwgt            2          11   5.2701088774729310E-003           6      255963           0
</event>
<event>
      5   9999  3.19816E-02  2.89682E+01 -1.00000E+00  1.54103E-01
      21    -1     0     0   502   511  0.000000000E+00  0.000000000E+00  1.902536893E+02  1.902536893E+02  0.000000000E+00  0.00000E+00  9.000E+00
      21    -1     0     0   501   502  0.000000000E+00  0.000000000E+00 -8.332180741E+02  8.332180741E+02  0.000000000E+00  0.00000E+00  9.000E+00
      25     1     1     2     0     0 -1.816688445E+02 -2.299668053E+02 -8.005070198E+01  3.285139502E+02  1.250000000E+02  0.00000E+00  9.000E+00
      25     1     1     2     0     0  1.625294193E+02  2.082219524E+02 -5.880152489E+02  6.566270833E+02  1.250000000E+02  0.00000E+00  9.000E+00
      21     1     1     2   501   511  1.913942518E+01  2.174485292E+01  2.510156611E+01  3.833072978E+01  5.840038640E-07  0.00000E+00  9.000E+00
#rwgt            1           1   2.7721382355859130E-002           6      255983           0
</event>
<event>
      5   9999  3.19816E-02  5.57680E+01 -1.00000E+00  1.36423E-01
      21    -1     0     0   512   501  0.000000000E+00  0.000000000E+00  1.264644926E+03  1.264644926E+03  0.000000000E+00  0.00000E+00  9.000E+00
      21    -1     0     0   501   502  0.000000000E+00  0.000000000E+00 -3.272717827E+02  3.272717827E+02  0.000000000E+00  0.00000E+00  9.000E+00
      25     1     1     2     0     0  5.790349326E+01 -1.789764171E+02  2.368019237E+01  2.270927650E+02  1.250000000E+02  0.00000E+00  9.000E+00
      25     1     1     2     0     0 -6.355764112E+01  1.234957575E+02 -1.860393002E+02  2.636785867E+02  1.250000000E+02  0.00000E+00  9.000E+00
      21     1     1     2   512   502  5.654147865E+00  5.548065956E+01  1.099732251E+03  1.101145357E+03  1.525878906E-05  0.00000E+00  9.000E+00
#rwgt            1           1   2.9454929296837084E-002           6      256107           0
</event>
<event>
      5   9999  3.19816E-02  8.30012E+01 -1.00000E+00  1.27580E-01
      21    -1     0     0   502   511  0.000000000E+00  0.000000000E+00  4.232152687E+02  4.232152687E+02  0.000000000E+00  0.00000E+00  9.000E+00
      21    -1     0     0   501   502  0.000000000E+00  0.000000000E+00 -6.027904129E+02  6.027904129E+02  0.000000000E+00  0.00000E+00  9.000E+00
      25     1     1     2     0     0 -9.065785870E+01 -2.069094524E+02  3.293907024E+01  2.602697662E+02  1.250000000E+02  0.00000E+00  9.000E+00
      25     1     1     2     0     0  1.096248745E+02  1.261044454E+02 -4.597760906E+02  5.049148421E+02  1.250000000E+02  0.00000E+00  9.000E+00
      21     1     1     2   501   511 -1.896701582E+01  8.080500696E+01  2.472618762E+02  2.608210732E+02  3.814697266E-06  0.00000E+00  9.000E+00
#rwgt            1           1   2.7786346321959161E-002           6      256183           0
</event>
<event>
      5   9999  3.19816E-02  4.09587E+01 -1.00000E+00  1.44205E-01
      21    -1     0     0   502   512  0.000000000E+00  0.000000000E+00  1.490927611E+03  1.490927611E+03  0.000000000E+00  0.00000E+00  9.000E+00
      21    -1     0     0   501   502  0.000000000E+00  0.000000000E+00 -1.357233272E+02  1.357233272E+02  0.000000000E+00  0.00000E+00  9.000E+00
      25     1     1     2     0     0 -2.731424924E+02  1.737337357E+02  2.240733529E+02  4.130667011E+02  1.250000000E+02  0.00000E+00  9.000E+00
      25     1     1     2     0     0  2.578499315E+02 -1.357369364E+02  5.806516932E+02  6.615833219E+02  1.250000000E+02  0.00000E+00  9.000E+00
      21     1     1     2   501   512  1.529256085E+01 -3.799679927E+01  5.504792381E+02  5.520009156E+02  1.321449896E-05  0.00000E+00  9.000E+00
#rwgt            1           1   2.6350100113437382E-002           6      256274           0
</event>
<event>
      5   9999  3.19816E-02  6.54341E+01 -1.00000E+00  1.32722E-01
      21    -1     0     0   502   501  0.000000000E+00  0.000000000E+00  3.597103923E+02  3.597103923E+02  0.000000000E+00  0.00000E+00  9.000E+00
      21    -1     0     0   511   502  0.000000000E+00  0.000000000E+00 -7.033026329E+02  7.033026329E+02  0.000000000E+00  0.00000E+00  9.000E+00
      25     1     1     2     0     0  2.646288725E+02 -1.056322194E+02 -4.466690455E+02  5.443572743E+02  1.250000000E+02  0.00000E+00  9.000E+00
      25     1     1     2     0     0 -2.196631709E+02  5.809585850E+01  2.485110391E+02  3.591793062E+02  1.250000000E+02  0.00000E+00  9.000E+00
      21     1     1     2   511   501 -4.496570163E+01  4.753636093E+01 -1.454342342E+02  1.594764447E+02  1.907348633E-06  0.00000E+00  9.000E+00
#rwgt            1           1   2.7969215923145340E-002           6      256383           0
</event>
<event>
      5   9999  3.19816E-02  1.09460E+01 -1.00000E+00  1.91326E-01
      21    -1     0     0   502   501  0.000000000E+00  0.000000000E+00  8.553273667E+02  8.553273667E+02  0.000000000E+00  0.00000E+00  9.000E+00
      21    -1     0     0   501   512  0.000000000E+00  0.000000000E+00 -4.349564676E+02  4.349564676E+02  0.000000000E+00  0.00000E+00  9.000E+00
      25     1     1     2     0     0  1.330168430E+02  3.694079641E+02  5.773665077E+02  7.093185523E+02  1.250000000E+02  0.00000E+00  9.000E+00
      25     1     1     2     0     0 -1.232276023E+02 -3.645105182E+02  1.862890026E+01  4.049999948E+02  1.250000000E+02  0.00000E+00  9.000E+00
      21     1     1     2   502   512 -9.789240705E+00 -4.897445864E+00 -1.756245088E+02  1.759652872E+02  1.907348633E-06  0.00000E+00  9.000E+00
#rwgt            1           1   2.6749240111860265E-002           6      256501           0
</event>
<event>
      5   9999  3.19816E-02  7.76505E+01 -1.00000E+00  1.28979E-01
      21    -1     0     0   502   501  0.000000000E+00  0.000000000E+00  4.442191994E+02  4.442191994E+02  0.000000000E+00  0.00000E+00  9.000E+00
      21    -1     0     0   511   502  0.000000000E+00  0.000000000E+00 -6.093093939E+02  6.093093939E+02  0.000000000E+00  0.00000E+00  9.000E+00
      25     1     1     2     0     0 -3.567773446E+02 -2.466507051E+02  1.423980439E+02  4.733168567E+02  1.250000000E+02  0.00000E+00  9.000E+00
      25     1     1     2     0     0  3.568278226E+02  1.690002675E+02 -2.521908891E+02  4.848839345E+02  1.250000000E+02  0.00000E+00  9.000E+00
      21     1     1     2   511   501 -5.047800255E-02  7.765043758E+01 -5.529734930E+01  9.532780206E+01  9.536743164E-07  0.00000E+00  9.000E+00
#rwgt            1           1   2.4896385413403256E-002           6      256773           0
</event>
<event>
      5   9999  3.19816E-02  1.25968E+01 -1.00000E+00  1.84839E-01
      21    -1     0     0   502   512  0.000000000E+00  0.000000000E+00  2.717428036E+02  2.717428036E+02  0.000000000E+00  0.00000E+00  9.000E+00
      21    -1     0     0   501   502  0.000000000E+00  0.000000000E+00 -1.135123396E+03  1.135123396E+03  0.000000000E+00  0.00000E+00  9.000E+00
      25     1     1     2     0     0  3.308866540E+02 -3.520445151E+01  8.437472284E+01  3.653346754E+02  1.250000000E+02  0.00000E+00  9.000E+00
      25     1     1     2     0     0 -3.189216661E+02  3.914393669E+01 -9.623540700E+02  1.022249301E+03  1.250000000E+02  0.00000E+00  9.000E+00
      21     1     1     2   501   512 -1.196498787E+01 -3.939485189E+00  1.459875510E+01  1.928222313E+01  3.371747881E-07  0.00000E+00  9.000E+00
#rwgt            1           1   3.0859607901793287E-002           6      256898           0
</event>
<event>
      5   9999  3.19816E-02  1.57574E+02 -1.00000E+00  1.15552E-01
      21    -1     0     0   502   501  0.000000000E+00  0.000000000E+00  4.251413578E+01  4.251413578E+01  0.000000000E+00  0.00000E+00  9.000E+00
      21    -1     0     0   501   511  0.000000000E+00  0.000000000E+00 -3.615921013E+03  3.615921013E+03  0.000000000E+00  0.00000E+00  9.000E+00
      25     1     1     2     0     0  5.875117776E+01 -1.394214312E+02 -3.785243411E+02  4.263750851E+02  1.250000000E+02  0.00000E+00  9.000E+00
      25     1     1     2     0     0 -8.277344952E+01  2.951530584E+02 -2.206546522E+03  2.231241655E+03  1.250000000E+02  0.00000E+00  9.000E+00
      21     1     1     2   502   511  2.402227176E+01 -1.557316272E+02 -9.883360148E+02  1.000818409E+03  1.078959322E-05  0.00000E+00  9.000E+00
#rwgt            1           1   5.2544898237852765E-002           6      257252           0
</event>
<event>
      5   9999  3.19816E-02  7.75980E+01 -1.00000E+00  1.28994E-01
      21    -1     0     0   502   512  0.000000000E+00  0.000000000E+00  1.003033591E+03  1.003033591E+03  0.000000000E+00  0.00000E+00  9.000E+00
      21    -1     0     0   501   502  0.000000000E+00  0.000000000E+00 -5.457087994E+02  5.457087994E+02  0.000000000E+00  0.00000E+00  9.000E+00
      25     1     1     2     0     0 -1.575565278E+02  6.376388568E+02  9.262797565E+01  6.749906021E+02  1.250000000E+02  0.00000E+00  9.000E+00
      25     1     1     2     0     0  1.515723002E+02 -5.602719413E+02  1.052857387E+02  6.029833307E+02  1.250000000E+02  0.00000E+00  9.000E+00
      21     1     1     2   501   512  5.984227596E+00 -7.736691551E+01  2.594110770E+02  2.707684573E+02  5.394796609E-06  0.00000E+00  9.000E+00
#rwgt            1           1   3.1938539176174709E-002           6      257343           0
</event>
<event>
      5   9999  3.19816E-02  2.50071E+02 -1.00000E+00  1.08226E-01
      21    -1     0     0   502   501  0.000000000E+00  0.000000000E+00  3.223821179E+03  3.223821179E+03  0.000000000E+00  0.00000E+00  9.000E+00
      21    -1     0     0   511   502  0.000000000E+00  0.000000000E+00 -5.339768147E+02  5.339768147E+02  0.000000000E+00  0.00000E+00  9.000E+00
      25     1     1     2     0     0  3.158055821E+02  1.092081438E+03  1.920149414E+03  2.234943803E+03  1.250000000E+02  0.00000E+00  9.000E+00
      25     1     1     2     0     0 -2.246113810E+02 -8.592319173E+02  8.736417457E+02  1.252040199E+03  1.250000000E+02  0.00000E+00  9.000E+00
      21     1     1     2   511   501 -9.119420109E+01 -2.328495208E+02 -1.039467951E+02  2.708139913E+02  2.336015456E-06  0.00000E+00  9.000E+00
#rwgt            1           1   3.1894574855813741E-002           6      257519           0
</event>
<event>
      5   9999  3.19816E-02  5.22596E+01 -1.00000E+00  1.37989E-01
      21    -1     0     0   502   501  0.000000000E+00  0.000000000E+00  1.581264763E+03  1.581264763E+03  0.000000000E+00  0.00000E+00  9.000E+00
      -1    -1     0     0     0   502  0.000000000E+00  0.000000000E+00 -1.027367715E+03  1.027367715E+03  0.000000000E+00  0.00000E+00  9.000E+00
      25     1     1     2     0     0 -1.431122132E+02  1.457887667E+02  1.475308601E+03  1.494622339E+03  1.250000000E+02  0.00000E+00  9.000E+00
      25     1     1     2     0     0  1.939548967E+02 -1.337019520E+02 -9.074169644E+01  2.816980110E+02  1.250000000E+02  0.00000E+00  9.000E+00
      -1     1     1     2     0   501 -5.084268356E+01 -1.208681471E+01 -8.306698560E+02  8.323121285E+02  1.078959322E-05  0.00000E+00  9.000E+00
#rwgt            1           1   3.1662863235772637E-002           6      257584           0
</event>
<event>
      5   9999  3.19816E-02  2.18266E+01 -1.00000E+00  1.63297E-01
      21    -1     0     0   502   501  0.000000000E+00  0.000000000E+00  8.406137475E+02  8.406137475E+02  0.000000000E+00  0.00000E+00  9.000E+00
      21    -1     0     0   511   502  0.000000000E+00  0.000000000E+00 -1.012318198E+02  1.012318198E+02  0.000000000E+00  0.00000E+00  9.000E+00
      25     1     1     2     0     0 -1.002267734E+02  1.362275403E+02  6.380808710E+02  6.718448830E+02  1.250000000E+02  0.00000E+00  9.000E+00
      25     1     1     2     0     0  1.213503137E+02 -1.417225702E+02  1.049137498E+02  2.478771479E+02  1.250000000E+02  0.00000E+00  9.000E+00
      21     1     1     2   511   501 -2.112354032E+01  5.495029906E+00 -3.612693209E+00  2.212353637E+01  3.345302391E-07  0.00000E+00  9.000E+00
#rwgt            1           1   2.8026465199141721E-002           6      257731           0
</event>
<event>
      5   9999  3.19816E-02  7.99753E+01 -1.00000E+00  1.28356E-01
      21    -1     0     0   512   501  0.000000000E+00  0.000000000E+00  1.327022490E+03  1.327022490E+03  0.000000000E+00  0.00000E+00  9.000E+00
      21    -1     0     0   501   502  0.000000000E+00  0.000000000E+00 -3.279963358E+02  3.279963358E+02  0.000000000E+00  0.00000E+00  9.000E+00
      25     1     1     2     0     0  2.155336802E+02 -2.234409778E+02 -1.958755886E+02  3.877794271E+02  1.250000000E+02  0.00000E+00  9.000E+00
      25     1     1     2     0     0 -2.670836274E+02  1.622964723E+02  8.754653795E+02  9.379437295E+02  1.250000000E+02  0.00000E+00  9.000E+00
      21     1     1     2   512   502  5.154994727E+01  6.114450543E+01  3.194363635E+02  3.292956695E+02  3.814697266E-06  0.00000E+00  9.000E+00
#rwgt            1           1   2.2763008800819339E-002           6      257863           0
</event>
<event>
      5   9999  3.19816E-02  1.27454E+02 -1.00000E+00  1.19268E-01
      21    -1     0     0   502   511  0.000000000E+00  0.000000000E+00  2.592425396E+03  2.592425396E+03  0.000000000E+00  0.00000E+00  9.000E+00
      21    -1     0     0   501   502  0.000000000E+00  0.000000000E+00 -1.609036550E+02  1.609036550E+02  0.000000000E+00  0.00000E+00  9.000E+00
      25     1     1     2     0     0 -2.330995550E+02 -2.302501467E+02  7.623856210E+02  8.391706428E+02  1.250000000E+02  0.00000E+00  9.000E+00
      25     1     1     2     0     0  1.320424160E+02  1.525838098E+02 -2.790139503E+00  2.373811356E+02  1.250000000E+02  0.00000E+00  9.000E+00
      21     1     1     2   501   511  1.010571390E+02  7.766633684E+01  1.671926259E+03  1.676777272E+03  2.157918644E-05  0.00000E+00  9.000E+00
#rwgt            1           1   2.7108516321028175E-002           6      257975           0
</event>
<event>
      5   9999  3.19816E-02  3.82502E+01 -1.00000E+00  1.46055E-01
      21    -1     0     0   502   501  0.000000000E+00  0.000000000E+00  5.217866930E+02  5.217866930E+02  0.000000000E+00  0.00000E+00  9.000E+00
      21    -1     0     0   512   502  0.000000000E+00  0.000000000E+00 -1.344790177E+02  1.344790177E+02  0.000000000E+00  0.00000E+00  9.000E+00
      25     1     1     2     0     0 -4.094835154E+01 -4.387719395E+01  3.958873699E+01  1.442020934E+02  1.250000000E+02  0.00000E+00  9.000E+00
      25     1     1     2     0     0  1.929063641E+01  1.234904480E+01  4.153549734E+02  4.343608886E+02  1.250000000E+02  0.00000E+00  9.000E+00
      21     1     1     2   512   501  2.165771513E+01  3.152814915E+01 -6.763603514E+01  7.770272880E+01  1.651812370E-06  0.00000E+00  9.000E+00
#rwgt            1           1   2.9064809038334551E-002           6      258051           0
</event>
<event>
      5   9999  3.19816E-02  2.52441E+01 -1.00000E+00  1.58435E-01
      21    -1     0     0   511   501  0.000000000E+00  0.000000000E+00  2.361277248E+03  2.361277248E+03  0.000000000E+00  0.00000E+00  9.000E+00
      21    -1     0     0   501   502  0.000000000E+00  0.000000000E+00 -4.525779106E+02  4.525779106E+02  0.000000000E+00  0.00000E+00  9.000E+00
      25     1     1     2     0     0 -6.419269039E+02 -4.953154273E+02  1.226700876E+02  8.295061621E+02  1.250000000E+02  0.00000E+00  9.000E+00
      25     1     1     2     0     0  6.636691142E+02  4.824880646E+02  1.661324884E+03  1.857115181E+03  1.250000000E+02  0.00000E+00  9.000E+00
      21     1     1     2   511   502 -2.174221023E+01  1.282736273E+01  1.247043666E+02  1.272338163E+02  1.348699152E-06  0.00000E+00  9.000E+00
#rwgt            1           1   3.1908470033269229E-002           6      258115           0
</event>
<event>
      5   9999  3.19816E-02  2.86836E+01 -1.00000E+00  1.54406E-01
      21    -1     0     0   502   512  0.000000000E+00  0.000000000E+00  2.415893513E+01  2.415893513E+01  0.000000000E+00  0.00000E+00  9.000E+00
      21    -1     0     0   501   502  0.000000000E+00  0.000000000E+00 -2.299666133E+03  2.299666133E+03  0.000000000E+00  0.00000E+00  9.000E+00
      25     1     1     2     0     0  1.220283713E+02 -1.401713414E+02 -1.280761404E+03  1.300197563E+03  1.250000000E+02  0.00000E+00  9.000E+00
      25     1     1     2     0     0 -9.362254969E+01  1.441532980E+02 -8.900692397E+02  9.150921301E+02  1.250000000E+02  0.00000E+00  9.000E+00
      21     1     1     2   501   512 -2.840582162E+01 -3.981956593E+00 -1.046765545E+02  1.085353756E+02  1.907348633E-06  0.00000E+00  9.000E+00
#rwgt            1           1   6.8397864512652812E-002           6      258371           0
</event>
<event>
      5   9999  3.19816E-02  7.37497E+01 -1.00000E+00  1.30083E-01
      21    -1     0     0   502   501  0.000000000E+00  0.000000000E+00  1.250385574E+02  1.250385574E+02  0.000000000E+00  0.00000E+00  9.000E+00
       2    -1     0     0   501     0  0.000000000E+00  0.000000000E+00 -1.014716614E+03  1.014716614E+03  0.000000000E+00  0.00000E+00  9.000E+00
      25     1     1     2     0     0  3.134079712E+01 -5.851553809E+01  4.637748276E+01  1.489368479E+02  1.250000000E+02  0.00000E+00  9.000E+00
      25     1     1     2     0     0  2.922745666E+01  1.005929363E+02 -2.358884777E+02  2.867778878E+02  1.250000000E+02  0.00000E+00  9.000E+00
       2     1     1     2   502     0 -6.056825377E+01 -4.207739826E+01 -7.001670621E+02  7.040404361E+02  1.321449896E-05  0.00000E+00  9.000E+00
#rwgt            1           1   2.8124630296392020E-002           6      258504           0
</event>
<event>
      5   9999  3.19816E-02  2.76592E+01 -1.00000E+00  1.55531E-01
      21    -1     0     0   502   501  0.000000000E+00  0.000000000E+00  6.782372739E+02  6.782372739E+02  0.000000000E+00  0.00000E+00  9.000E+00
      21    -1     0     0   501   511  0.000000000E+00  0.000000000E+00 -1.201080417E+02  1.201080417E+02  0.000000000E+00  0.00000E+00  9.000E+00
      25     1     1     2     0     0 -8.232418372E+01 -2.003538808E+02  1.003527618E+02  2.694710106E+02  1.250000000E+02  0.00000E+00  9.000E+00
      25     1     1     2     0     0  8.667379011E+01  1.730388671E+02  4.379157728E+02  4.948232204E+02  1.250000000E+02  0.00000E+00  9.000E+00
      21     1     1     2   502   511 -4.349606391E+00  2.731501363E+01  1.986069767E+01  3.405108452E+01  4.129530925E-07  0.00000E+00  9.000E+00
#rwgt            1           1   2.8150215743427142E-002           6      258587           0
</event>
<event>
      5   9999  3.19816E-02  7.44555E+01 -1.00000E+00  1.29878E-01
      21    -1     0     0   502   512  0.000000000E+00  0.000000000E+00  2.492162189E+02  2.492162189E+02  0.000000000E+00  0.00000E+00  9.000E+00
      21    -1     0     0   501   502  0.000000000E+00  0.000000000E+00 -1.128022194E+03  1.128022194E+03  0.000000000E+00  0.00000E+00  9.000E+00
      25     1     1     2     0     0 -4.505216409E+02  8.281613164E+01 -6.912895152E+02  8.386503768E+02  1.250000000E+02  0.00000E+00  9.000E+00
      25     1     1     2     0     0  3.902523732E+02 -1.265338190E+02 -1.442979652E+02  4.524982043E+02  1.250000000E+02  0.00000E+00  9.000E+00
      21     1     1     2   501   512  6.026926769E+01  4.371768740E+01 -4.321849428E+01  8.608983138E+01  0.000000000E+00  0.00000E+00  9.000E+00
#rwgt            1           1   2.9363682035629047E-002           6      258779           0
</event>
<event>
      5   9999  3.19816E-02  6.49552E+01 -1.00000E+00  1.32887E-01
      21    -1     0     0   502   501  0.000000000E+00  0.000000000E+00  1.238663975E+03  1.238663975E+03  0.000000000E+00  0.00000E+00  9.000E+00
      21    -1     0     0   501   511  0.000000000E+00  0.000000000E+00 -9.899863123E+01  9.899863123E+01  0.000000000E+00  0.00000E+00  9.000E+00
      25     1     1     2     0     0 -6.601360657E+01  2.802678295E+02  4.559489478E+02  5.535542389E+02  1.250000000E+02  0.00000E+00  9.000E+00
      25     1     1     2     0     0  1.832346815E+00 -2.902647934E+02  6.000205862E+02  6.781642218E+02  1.250000000E+02  0.00000E+00  9.000E+00
      21     1     1     2   502   511  6.418125976E+01  9.996963971E+00  8.369580984E+01  1.059441456E+02  0.000000000E+00  0.00000E+00  9.000E+00
#rwgt            1           1   2.9038357062287086E-002           6      258871           0
</event>
<event>
      5   9999  3.19816E-02  8.20748E+01 -1.00000E+00  1.27814E-01
      21    -1     0     0   502   512  0.000000000E+00  0.000000000E+00  9.943517515E+02  9.943517515E+02  0.000000000E+00  0.00000E+00  9.000E+00
      21    -1     0     0   501   502  0.000000000E+00  0.000000000E+00 -6.089712113E+02  6.089712113E+02  0.000000000E+00  0.00000E+00  9.000E+00
      25     1     1     2     0     0  3.478361882E+02 -7.923274662E+01  9.133394830E+00  3.781220184E+02  1.250000000E+02  0.00000E+00  9.000E+00
      25     1     1     2     0     0 -2.723983247E+02  1.115653769E+02 -3.616424949E+02  4.827607842E+02  1.250000000E+02  0.00000E+00  9.000E+00
      21     1     1     2   501   512 -7.543786343E+01 -3.233263025E+01  7.378896403E+02  7.424401602E+02  1.078959322E-05  0.00000E+00  9.000E+00
#rwgt            1           1   2.7506986498570415E-002           6      258962           0
</event>
<event>
      5   9999  3.19816E-02  2.42204E+02 -1.00000E+00  1.08702E-01
      21    -1     0     0   511   501  0.000000000E+00  0.000000000E+00  2.704667851E+03  2.704667851E+03  0.000000000E+00  0.00000E+00  9.000E+00
      21    -1     0     0   501   502  0.000000000E+00  0.000000000E+00 -8.787913919E+02  8.787913919E+02  0.000000000E+00  0.00000E+00  9.000E+00
      25     1     1     2     0     0  7.276462475E+02  5.211985291E+00  1.811744559E+02  7.602272093E+02  1.250000000E+02  0.00000E+00  9.000E+00
      25     1     1     2     0     0 -5.678842015E+02  1.768293757E+02 -4.235814431E+02  7.408153167E+02  1.250000000E+02  0.00000E+00  9.000E+00
      21     1     1     2   511   502 -1.597620460E+02 -1.820413610E+02  2.068283446E+03  2.082416717E+03  3.051757812E-05  0.00000E+00  9.000E+00
#rwgt            1           1   3.2995119654902261E-002           6      259079           0
</event>
<event>
      5   9999  3.19816E-02  1.67491E+01 -1.00000E+00  1.72987E-01
      21    -1     0     0   502   501  0.000000000E+00  0.000000000E+00  1.142304320E+03  1.142304320E+03  0.000000000E+00  0.00000E+00  9.000E+00
      21    -1     0     0   501   512  0.000000000E+00  0.000000000E+00 -1.323440110E+03  1.323440110E+03  0.000000000E+00  0.00000E+00  9.000E+00
      25     1     1     2     0     0  6.152692149E+02 -6.631516977E+02  5.726039392E+02  1.077880630E+03  1.250000000E+02  0.00000E+00  9.000E+00
      25     1     1     2     0     0 -6.310067928E+02  6.574193359E+02 -3.505355686E+02  9.843119123E+02  1.250000000E+02  0.00000E+00  9.000E+00
      21     1     1     2   502   512  1.573757795E+01  5.732361848E+00 -4.032041609E+02  4.035518885E+02  0.000000000E+00  0.00000E+00  9.000E+00
#rwgt            1           1   3.3977462884194995E-002           6      259135           0
</event>
<event>
      5   9999  3.19816E-02  8.05421E+01 -1.00000E+00  1.28208E-01
      21    -1     0     0   502   501  0.000000000E+00  0.000000000E+00  7.454765835E+02  7.454765835E+02  0.000000000E+00  0.00000E+00  9.000E+00
      21    -1     0     0   511   502  0.000000000E+00  0.000000000E+00 -9.641348275E+01  9.641348275E+01  0.000000000E+00  0.00000E+00  9.000E+00
      25     1     1     2     0     0 -3.923129003E+00  6.436465861E+01  5.008980691E+02  5.202711561E+02  1.250000000E+02  0.00000E+00  9.000E+00
      25     1     1     2     0     0 -4.373815661E+01 -1.292910116E+02  1.541342902E+02  2.408559143E+02  1.250000000E+02  0.00000E+00  9.000E+00
      21     1     1     2   511   501  4.766128561E+01  6.492635299E+01 -5.969258547E+00  8.076299590E+01  1.856376112E-06  0.00000E+00  9.000E+00
#rwgt            2          11   2.7142553902066982E-003           6      259502           0
</event>
<event>
      5   9999  3.19816E-02  1.34750E+01 -1.00000E+00  1.81886E-01
      21    -1     0     0   502   501  0.000000000E+00  0.000000000E+00  1.923358148E+02  1.923358148E+02  0.000000000E+00  0.00000E+00  9.000E+00
      21    -1     0     0   512   502  0.000000000E+00  0.000000000E+00 -2.595089148E+02  2.595089148E+02  0.000000000E+00  0.00000E+00  9.000E+00
      25     1     1     2     0     0  1.305469796E+02 -2.487829703E+01 -1.525356130E+02  2.378099173E+02  1.250000000E+02  0.00000E+00  9.000E+00
      25     1     1     2     0     0 -1.211507550E+02  3.453672792E+01  9.098594945E+01  1.994335328E+02  1.250000000E+02  0.00000E+00  9.000E+00
      21     1     1     2   512   501 -9.396224581E+00 -9.658430890E+00 -5.623436517E+00  1.460127946E+01  3.424026159E-07  0.00000E+00  9.000E+00
#rwgt            1           1   2.6725246690466518E-002           6      259522           0
</event>
<event>
      5   9999  3.19816E-02  2.27031E+01 -1.00000E+00  1.61951E-01
      21    -1     0     0   502   511  0.000000000E+00  0.000000000E+00  1.988538769E+02  1.988538769E+02  0.000000000E+00  0.00000E+00  9.000E+00
      21    -1     0     0   501   502  0.000000000E+00  0.000000000E+00 -7.971426463E+02  7.971426463E+02  0.000000000E+00  0.00000E+00  9.000E+00
      25     1     1     2     0     0 -3.635366588E+01 -2.637857698E+02 -3.723883949E+02  4.745552002E+02  1.250000000E+02  0.00000E+00  9.000E+00
      25     1     1     2     0     0  1.478615173E+01  2.566954119E+02 -3.173951385E+02  4.271719076E+02  1.250000000E+02  0.00000E+00  9.000E+00
      21     1     1     2   501   511  2.156751415E+01  7.090357910E+00  9.149476396E+01  9.426941537E+01  1.348699152E-06  0.00000E+00  9.000E+00
#rwgt            1           1   2.5190946106033379E-002           6      259670           0
</event>
<event>
      5   9999  3.19816E-02  7.23092E+01 -1.00000E+00  1.30511E-01
      21    -1     0     0   502   512  0.000000000E+00  0.000000000E+00  2.564879077E+03  2.564879077E+03  0.000000000E+00  0.00000E+00  9.000E+00
      21    -1     0     0   501   502  0.000000000E+00  0.000000000E+00 -7.793349145E+01  7.793349145E+01  0.000000000E+00  0.00000E+00  9.000E+00
      25     1     1     2     0     0  1.436140569E+02  3.408985896E+02  7.226719683E+02  8.214113583E+02  1.250000000E+02  0.00000E+00  9.000E+00
      25     1     1     2     0     0 -2.011757496E+02 -2.971347917E+02  1.505851412E+03  1.553053200E+03  1.250000000E+02  0.00000E+00  9.000E+00
      21     1     1     2   501   512  5.756169270E+01 -4.376379789E+01  2.584222052E+02  2.683480103E+02  0.000000000E+00  0.00000E+00  9.000E+00
#rwgt            2          11   1.0492895503822253E-002           6      259866           0
</event>
<event>
      5   9999  3.19816E-02  2.28551E+02 -1.00000E+00  1.09578E-01
      21    -1     0     0   502   511  0.000000000E+00  0.000000000E+00  2.813007835E+03  2.813007835E+03  0.000000000E+00  0.00000E+00  9.000E+00
      21    -1     0     0   501   502  0.000000000E+00  0.000000000E+00 -1.888143981E+02  1.888143981E+02  0.000000000E+00  0.00000E+00  9.000E+00
      25     1     1     2     0     0 -5.345171076E+01 -4.916691192E+02  1.726721108E+03  1.800496152E+03  1.250000000E+02  0.00000E+00  9.000E+00
      25     1     1     2     0     0  2.322036178E+02  3.492493664E+02  2.270595218E+02  4.930260302E+02  1.250000000E+02  0.00000E+00  9.000E+00
      21     1     1     2   501   511 -1.787519070E+02  1.424197527E+02  6.704128063E+02  7.083000502E+02  7.629394531E-06  0.00000E+00  9.000E+00
#rwgt            1           1   2.8078076442295288E-002           6      259886           0
</event>
<event>
      5   9999  3.19816E-02  6.72914E+01 -1.00000E+00  1.32095E-01
      21    -1     0     0   512   501  0.000000000E+00  0.000000000E+00  1.604231191E+02  1.604231191E+02  0.000000000E+00  0.00000E+00  9.000E+00
      21    -1     0     0   501   502  0.000000000E+00  0.000000000E+00 -5.627199781E+02  5.627199781E+02  0.000000000E+00  0.00000E+00  9.000E+00
      25     1     1     2     0     0  1.198185427E+02 -4.421001209E+01  6.260094181E+00  1.788160986E+02  1.250000000E+02  0.00000E+00  9.000E+00
      25     1     1     2     0     0 -1.120431162E+02 -2.263062259E+01 -4.389446023E+02  4.704924748E+02  1.250000000E+02  0.00000E+00  9.000E+00
      21     1     1     2   512   502 -7.775426475E+00  6.684063467E+01  3.038764908E+01  7.383452388E+01  1.066240300E-06  0.00000E+00  9.000E+00
#rwgt            1           1   3.1468947305431240E-002           6      259980           0
</event>
<event>
      5   9999  3.19816E-02  8.42263E+01 -1.00000E+00  1.27277E-01
      21    -1     0     0   502   501  0.000000000E+00  0.000000000E+00  1.324858751E+03  1.324858751E+03  0.000000000E+00  0.00000E+00  9.000E+00
      21    -1     0     0   511   502  0.000000000E+00  0.000000000E+00 -2.068928133E+02  2.068928133E+02  0.000000000E+00  0.00000E+00  9.000E+00
      25     1     1     2     0     0 -3.412225456E+02 -1.310697332E+02  5.888968790E+02  7.042986829E+02  1.250000000E+02  0.00000E+00  9.000E+00
      25     1     1     2     0     0  3.982435884E+02  1.930589611E+02  5.711617013E+02  7.332942160E+02  1.250000000E+02  0.00000E+00  9.000E+00
      21     1     1     2   511   501 -5.702104283E+01 -6.198922785E+01 -4.209264274E+01  9.415866539E+01  0.000000000E+00  0.00000E+00  9.000E+00
#rwgt            1           1   2.7396872014282748E-002           6      260083           0
</event>
<event>
      5   9999  3.19816E-02  2.98708E+01 -1.00000E+00  1.53170E-01
      21    -1     0     0   512   501  0.000000000E+00  0.000000000E+00  8.100503091E+01  8.100503091E+01  0.000000000E+00  0.00000E+00  9.000E+00
      21    -1     0     0   501   502  0.000000000E+00  0.000000000E+00 -8.168493956E+02  8.168493956E+02  0.000000000E+00  0.00000E+00  9.000E+00
      25     1     1     2     0     0 -9.005344469E+01 -7.564267105E+01 -6.861556921E+02  7.072948964E+02  1.250000000E+02  0.00000E+00  9.000E+00
      25     1     1     2     0     0  7.104313394E+01  5.260205348E+01 -4.875547479E+01  1.606742021E+02  1.250000000E+02  0.00000E+00  9.000E+00
      21     1     1     2   512   502  1.901031075E+01  2.304061757E+01 -9.331977833E-01  2.988532802E+01  6.297393623E-07  0.00000E+00  9.000E+00
#rwgt            1           1   2.6981897801580584E-002           6      260154           0
</event>
<event>
      5   9999  3.19816E-02  3.28102E+01 -1.00000E+00  1.50387E-01
      21    -1     0     0   502   501  0.000000000E+00  0.000000000E+00  2.592467550E+02  2.592467550E+02  0.000000000E+00  0.00000E+00  9.000E+00
       2    -1     0     0   501     0  0.000000000E+00  0.000000000E+00 -3.421010385E+03  3.421010385E+03  0.000000000E+00  0.00000E+00  9.000E+00
      25     1     1     2     0     0  2.019873941E+02  5.473033661E+01  1.385386133E+02  2.803787875E+02  1.250000000E+02  0.00000E+00  9.000E+00
      25     1     1     2     0     0 -2.213661747E+02 -8.120623797E+01 -3.085773495E+02  4.079735494E+02  1.250000000E+02  0.00000E+00  9.000E+00
       2     1     1     2   502     0  1.937878055E+01  2.647590136E+01 -2.991724894E+03  2.991904803E+03  0.000000000E+00  0.00000E+00  9.000E+00
#rwgt            1           1   3.0708351310729232E-002           6      260289           0
</event>
<event>
      5   9999  3.19816E-02  6.59854E+01 -1.00000E+00  1.32533E-01
       2    -1     0     0   502     0  0.000000000E+00  0.000000000E+00  2.147995527E+03  2.147995527E+03  0.000000000E+00  0.00000E+00  9.000E+00
      21    -1     0     0   501   502  0.000000000E+00  0.000000000E+00 -6.295200721E+01  6.295200721E+01  0.000000000E+00  0.00000E+00  9.000E+00
      25     1     1     2     0     0  1.008279711E+02 -2.659927109E+02  7.320761227E+02  7.952853900E+02  1.250000000E+02  0.00000E+00  9.000E+00
      25     1     1     2     0     0 -3.928676721E+01  2.897993106E+02  8.351892119E+02  8.936963187E+02  1.250000000E+02  0.00000E+00  9.000E+00
       2     1     1     2   501     0 -6.154120388E+01 -2.380659971E+01  5.177781848E+02  5.219658251E+02  1.078959322E-05  0.00000E+00  9.000E+00
#rwgt            1           1   3.6719836025755549E-002           6      260455           0
</event>
<event>
      5   9999  3.19816E-02  1.30885E+02 -1.00000E+00  1.18789E-01
      21    -1     0     0   502   501  0.000000000E+00  0.000000000E+00  1.887366311E+03  1.887366311E+03  0.000000000E+00  0.00000E+00  9.000E+00
       2    -1     0     0   501     0  0.000000000E+00  0.000000000E+00 -3.830181493E+03  3.830181493E+03  0.000000000E+00  0.00000E+00  9.000E+00
      25     1     1     2     0     0 -8.983708368E+02  9.629656390E+02 -1.314457721E+03  1.864885273E+03  1.250000000E+02  0.00000E+00  9.000E+00
      25     1     1     2     0     0  8.673445144E+02 -8.358111223E+02  1.382312184E+03  1.837737390E+03  1.250000000E+02  0.00000E+00  9.000E+00
       2     1     1     2   502     0  3.102632243E+01 -1.271545167E+02 -2.010669646E+03  2.014925142E+03  3.051757812E-05  0.00000E+00  9.000E+00
#rwgt            1           1   1.9397647420752947E-002           6      260559           0
</event>
<event>
      5   9999  3.19816E-02  1.50104E+02 -1.00000E+00  1.16382E-01
      21    -1     0     0   511   501  0.000000000E+00  0.000000000E+00  2.963886829E+02  2.963886829E+02  0.000000000E+00  0.00000E+00  9.000E+00
      21    -1     0     0   501   502  0.000000000E+00  0.000000000E+00 -6.574263822E+02  6.574263822E+02  0.000000000E+00  0.00000E+00  9.000E+00
      25     1     1     2     0     0  1.879097648E+02 -1.400321826E+02 -2.572396539E+02  3.697517159E+02  1.250000000E+02  0.00000E+00  9.000E+00
      25     1     1     2     0     0 -2.723588507E+02  2.641276180E+02 -1.504870392E+02  4.268654251E+02  1.250000000E+02  0.00000E+00  9.000E+00
      21     1     1     2   511   502  8.444908583E+01 -1.240954354E+02  4.668899389E+01  1.571979241E+02  3.015782986E-06  0.00000E+00  9.000E+00
#rwgt            1           1   2.8087880089399338E-002           6      260692           0
</event>
<event>
      5   9999  3.19816E-02  2.34724E+02 -1.00000E+00  1.09174E-01
       4    -1     0     0   502     0  0.000000000E+00  0.000000000E+00  1.062756049E+03  1.062756049E+03  0.000000000E+00  0.00000E+00  9.000E+00
      21    -1     0     0   501   502  0.000000000E+00  0.000000000E+00 -7.387309668E+02  7.387309668E+02  0.000000000E+00  0.00000E+00  9.000E+00
      25     1     1     2     0     0 -1.508133230E+02  3.235996604E+02  4.213295463E+02  5.662199088E+02  1.250000000E+02  0.00000E+00  9.000E+00
      25     1     1     2     0     0  3.847971841E+02 -3.049801261E+02 -5.360987358E+02  7.376371769E+02  1.250000000E+02  0.00000E+00  9.000E+00
       4     1     1     2   501     0 -2.339838611E+02 -1.861953428E+01  4.387942716E+02  4.976299299E+02  0.000000000E+00  0.00000E+00  9.000E+00
#rwgt            1           1   3.0132853231808563E-002           6      260775           0
</event>
<event>
      5   9999  3.19816E-02  9.95454E+01 -1.00000E+00  1.23917E-01
      21    -1     0     0   511   501  0.000000000E+00  0.000000000E+00  1.269608929E+03  1.269608929E+03  0.000000000E+00  0.00000E+00  9.000E+00
      21    -1     0     0   501   502  0.000000000E+00  0.000000000E+00 -1.326390540E+02  1.326390540E+02  0.000000000E+00  0.00000E+00  9.000E+00
      25     1     1     2     0     0  2.533485479E+02  6.518430701E+01  4.013810958E+02  4.951426711E+02  1.250000000E+02  0.00000E+00  9.000E+00
      25     1     1     2     0     0 -1.620132710E+02 -2.559699111E+01  4.720083018E+01  2.115571420E+02  1.250000000E+02  0.00000E+00  9.000E+00
      21     1     1     2   511   502 -9.133527690E+01 -3.958731591E+01  6.883879495E+02  6.955481704E+02  1.078959322E-05  0.00000E+00  9.000E+00
#rwgt            1           1   2.8518718593304026E-002           6      260865           0
</event>
<event>
      5   9999  3.19816E-02  6.47520E+01 -1.00000E+00  1.32958E-01
      21    -1     0     0   502   501  0.000000000E+00  0.000000000E+00  5.763199590E+02  5.763199590E+02  0.000000000E+00  0.00000E+00  9.000E+00
       2    -1     0     0   501     0  0.000000000E+00  0.000000000E+00 -2.921363860E+03  2.921363860E+03  0.000000000E+00  0.00000E+00  9.000E+00
      25     1     1     2     0     0 -8.608514004E+02  2.154228512E+02  2.351363325E+00  8.961599563E+02  1.250000000E+02  0.00000E+00  9.000E+00
      25     1     1     2     0     0  8.292884925E+02 -2.719613906E+02 -1.417085502E+03  1.668963367E+03  1.250000000E+02  0.00000E+00  9.000E+00
       2     1     1     2   502     0  3.156290797E+01  5.653853942E+01 -9.303097621E+02  9.325604951E+02  1.078959322E-05  0.00000E+00  9.000E+00
#rwgt            1           1   2.7147951248008416E-002           6      260947           0
</event>
<event>
      5   9999  3.19816E-02  1.30805E+01 -1.00000E+00  1.83175E-01
      21    -1     0     0   502   501  0.000000000E+00  0.000000000E+00  1.187279763E+02  1.187279763E+02  0.000000000E+00  0.00000E+00  9.000E+00
      21    -1     0     0   501   511  0.000000000E+00  0.000000000E+00 -5.409729608E+02  5.409729608E+02  0.000000000E+00  0.00000E+00  9.000E+00
      25     1     1     2     0     0  4.583203579E+00 -2.018760953E+02 -2.025744411E+02  3.121479902E+02  1.250000000E+02  0.00000E+00  9.000E+00
      25     1     1     2     0     0 -1.648308010E+01  2.073069026E+02 -1.701931995E+02  2.963757226E+02  1.250000000E+02  0.00000E+00  9.000E+00
      21     1     1     2   502   511  1.189987652E+01 -5.430807349E+00 -4.947734389E+01  5.117722431E+01  6.743495762E-07  0.00000E+00  9.000E+00
#rwgt            1           1   3.2082307435263913E-002           6      261130           0
</event>
<event>
      5   9999  3.19816E-02  4.60286E+01 -1.00000E+00  1.41158E-01
      21    -1     0     0   502   501  0.000000000E+00  0.000000000E+00  2.025235838E+02  2.025235838E+02  0.000000000E+00  0.00000E+00  9.000E+00
      21    -1     0     0   512   502  0.000000000E+00  0.000000000E+00 -1.575481842E+03  1.575481842E+03  0.000000000E+00  0.00000E+00  9.000E+00
      25     1     1     2     0     0 -1.060927617E+02  4.114502311E+02 -9.571692409E+02  1.054677639E+03  1.250000000E+02  0.00000E+00  9.000E+00
      25     1     1     2     0     0  1.503573026E+02 -4.240708783E+02 -2.092406176E+02  5.117128729E+02  1.250000000E+02  0.00000E+00  9.000E+00
      21     1     1     2   512   501 -4.426454091E+01  1.262064722E+01 -2.065483999E+02  2.116149140E+02  2.697398305E-06  0.00000E+00  9.000E+00
#rwgt            1           1   2.8072838645099261E-002           6      261288           0
</event>
<event>
      5   9999  3.19816E-02  1.77382E+01 -1.00000E+00  1.70787E-01
      21    -1     0     0   502   501  0.000000000E+00  0.000000000E+00  2.694287207E+02  2.694287207E+02  0.000000000E+00  0.00000E+00  9.000E+00
      21    -1     0     0   501   511  0.000000000E+00  0.000000000E+00 -5.341826406E+02  5.341826406E+02  0.000000000E+00  0.00000E+00  9.000E+00
      25     1     1     2     0     0 -1.689038766E+02  2.546424789E+02 -2.874821138E+02  4.377696624E+02  1.250000000E+02  0.00000E+00  9.000E+00
      25     1     1     2     0     0  1.781731673E+02 -2.395188432E+02  5.570719671E+01  3.283949536E+02  1.250000000E+02  0.00000E+00  9.000E+00
      21     1     1     2   502   511 -9.269290658E+00 -1.512363570E+01 -3.297900281E+01  3.744674528E+01  4.768371582E-07  0.00000E+00  9.000E+00
#rwgt            1           1   2.8620429720260892E-002           6      261394           0
</event>
<event>
      5   9999  3.19816E-02  3.53538E+02 -1.00000E+00  1.03325E-01
      21    -1     0     0   502   501  0.000000000E+00  0.000000000E+00  5.209636589E+02  5.209636589E+02  0.000000000E+00  0.00000E+00  9.000E+00
       2    -1     0     0   501     0  0.000000000E+00  0.000000000E+00 -1.796011524E+03  1.796011524E+03  0.000000000E+00  0.00000E+00  9.000E+00
      25     1     1     2     0     0  8.038681255E+01  4.698691396E+00  4.447478833E+02  4.689454094E+02  1.250000000E+02  0.00000E+00  9.000E+00
      25     1     1     2     0     0  1.867925745E+02  2.268277648E+02 -7.223605680E+02  7.897924354E+02  1.250000000E+02  0.00000E+00  9.000E+00
       2     1     1     2   502     0 -2.671793871E+02 -2.315264562E+02 -9.974351805E+02  1.058237338E+03  0.000000000E+00  0.00000E+00  9.000E+00
#rwgt            1           1   2.7628878561504307E-002           6      261572           0
</event>
<event>
      5   9999  3.19816E-02  3.32036E+01 -1.00000E+00  1.50041E-01
      21    -1     0     0   502   501  0.000000000E+00  0.000000000E+00  1.526221847E+02  1.526221847E+02  0.000000000E+00  0.00000E+00  9.000E+00
      21    -1     0     0   501   511  0.000000000E+00  0.000000000E+00 -3.070494057E+02  3.070494057E+02  0.000000000E+00  0.00000E+00  9.000E+00
      25     1     1     2     0     0  1.351926509E+02  2.273586127E+01 -1.110383602E+02  2.162139905E+02  1.250000000E+02  0.00000E+00  9.000E+00
      25     1     1     2     0     0 -1.138937524E+02 -4.820812305E+01  1.479689122E+01  1.764646082E+02  1.250000000E+02  0.00000E+00  9.000E+00
      21     1     1     2   502   511 -2.129889850E+01  2.547226177E+01 -5.818575202E+01  6.699299169E+01  1.348699152E-06  0.00000E+00  9.000E+00
#rwgt            1           1   2.9912491859332528E-002           6      261609           0
</event>
<event>
      5   9999  3.19816E-02  7.23000E+01 -1.00000E+00  1.30514E-01
      21    -1     0     0   502   512  0.000000000E+00  0.000000000E+00  1.246425852E+03  1.246425852E+03  0.000000000E+00  0.00000E+00  9.000E+00
      21    -1     0     0   501   502  0.000000000E+00  0.000000000E+00 -4.384648006E+02  4.384648006E+02  0.000000000E+00  0.00000E+00  9.000E+00
      25     1     1     2     0     0 -2.993268271E+02  6.456338690E+01  1.082585861E+03  1.131981505E+03  1.250000000E+02  0.00000E+00  9.000E+00
      25     1     1     2     0     0  2.500845380E+02 -1.175019571E+02 -3.398814820E+02  4.555144431E+02  1.250000000E+02  0.00000E+00  9.000E+00
      21     1     1     2   501   512  4.924228916E+01  5.293857017E+01  6.525667239E+01  9.739470491E+01  1.907348633E-06  0.00000E+00  9.000E+00
#rwgt            1           1   2.6653178885565388E-002           6      261713           0
</event>
<event>
      5   9999  3.19816E-02  6.51669E+01 -1.00000E+00  1.32814E-01
       1    -1     0     0   502     0  0.000000000E+00  0.000000000E+00  8.919884562E+02  8.919884562E+02  0.000000000E+00  0.00000E+00  9.000E+00
      21    -1     0     0   501   502  0.000000000E+00  0.000000000E+00 -2.925056941E+02  2.925056941E+02  0.000000000E+00  0.00000E+00  9.000E+00
      25     1     1     2     0     0 -1.438594915E+02 -2.545798897E+02 -7.994263763E+01  3.279059299E+02  1.250000000E+02  0.00000E+00  9.000E+00
      25     1     1     2     0     0  1.361985874E+02  3.192948898E+02  3.112840285E+02  4.827235526E+02  1.250000000E+02  0.00000E+00  9.000E+00
       1     1     1     2   501     0  7.660904075E+00 -6.471500003E+01  3.681413712E+02  3.738646678E+02  0.000000000E+00  0.00000E+00  9.000E+00
#rwgt            1           1   2.9004471558510818E-002           6      261853           0
</event>
<event>
      5   9999  3.19816E-02  1.25791E+02 -1.00000E+00  1.19506E-01
      21    -1     0     0   502   501  0.000000000E+00  0.000000000E+00  5.993115410E+02  5.993115410E+02  0.000000000E+00  0.00000E+00  9.000E+00
       2    -1     0     0   501     0  0.000000000E+00  0.000000000E+00 -1.475461061E+03  1.475461061E+03  0.000000000E+00  0.00000E+00  9.000E+00
      25     1     1     2     0     0  6.209484916E+02  4.620003979E+02 -4.102865661E+02  8.848623978E+02  1.250000000E+02  0.00000E+00  9.000E+00
      25     1     1     2     0     0 -5.328092148E+02 -3.722519805E+02  4.536813156E+01  6.634308281E+02  1.250000000E+02  0.00000E+00  9.000E+00
       2     1     1     2   502     0 -8.813927675E+01 -8.974841739E+01 -5.112310852E+02  5.264793757E+02  1.078959322E-05  0.00000E+00  9.000E+00
#rwgt            1           1   3.1166334381337462E-002           6      261936           0
</event>
<event>
      5   9999  3.19816E-02  3.61026E+01 -1.00000E+00  1.47656E-01
      21    -1     0     0   502   511  0.000000000E+00  0.000000000E+00  6.445447353E+02  6.445447353E+02  0.000000000E+00  0.00000E+00  9.000E+00
      21    -1     0     0   501   502  0.000000000E+00  0.000000000E+00 -2.756549176E+02  2.756549176E+02  0.000000000E+00  0.00000E+00  9.000E+00
      25     1     1     2     0     0 -4.178195187E+01 -3.054624433E+02 -5.285988872E+01  3.368563546E+02  1.250000000E+02  0.00000E+00  9.000E+00
      25     1     1     2     0     0  5.802406238E+01  3.377051619E+02  3.993873090E+02  5.408759477E+02  1.250000000E+02  0.00000E+00  9.000E+00
      21     1     1     2   501   511 -1.624211052E+01 -3.224271857E+01  2.236239737E+01  4.246735065E+01  5.840038640E-07  0.00000E+00  9.000E+00
#rwgt            1           1   2.9290409961559821E-002           6      261993           0
</event>
<event>
      5   9999  3.19816E-02  1.52691E+02 -1.00000E+00  1.16088E-01
       1    -1     0     0   502     0  0.000000000E+00  0.000000000E+00  2.105828115E+03  2.105828115E+03  0.000000000E+00  0.00000E+00  9.000E+00
      21    -1     0     0   501   502  0.000000000E+00  0.000000000E+00 -2.661813487E+02  2.661813487E+02  0.000000000E+00  0.00000E+00  9.000E+00
      25     1     1     2     0     0 -1.062306404E+01 -3.045521670E+02 -2.690045584E+01  3.304746684E+02  1.250000000E+02  0.00000E+00  9.000E+00
      25     1     1     2     0     0  1.390840458E+02  2.220156750E+02  1.664872688E+02  3.346316518E+02  1.250000000E+02  0.00000E+00  9.000E+00
       1     1     1     2   501     0 -1.284609817E+02  8.253649203E+01  1.700059954E+03  1.706903144E+03  0.000000000E+00  0.00000E+00  9.000E+00
#rwgt            2          17   1.1085876307984524E-003           6      262267           0
</event>
<event>
      5   9999  3.19816E-02  1.40989E+01 -1.00000E+00  1.79956E-01
      21    -1     0     0   511   501  0.000000000E+00  0.000000000E+00  8.371925178E+02  8.371925178E+02  0.000000000E+00  0.00000E+00  9.000E+00
      21    -1     0     0   501   502  0.000000000E+00  0.000000000E+00 -1.232614958E+03  1.232614958E+03  0.000000000E+00  0.00000E+00  9.000E+00
      25     1     1     2     0     0 -2.883643219E+02 -5.486618134E+02  4.239754643E+02  7.612909837E+02  1.250000000E+02  0.00000E+00  9.000E+00
      25     1     1     2     0     0  2.976932838E+02  5.380906163E+02 -9.710727688E+02  1.156187755E+03  1.250000000E+02  0.00000E+00  9.000E+00
      21     1     1     2   511   502 -9.328961883E+00  1.057119704E+01  1.516748641E+02  1.523287371E+02  2.697398305E-06  0.00000E+00  9.000E+00
#rwgt            2          11   2.4965188481008097E-003           6      262421           0
</event>
<event>
      5   9999  3.19816E-02  1.94156E+01 -1.00000E+00  1.67439E-01
      21    -1     0     0   512   501  0.000000000E+00  0.000000000E+00  2.871524923E+02  2.871524923E+02  0.000000000E+00  0.00000E+00  9.000E+00
      21    -1     0     0   501   502  0.000000000E+00  0.000000000E+00 -2.377095518E+03  2.377095518E+03  0.000000000E+00  0.00000E+00  9.000E+00
      25     1     1     2     0     0 -8.396614169E-01  4.188837194E+02 -1.784541721E+03  1.837301942E+03  1.250000000E+02  0.00000E+00  9.000E+00
      25     1     1     2     0     0 -9.815403073E+00 -4.351143537E+02 -4.749909645E+02  6.562486261E+02  1.250000000E+02  0.00000E+00  9.000E+00
      21     1     1     2   512   502  1.065506449E+01  1.623063434E+01  1.695896596E+02  1.706974415E+02  3.814697266E-06  0.00000E+00  9.000E+00
#rwgt            1           1   2.5766524392500750E-002           6      262441           0
</event>
<event>
      5   9999  3.19816E-02  1.22833E+02 -1.00000E+00  1.19940E-01
      21    -1     0     0   502   511  0.000000000E+00  0.000000000E+00  6.810252593E+02  6.810252593E+02  0.000000000E+00  0.00000E+00  9.000E+00
      21    -1     0     0   501   502  0.000000000E+00  0.000000000E+00 -1.808468456E+03  1.808468456E+03  0.000000000E+00  0.00000E+00  9.000E+00
      25     1     1     2     0     0 -2.673438029E+02  9.474634662E+02 -6.367967967E+02  1.179107666E+03  1.250000000E+02  0.00000E+00  9.000E+00
      25     1     1     2     0     0  1.884011118E+02 -1.041570197E+03 -5.172431267E+02  1.184706253E+03  1.250000000E+02  0.00000E+00  9.000E+00
      21     1     1     2   501   511  7.894269102E+01  9.410673034E+01  2.659672714E+01  1.256797957E+02  1.936921693E-06  0.00000E+00  9.000E+00
#rwgt            1           1   3.1851218316406540E-002           6      262673           0
</event>
<event>
      5   9999  3.19816E-02  2.71865E+02 -1.00000E+00  1.07001E-01
      21    -1     0     0   502   501  0.000000000E+00  0.000000000E+00  2.528432822E+02  2.528432822E+02  0.000000000E+00  0.00000E+00  9.000E+00
      21    -1     0     0   512   502  0.000000000E+00  0.000000000E+00 -1.044090777E+03  1.044090777E+03  0.000000000E+00  0.00000E+00  9.000E+00
      25     1     1     2     0     0 -2.208400485E+02  2.310942838E+02 -1.666571072E+02  3.815422472E+02  1.250000000E+02  0.00000E+00  9.000E+00
      25     1     1     2     0     0 -4.833721811E+01 -2.692258584E+02 -8.716583015E+01  3.131164822E+02  1.250000000E+02  0.00000E+00  9.000E+00
      21     1     1     2   512   501  2.691772666E+02  3.813157464E+01 -5.374245572E+02  6.022753295E+02  0.000000000E+00  0.00000E+00  9.000E+00
#rwgt            2          11   2.3398340807497613E-003           6      262768           0
</event>
<event>
      5   9999  3.19816E-02  1.10697E+02 -1.00000E+00  1.21875E-01
      21    -1     0     0   502   501  0.000000000E+00  0.000000000E+00  2.453365398E+02  2.453365398E+02  0.000000000E+00  0.00000E+00  9.000E+00
      21    -1     0     0   511   502  0.000000000E+00  0.000000000E+00 -3.581386862E+02  3.581386862E+02  0.000000000E+00  0.00000E+00  9.000E+00
      25     1     1     2     0     0  7.680991245E+01  5.665915528E+01 -2.506163445E+01  1.592579921E+02  1.250000000E+02  0.00000E+00  9.000E+00
      25     1     1     2     0     0  7.455565926E+00 -1.284440310E+02  1.151016105E+02  2.131357204E+02  1.250000000E+02  0.00000E+00  9.000E+00
      21     1     1     2   511   501 -8.426547837E+01  7.178487571E+01 -2.028421225E+02  2.310815135E+02  2.697398305E-06  0.00000E+00  9.000E+00
#rwgt            1           1   2.4992723145390850E-002           6      262788           0
</event>
<event>
      5   9999  3.19816E-02  6.05654E+01 -1.00000E+00  1.34486E-01
      21    -1     0     0   502   501  0.000000000E+00  0.000000000E+00  7.902748410E+02  7.902748410E+02  0.000000000E+00  0.00000E+00  9.000E+00
      21    -1     0     0   512   502  0.000000000E+00  0.000000000E+00 -1.371795272E+03  1.371795272E+03  0.000000000E+00  0.00000E+00  9.000E+00
      25     1     1     2     0     0 -5.835677348E+02 -4.522566582E+02 -6.122728442E+02  9.672592319E+02  1.250000000E+02  0.00000E+00  9.000E+00
      25     1     1     2     0     0  5.541686163E+02  3.993051669E+02  4.129137350E+02  8.078800803E+02  1.250000000E+02  0.00000E+00  9.000E+00
      21     1     1     2   512   501  2.939911854E+01  5.295149132E+01 -3.821613222E+02  3.869308010E+02  5.394796609E-06  0.00000E+00  9.000E+00
#rwgt            1           1   3.4346767751364762E-002           6      262899           0
</event>
<event>
      5   9999  3.19816E-02  5.96155E+01 -1.00000E+00  1.34853E-01
      21    -1     0     0   502   511  0.000000000E+00  0.000000000E+00  4.698896104E+02  4.698896104E+02  0.000000000E+00  0.00000E+00  9.000E+00
      21    -1     0     0   501   502  0.000000000E+00  0.000000000E+00 -8.526290160E+02  8.526290160E+02  0.000000000E+00  0.00000E+00  9.000E+00
      25     1     1     2     0     0 -3.132642046E+02 -1.478737349E+02 -6.152637573E+02  7.170603841E+02  1.250000000E+02  0.00000E+00  9.000E+00
      25     1     1     2     0     0  3.685198475E+02  1.702528886E+02  6.761537548E+01  4.301043630E+02  1.250000000E+02  0.00000E+00  9.000E+00
      21     1     1     2   501   511 -5.525564286E+01 -2.237915375E+01  1.649089761E+02  1.753538793E+02  2.697398305E-06  0.00000E+00  9.000E+00
#rwgt            1           1   2.6777606721162139E-002           6      262998           0
</event>
<event>
      5   9999  3.19816E-02  4.20347E+01 -1.00000E+00  1.43516E-01
      21    -1     0     0   502   501  0.000000000E+00  0.000000000E+00  2.380037192E+02  2.380037192E+02  0.000000000E+00  0.00000E+00  9.000E+00
      21    -1     0     0   512   502  0.000000000E+00  0.000000000E+00 -9.295326686E+02  9.295326686E+02  0.000000000E+00  0.00000E+00  9.000E+00
      25     1     1     2     0     0  3.193542652E+02 -2.073992238E+02 -2.549311655E+02  4.749910356E+02  1.250000000E+02  0.00000E+00  9.000E+00
      25     1     1     2     0     0 -3.465254614E+02  1.753268345E+02 -2.039189922E+02  4.561001531E+02  1.250000000E+02  0.00000E+00  9.000E+00
      21     1     1     2   512   501  2.717119625E+01  3.207238924E+01 -2.326787918E+02  2.364451991E+02  2.697398305E-06  0.00000E+00  9.000E+00
#rwgt            1           1   2.9007603319630523E-002           6      263094           0
</event>
<event>
      5   9999  3.19816E-02  5.41250E+01 -1.00000E+00  1.37139E-01
      21    -1     0     0   502   501  0.000000000E+00  0.000000000E+00  7.188215664E+02  7.188215664E+02  0.000000000E+00  0.00000E+00  9.000E+00
      21    -1     0     0   501   511  0.000000000E+00  0.000000000E+00 -3.435683980E+02  3.435683980E+02  0.000000000E+00  0.00000E+00  9.000E+00
      25     1     1     2     0     0 -1.181424856E+02 -3.108175379E+02  5.347398239E+02  6.419788688E+02  1.250000000E+02  0.00000E+00  9.000E+00
      25     1     1     2     0     0  6.465450621E+01  3.025379293E+02 -1.483100148E+02  3.651441692E+02  1.250000000E+02  0.00000E+00  9.000E+00
      21     1     1     2   502   511  5.348797938E+01  8.279608647E+00 -1.117664064E+01  5.526692639E+01  7.539457465E-07  0.00000E+00  9.000E+00
#rwgt            1           1   2.4712573246733514E-002           6      263156           0
</event>
<event>
      5   9999  3.19816E-02  8.57519E+01 -1.00000E+00  1.26907E-01
       3    -1     0     0   502     0  0.000000000E+00  0.000000000E+00  1.803260048E+02  1.803260048E+02  0.000000000E+00  0.00000E+00  9.000E+00
      21    -1     0     0   501   502  0.000000000E+00  0.000000000E+00 -7.344578570E+02  7.344578570E+02  0.000000000E+00  0.00000E+00  9.000E+00
      25     1     1     2     0     0 -2.365900628E+02 -7.293664827E+01 -1.931405488E+02  3.379687619E+02  1.250000000E+02  0.00000E+00  9.000E+00
      25     1     1     2     0     0  2.074371788E+02  1.535809557E+02 -3.919363297E+02  4.856504707E+02  1.250000000E+02  0.00000E+00  9.000E+00
       3     1     1     2   501     0  2.915288393E+01 -8.064430744E+01  3.094502633E+01  9.116462921E+01  1.066240300E-06  0.00000E+00  9.000E+00
#rwgt            2          19   2.5573027541656859E-005           6      263389           0
</event>
<event>
      5   9999  3.19816E-02  3.41191E+01 -1.00000E+00  1.49258E-01
      21    -1     0     0   502   501  0.000000000E+00  0.000000000E+00  3.394838720E+02  3.394838720E+02  0.000000000E+00  0.00000E+00  9.000E+00
      21    -1     0     0   501   511  0.000000000E+00  0.000000000E+00 -1.779651078E+02  1.779651078E+02  0.000000000E+00  0.00000E+00  9.000E+00
      25     1     1     2     0     0  7.983677370E+01 -3.153085964E+00 -6.081381978E+01  1.603345660E+02  1.250000000E+02  0.00000E+00  9.000E+00
      25     1     1     2     0     0 -9.167824633E+01  3.515142554E+01  2.609713725E+02  3.055676371E+02  1.250000000E+02  0.00000E+00  9.000E+00
      21     1     1     2   502   511  1.184147263E+01 -3.199833958E+01 -3.863878854E+01  5.154677671E+01  1.168007728E-06  0.00000E+00  9.000E+00
#rwgt            1           1   2.8966132137750226E-002           6      263408           0
</event>
<event>
      5   9999  3.19816E-02  5.29578E+01 -1.00000E+00  1.37666E-01
      21    -1     0     0   502   512  0.000000000E+00  0.000000000E+00  1.918440376E+02  1.918440376E+02  0.000000000E+00  0.00000E+00  9.000E+00
      21    -1     0     0   501   502  0.000000000E+00  0.000000000E+00 -5.343407855E+02  5.343407855E+02  0.000000000E+00  0.00000E+00  9.000E+00
      25     1     1     2     0     0 -5.821913032E+01  4.426474544E+00  9.915949691E+01  1.699019324E+02  1.250000000E+02  0.00000E+00  9.000E+00
      25     1     1     2     0     0  3.034422714E+01 -4.945440731E+01 -4.744059950E+02  4.940167594E+02  1.250000000E+02  0.00000E+00  9.000E+00
      21     1     1     2   501   512  2.787490318E+01  4.502793277E+01  3.274975016E+01  6.226613118E+01  1.066240300E-06  0.00000E+00  9.000E+00
#rwgt            1           1   3.0165056166175715E-002           6      263488           0
</event>
<event>
      5   9999  3.19816E-02  5.88378E+01 -1.00000E+00  1.35159E-01
      21    -1     0     0   502   501  0.000000000E+00  0.000000000E+00  5.492335172E+02  5.492335172E+02  0.000000000E+00  0.00000E+00  9.000E+00
      21    -1     0     0   501   511  0.000000000E+00  0.000000000E+00 -7.218197061E+02  7.218197061E+02  0.000000000E+00  0.00000E+00  9.000E+00
      25     1     1     2     0     0 -2.522101754E+02 -3.581491165E+01  4.481943880E+02  5.304676144E+02  1.250000000E+02  0.00000E+00  9.000E+00
      25     1     1     2     0     0  3.100552725E+02  4.657733107E+01 -4.692666050E+02  5.780483253E+02  1.250000000E+02  0.00000E+00  9.000E+00
      21     1     1     2   502   511 -5.784509705E+01 -1.076241942E+01 -1.515139719E+02  1.625372837E+02  1.907348633E-06  0.00000E+00  9.000E+00
#rwgt            1           1   2.3005192120328477E-002           6      263544           0
</event>
<event>
      5   9999  3.19816E-02  1.17267E+02 -1.00000E+00  1.20794E-01
      21    -1     0     0   502   512  0.000000000E+00  0.000000000E+00  4.981932146E+01  4.981932146E+01  0.000000000E+00  0.00000E+00  9.000E+00
      21    -1     0     0   501   502  0.000000000E+00  0.000000000E+00 -1.524511976E+03  1.524511976E+03  0.000000000E+00  0.00000E+00  9.000E+00
      25     1     1     2     0     0 -1.771582676E+01 -7.394646533E+01 -8.258286052E+02  8.386893438E+02  1.250000000E+02  0.00000E+00  9.000E+00
      25     1     1     2     0     0  1.138879794E+02  1.410476906E+02 -4.983925435E+02  5.448715906E+02  1.250000000E+02  0.00000E+00  9.000E+00
      21     1     1     2   501   512 -9.617215262E+01 -6.710122528E+01 -1.504715063E+02  1.907703635E+02  3.814697266E-06  0.00000E+00  9.000E+00
#rwgt            1           1   3.3643667052284811E-002           6      263660           0
</event>
<event>
      5   9999  3.19816E-02  8.27393E+00 -1.00000E+00  2.05777E-01
      21    -1     0     0   511   501  0.000000000E+00  0.000000000E+00  3.530577793E+02  3.530577793E+02  0.000000000E+00  0.00000E+00  9.000E+00
      21    -1     0     0   501   502  0.000000000E+00  0.000000000E+00 -2.902586922E+02  2.902586922E+02  0.000000000E+00  0.00000E+00  9.000E+00
      25     1     1     2     0     0  4.219337952E+01  2.855064912E+02  3.812467300E+01  3.168165534E+02  1.250000000E+02  0.00000E+00  9.000E+00
      25     1     1     2     0     0 -5.030352686E+01 -2.871446277E+02  2.272765523E+01  3.180000445E+02  1.250000000E+02  0.00000E+00  9.000E+00
      21     1     1     2   511   502  8.110147339E+00  1.638136479E+00  1.946758840E+00  8.499873585E+00  1.504943511E-07  0.00000E+00  9.000E+00
#rwgt            1           1   2.5931250959616136E-002           6      263755           0
</event>
<event>
      5   9999  3.19816E-02  7.93793E+01 -1.00000E+00  1.28513E-01
      21    -1     0     0   512   501  0.000000000E+00  0.000000000E+00  4.022879970E+02  4.022879970E+02  0.000000000E+00  0.00000E+00  9.000E+00
      21    -1     0     0   501   502  0.000000000E+00  0.000000000E+00 -9.664129287E+02  9.664129287E+02  0.000000000E+00  0.00000E+00  9.000E+00
      25     1     1     2     0     0 -5.293793078E+02 -4.605933464E+01 -1.575517331E+02  5.681649957E+02  1.250000000E+02  0.00000E+00  9.000E+00
      25     1     1     2     0     0  5.734701412E+02 -1.994881615E+01 -4.172965892E+02  7.204355637E+02  1.250000000E+02  0.00000E+00  9.000E+00
      21     1     1     2   512   502 -4.409083348E+01  6.600815079E+01  1.072339063E+01  8.010036625E+01  1.316709640E-06  0.00000E+00  9.000E+00
#rwgt            1           1   2.9288234206516474E-002           6      264000           0
</event>
<event>
      5   9999  3.19816E-02  5.42148E+01 -1.00000E+00  1.37099E-01
      21    -1     0     0   511   501  0.000000000E+00  0.000000000E+00  7.855641315E+02  7.855641315E+02  0.000000000E+00  0.00000E+00  9.000E+00
      21    -1     0     0   501   502  0.000000000E+00  0.000000000E+00 -3.238740235E+02  3.238740235E+02  0.000000000E+00  0.00000E+00  9.000E+00
      25     1     1     2     0     0  4.141430121E+02  1.804364936E+01  2.590948103E+02  5.045742051E+02  1.250000000E+02  0.00000E+00  9.000E+00
      25     1     1     2     0     0 -4.679976417E+02 -2.428231767E+01  1.096336587E+02  4.972483914E+02  1.250000000E+02  0.00000E+00  9.000E+00
      21     1     1     2   511   502  5.385462959E+01  6.238668310E+00  9.296163901E+01  1.076155585E+02  1.348699152E-06  0.00000E+00  9.000E+00
#rwgt            2          11   3.2327526039237662E-003           6      264178           0
</event>
<event>
      5   9999  3.19816E-02  2.57842E+01 -1.00000E+00  1.57753E-01
      21    -1     0     0   502   501  0.000000000E+00  0.000000000E+00  4.040268043E+03  4.040268043E+03  0.000000000E+00  0.00000E+00  9.000E+00
      21    -1     0     0   501   512  0.000000000E+00  0.000000000E+00 -2.928107291E+02  2.928107291E+02  0.000000000E+00  0.00000E+00  9.000E+00
      25     1     1     2     0     0 -3.209062719E+02  2.840075186E+02  3.710832939E+02  5.804902385E+02  1.250000000E+02  0.00000E+00  9.000E+00
      25     1     1     2     0     0  3.383917675E+02 -3.029569935E+02  3.547949309E+03  3.579086647E+03  1.250000000E+02  0.00000E+00  9.000E+00
      21     1     1     2   502   512 -1.748549563E+01  1.894947485E+01 -1.715752885E+02  1.735018870E+02  4.672030912E-06  0.00000E+00  9.000E+00
#rwgt            1           1   1.3897923740589272E-002           6      264213           0
</event>
<event>
      5   9999  3.19816E-02  8.37084E+01 -1.00000E+00  1.27404E-01
      21    -1     0     0   502   501  0.000000000E+00  0.000000000E+00  1.620714993E+03  1.620714993E+03  0.000000000E+00  0.00000E+00  9.000E+00
      21    -1     0     0   511   502  0.000000000E+00  0.000000000E+00 -1.185132541E+02  1.185132541E+02  0.000000000E+00  0.00000E+00  9.000E+00
      25     1     1     2     0     0 -2.329685194E+02 -2.655773450E+02  3.656625041E+02  5.235835407E+02  1.250000000E+02  0.00000E+00  9.000E+00
      25     1     1     2     0     0  1.804004601E+02  2.004336501E+02  1.064465971E+03  1.105183595E+03  1.250000000E+02  0.00000E+00  9.000E+00
      21     1     1     2   511   501  5.256805929E+01  6.514369491E+01  7.207326314E+01  1.104611113E+02  2.132480600E-06  0.00000E+00  9.000E+00
#rwgt            1           1   2.8391310204345585E-002           6      264355           0
</event>
<event>
      5   9999  3.19816E-02  8.84914E+01 -1.00000E+00  1.26264E-01
      21    -1     0     0   502   501  0.000000000E+00  0.000000000E+00  6.249239468E+02  6.249239468E+02  0.000000000E+00  0.00000E+00  9.000E+00
      21    -1     0     0   512   502  0.000000000E+00  0.000000000E+00 -3.369000152E+03  3.369000152E+03  0.000000000E+00  0.00000E+00  9.000E+00
      25     1     1     2     0     0 -7.962189688E+02 -6.475620869E+02 -2.382973074E+02  1.060995716E+03  1.250000000E+02  0.00000E+00  9.000E+00
      25     1     1     2     0     0  7.498738117E+02  7.229468091E+02 -1.084448890E+03  1.508846320E+03  1.250000000E+02  0.00000E+00  9.000E+00
      21     1     1     2   512   501  4.634515716E+01 -7.538472211E+01 -1.421330008E+03  1.424082063E+03  2.642899792E-05  0.00000E+00  9.000E+00
#rwgt            1           1   2.8308129341995478E-002           6      264430           0
</event>
<event>
      5   9999  3.19816E-02  3.34630E+01 -1.00000E+00  1.49816E-01
      21    -1     0     0   502   501  0.000000000E+00  0.000000000E+00  3.008034018E+02  3.008034018E+02  0.000000000E+00  0.00000E+00  9.000E+00
      21    -1     0     0   501   511  0.000000000E+00  0.000000000E+00 -3.637391974E+02  3.637391974E+02  0.000000000E+00  0.00000E+00  9.000E+00
      25     1     1     2     0     0  1.838889503E+02  1.983198088E+02  4.258589942E+00  2.979748785E+02  1.250000000E+02  0.00000E+00  9.000E+00
      25     1     1     2     0     0 -2.010887836E+02 -1.696155020E+02  2.725732027E-01  2.912579470E+02  1.250000000E+02  0.00000E+00  9.000E+00
      21     1     1     2   502   511  1.719983322E+01 -2.870430684E+01 -6.746695874E+01  7.530977370E+01  1.348699152E-06  0.00000E+00  9.000E+00
#rwgt            1           1   2.9441231611194552E-002           6      264552           0
</event>
<event>
      5   9999  3.19816E-02  3.20269E+01 -1.00000E+00  1.51094E-01
      -3    -1     0     0     0   501  0.000000000E+00  0.000000000E+00  3.498321520E+02  3.498321520E+02  0.000000000E+00  0.00000E+00  9.000E+00
      21    -1     0     0   501   502  0.000000000E+00  0.000000000E+00 -2.608224479E+02  2.608224479E+02  0.000000000E+00  0.00000E+00  9.000E+00
      25     1     1     2     0     0 -1.715240960E+02  9.522870295E+01 -1.266082757E+02  2.648465156E+02  1.250000000E+02  0.00000E+00  9.000E+00
      25     1     1     2     0     0  1.906231230E+02 -6.951979811E+01  1.910883220E+02  3.054667317E+02  1.250000000E+02  0.00000E+00  9.000E+00
      -3     1     1     2     0   502 -1.909902707E+01 -2.570890484E+01  2.452965769E+01  4.034135260E+01  7.539457465E-07  0.00000E+00  9.000E+00
#rwgt            1           1   2.6526231177770559E-002           6      264640           0
</event>
<event>
      5   9999  3.19816E-02  8.98529E+01 -1.00000E+00  1.25955E-01
      21    -1     0     0   511   501  0.000000000E+00  0.000000000E+00  4.875096931E+01  4.875096931E+01  0.000000000E+00  0.00000E+00  9.000E+00
      21    -1     0     0   501   502  0.000000000E+00  0.000000000E+00 -1.396963213E+03  1.396963213E+03  0.000000000E+00  0.00000E+00  9.000E+00
      25     1     1     2     0     0 -1.873008824E+01 -1.961807320E+02 -5.510716863E+02  5.984502479E+02  1.250000000E+02  0.00000E+00  9.000E+00
      25     1     1     2     0     0 -5.260391778E+01  1.415455728E+02 -5.814862567E+02  6.136396239E+02  1.250000000E+02  0.00000E+00  9.000E+00
      21     1     1     2   511   502  7.133400603E+01  5.463515917E+01 -2.156543010E+02  2.336243107E+02  4.672030912E-06  0.00000E+00  9.000E+00
#rwgt            1           1   3.2983776072634238E-002           6      264806           0
</event>
<event>
      5   9999  3.19816E-02  7.00202E+01 -1.00000E+00  1.31214E-01
      21    -1     0     0   502   501  0.000000000E+00  0.000000000E+00  8.820204986E+02  8.820204986E+02  0.000000000E+00  0.00000E+00  9.000E+00
      21    -1     0     0   501   512  0.000000000E+00  0.000000000E+00 -1.987989000E+03  1.987989000E+03  0.000000000E+00  0.00000E+00  9.000E+00
      25     1     1     2     0     0 -1.993457781E+02  7.417333989E+02  5.181037983E+02  9.348602677E+02  1.250000000E+02  0.00000E+00  9.000E+00
      25     1     1     2     0     0  1.317267978E+02 -7.599132324E+02 -8.371009625E+02  1.145069034E+03  1.250000000E+02  0.00000E+00  9.000E+00
      21     1     1     2   502   512  6.761898036E+01  1.817983350E+01 -7.869713375E+02  7.900801978E+02  1.525878906E-05  0.00000E+00  9.000E+00
#rwgt            1           1   3.3694363890086558E-002           6      264875           0
</event>
<event>
      5   9999  3.19816E-02  8.18642E+01 -1.00000E+00  1.27867E-01
      21    -1     0     0   511   501  0.000000000E+00  0.000000000E+00  1.658213863E+03  1.658213863E+03  0.000000000E+00  0.00000E+00  9.000E+00
      21    -1     0     0   501   502  0.000000000E+00  0.000000000E+00 -2.480957303E+02  2.480957303E+02  0.000000000E+00  0.00000E+00  9.000E+00
      25     1     1     2     0     0  1.711380408E+02 -4.199374754E+02  4.152218870E+02  6.274312135E+02  1.250000000E+02  0.00000E+00  9.000E+00
      25     1     1     2     0     0 -1.133046677E+02  4.778775008E+02  3.207038144E+02  5.997339327E+02  1.250000000E+02  0.00000E+00  9.000E+00
      21     1     1     2   511   502 -5.783337301E+01 -5.794002537E+01  6.741924315E+02  6.791444473E+02  1.078959322E-05  0.00000E+00  9.000E+00
#rwgt            1           1   2.8794612039484916E-002           6      264950           0
</event>
<event>
      5   9999  3.19816E-02  1.99913E+02 -1.00000E+00  1.11655E-01
      21    -1     0     0   512   501  0.000000000E+00  0.000000000E+00  2.101016931E+02  2.101016931E+02  0.000000000E+00  0.00000E+00  9.000E+00
      21    -1     0     0   501   502  0.000000000E+00  0.000000000E+00 -1.010968209E+03  1.010968209E+03  0.000000000E+00  0.00000E+00  9.000E+00
      25     1     1     2     0     0  1.882057889E+02  8.406394308E+01 -3.707919027E+02  4.422666624E+02  1.250000000E+02  0.00000E+00  9.000E+00
      25     1     1     2     0     0 -2.587646785E+02 -2.711110141E+02 -4.229438723E+02  5.787632158E+02  1.250000000E+02  0.00000E+00  9.000E+00
      21     1     1     2   512   502  7.055888955E+01  1.870470710E+02 -7.130740681E+00  2.000400238E+02  2.379711244E-06  0.00000E+00  9.000E+00
#rwgt            2          11   4.0357506668568981E-003           6      265108           0
</event>
<event>
      5   9999  3.19816E-02  4.47577E+01 -1.00000E+00  1.41877E-01
      21    -1     0     0   502   511  0.000000000E+00  0.000000000E+00  1.065675752E+03  1.065675752E+03  0.000000000E+00  0.00000E+00  9.000E+00
      21    -1     0     0   501   502  0.000000000E+00  0.000000000E+00 -2.590621999E+02  2.590621999E+02  0.000000000E+00  0.00000E+00  9.000E+00
      25     1     1     2     0     0  2.669267736E+02  1.113187801E+02  1.471836155E+02  3.477496081E+02  1.250000000E+02  0.00000E+00  9.000E+00
      25     1     1     2     0     0 -2.351534988E+02 -1.428419998E+02 -1.356549354E+01  3.025062437E+02  1.250000000E+02  0.00000E+00  9.000E+00
      21     1     1     2   501   511 -3.177327483E+01  3.152321971E+01  6.729954302E+02  6.744821002E+02  1.078959322E-05  0.00000E+00  9.000E+00
#rwgt            1           1   2.6716260920492212E-002           6      265143           0
</event>
<event>
      5   9999  3.19816E-02  3.56162E+01 -1.00000E+00  1.48038E-01
      21    -1     0     0   512   501  0.000000000E+00  0.000000000E+00  2.038041809E+02  2.038041809E+02  0.000000000E+00  0.00000E+00  9.000E+00
      21    -1     0     0   501   502  0.000000000E+00  0.000000000E+00 -1.448074650E+03  1.448074650E+03  0.000000000E+00  0.00000E+00  9.000E+00
      25     1     1     2     0     0  9.588603202E+01 -3.162662565E+02 -5.448797373E+02  6.494131229E+02  1.250000000E+02  0.00000E+00  9.000E+00
      25     1     1     2     0     0 -7.860175371E+01  3.474073113E+02 -8.060253330E+02  8.900403997E+02  1.250000000E+02  0.00000E+00  9.000E+00
      21     1     1     2   512   502 -1.728427831E+01 -3.114105486E+01  1.066346016E+02  1.124253078E+02  3.814697266E-06  0.00000E+00  9.000E+00
#rwgt            1           1   2.8173732492879959E-002           6      265215           0
</event>
<event>
      5   9999  3.19816E-02  9.31945E+01 -1.00000E+00  1.25220E-01
      21    -1     0     0   511   501  0.000000000E+00  0.000000000E+00  3.042865464E+03  3.042865464E+03  0.000000000E+00  0.00000E+00  9.000E+00
      21    -1     0     0   501   502  0.000000000E+00  0.000000000E+00 -6.333830449E+01  6.333830449E+01  0.000000000E+00  0.00000E+00  9.000E+00
      25     1     1     2     0     0  2.011829695E+02 -1.226239398E+02  6.606464182E+02  7.124534425E+02  1.250000000E+02  0.00000E+00  9.000E+00
      25     1     1     2     0     0 -1.464381761E+02  4.720366997E+01  2.335489938E+02  3.063371646E+02  1.250000000E+02  0.00000E+00  9.000E+00
      21     1     1     2   511   502 -5.474479341E+01  7.542026984E+01  2.085331748E+03  2.087413162E+03  3.051757812E-05  0.00000E+00  9.000E+00
#rwgt            1           1   3.4440531522438540E-002           6      265289           0
</event>
<event>
      5   9999  3.19816E-02  2.42790E+01 -1.00000E+00  1.59709E-01
      21    -1     0     0   502   512  0.000000000E+00  0.000000000E+00  1.740976874E+02  1.740976874E+02  0.000000000E+00  0.00000E+00  9.000E+00
      21    -1     0     0   501   502  0.000000000E+00  0.000000000E+00 -1.703920254E+03  1.703920254E+03  0.000000000E+00  0.00000E+00  9.000E+00
      25     1     1     2     0     0 -3.263171381E+02 -2.306801059E+02 -2.186496852E+02  4.723651879E+02  1.250000000E+02  0.00000E+00  9.000E+00
      25     1     1     2     0     0  3.118788766E+02  2.111606904E+02 -1.321105248E+03  1.379420656E+03  1.250000000E+02  0.00000E+00  9.000E+00
      21     1     1     2   501   512  1.443826155E+01  1.951941552E+01  9.932367110E+00  2.623209666E+01  8.429369702E-07  0.00000E+00  9.000E+00
#rwgt            1           1   2.7604695255583553E-002           6      265349           0
</event>
<event>
      5   9999  3.19816E-02  6.58870E+01 -1.00000E+00  1.32567E-01
       1    -1     0     0   502     0  0.000000000E+00  0.000000000E+00  1.303177988E+03  1.303177988E+03  0.000000000E+00  0.00000E+00  9.000E+00
      21    -1     0     0   501   502  0.000000000E+00  0.000000000E+00 -6.654731779E+02  6.654731779E+02  0.000000000E+00  0.00000E+00  9.000E+00
      25     1     1     2     0     0  6.645841519E+02  2.324595153E+02  6.260909429E+02  9.504337904E+02  1.250000000E+02  0.00000E+00  9.000E+00
      25     1     1     2     0     0 -7.286434137E+02 -2.170480742E+02 -2.004628782E+02  7.961416058E+02  1.250000000E+02  0.00000E+00  9.000E+00
       1     1     1     2   501     0  6.405926185E+01 -1.541144108E+01  2.120767450E+02  2.220757693E+02  0.000000000E+00  0.00000E+00  9.000E+00
#rwgt            1           1   3.5239084858413622E-002           6      265470           0
</event>
<event>
      5   9999  3.19816E-02  9.61491E+01 -1.00000E+00  1.24600E-01
      21    -1     0     0   511   501  0.000000000E+00  0.000000000E+00  2.461947912E+02  2.461947912E+02  0.000000000E+00  0.00000E+00  9.000E+00
      21    -1     0     0   501   502  0.000000000E+00  0.000000000E+00 -9.924181699E+02  9.924181699E+02  0.000000000E+00  0.00000E+00  9.000E+00
      25     1     1     2     0     0 -4.673297948E+01 -1.553580100E+02 -7.106952792E+02  7.396166997E+02  1.250000000E+02  0.00000E+00  9.000E+00
      25     1     1     2     0     0  1.924562484E+01  2.474943294E+02 -1.758488663E+02  3.288946046E+02  1.250000000E+02  0.00000E+00  9.000E+00
      21     1     1     2   511   502  2.748735464E+01 -9.213631939E+01  1.403207669E+02  1.701016568E+02  5.394796609E-06  0.00000E+00  9.000E+00
#rwgt            1           1   3.2886193494592458E-002           6      265571           0
</event>
<event>
      5   9999  3.19816E-02  8.95357E+01 -1.00000E+00  1.26026E-01
      21    -1     0     0   512   501  0.000000000E+00  0.000000000E+00  2.193517855E+02  2.193517855E+02  0.000000000E+00  0.00000E+00  9.000E+00
      21    -1     0     0   501   502  0.000000000E+00  0.000000000E+00 -7.639765250E+02  7.639765250E+02  0.000000000E+00  0.00000E+00  9.000E+00
      25     1     1     2     0     0  1.455592982E+01  6.366334316E+01 -3.867665320E+02  4.116773574E+02  1.250000000E+02  0.00000E+00  9.000E+00
      25     1     1     2     0     0  2.678241466E+01 -1.430848969E+02 -3.276504109E+02  3.796977445E+02  1.250000000E+02  0.00000E+00  9.000E+00
      21     1     1     2   512   502 -4.133834449E+01  7.942155371E+01  1.697922034E+02  1.919532085E+02  4.264961200E-06  0.00000E+00  9.000E+00
#rwgt            1           1   2.9252004734597128E-002           6      265605           0
</event>
<event>
      5   9999  3.19816E-02  1.22126E+02 -1.00000E+00  1.20045E-01
      21    -1     0     0   502   511  0.000000000E+00  0.000000000E+00  7.094781347E+02  7.094781347E+02  0.000000000E+00  0.00000E+00  9.000E+00
      21    -1     0     0   501   502  0.000000000E+00  0.000000000E+00 -1.522019445E+02  1.522019445E+02  0.000000000E+00  0.00000E+00  9.000E+00
      25     1     1     2     0     0 -2.847356380E+01 -2.303900220E+02  1.195821827E+02  2.895085569E+02  1.250000000E+02  0.00000E+00  9.000E+00
      25     1     1     2     0     0  2.025270236E+01  1.085408809E+02  6.334732910E+01  1.784073398E+02  1.250000000E+02  0.00000E+00  9.000E+00
      21     1     1     2   501   511  8.220861438E+00  1.218491411E+02  3.743466784E+02  3.937641825E+02  7.629394531E-06  0.00000E+00  9.000E+00
#rwgt            1           1   3.0861878755534748E-002           6      265653           0
</event>
<event>
      5   9999  3.19816E-02  8.71462E+00 -1.00000E+00  2.02928E-01
      21    -1     0     0   502   512  0.000000000E+00  0.000000000E+00  1.616905734E+02  1.616905734E+02  0.000000000E+00  0.00000E+00  9.000E+00
      21    -1     0     0   501   502  0.000000000E+00  0.000000000E+00 -3.209122036E+02  3.209122036E+02  0.000000000E+00  0.00000E+00  9.000E+00
      25     1     1     2     0     0  6.581126369E+01  1.536646224E+02 -1.421747959E+02  2.525521950E+02  1.250000000E+02  0.00000E+00  9.000E+00
      25     1     1     2     0     0 -6.782527768E+01 -1.621433213E+02 -2.637883336E+01  2.172822307E+02  1.250000000E+02  0.00000E+00  9.000E+00
      21     1     1     2   501   512  2.014013991E+00  8.478698861E+00  9.331999163E+00  1.276835131E+01  1.685873940E-07  0.00000E+00  9.000E+00
#rwgt            1           1   2.6963467721057569E-002           6      265709           0
</event>
<event>
      5   9999  3.19816E-02  4.16220E+01 -1.00000E+00  1.43778E-01
      21    -1     0     0   502   501  0.000000000E+00  0.000000000E+00  3.225701676E+02  3.225701676E+02  0.000000000E+00  0.00000E+00  9.000E+00
       1    -1     0     0   501     0  0.000000000E+00  0.000000000E+00 -1.589414850E+02  1.589414850E+02  0.000000000E+00  0.00000E+00  9.000E+00
      25     1     1     2     0     0 -1.367978693E+02  1.864893267E+01 -1.735842752E+01  1.870501396E+02  1.250000000E+02  0.00000E+00  9.000E+00
      25     1     1     2     0     0  9.886166070E+01 -1.524938255E+00  1.937952442E+02  2.509134314E+02  1.250000000E+02  0.00000E+00  9.000E+00
       1     1     1     2   502     0  3.793620856E+01 -1.712399442E+01 -1.280813412E+01  4.354808153E+01  1.052827938E-06  0.00000E+00  9.000E+00
#rwgt            1           1   2.5395702393917249E-002           6      265910           0
</event>
<event>
      5   9999  3.19816E-02  5.41540E+01 -1.00000E+00  1.37126E-01
      21    -1     0     0   502   501  0.000000000E+00  0.000000000E+00  3.537935582E+02  3.537935582E+02  0.000000000E+00  0.00000E+00  9.000E+00
      21    -1     0     0   501   511  0.000000000E+00  0.000000000E+00 -2.310228128E+02  2.310228128E+02  0.000000000E+00  0.00000E+00  9.000E+00
      25     1     1     2     0     0 -7.009363272E+01 -1.851417787E+02  8.600774311E+00  2.342852297E+02  1.250000000E+02  0.00000E+00  9.000E+00
      25     1     1     2     0     0  5.177739943E+01  2.361041890E+02  1.172086132E+02  2.962919948E+02  1.250000000E+02  0.00000E+00  9.000E+00
      21     1     1     2   502   511  1.831623329E+01 -5.096241030E+01 -3.038642176E+00  5.423914649E+01  3.953724850E-07  0.00000E+00  9.000E+00
#rwgt            1           1   2.6289356202534548E-002           6      265993           0
</event>
<event>
      5   9999  3.19816E-02  3.74136E+02 -1.00000E+00  1.02567E-01
       1    -1     0     0   502     0  0.000000000E+00  0.000000000E+00  1.793218847E+03  1.793218847E+03  0.000000000E+00  0.00000E+00  9.000E+00
      21    -1     0     0   501   502  0.000000000E+00  0.000000000E+00 -1.676045673E+03  1.676045673E+03  0.000000000E+00  0.00000E+00  9.000E+00
      25     1     1     2     0     0  2.200331624E+02  3.711692999E+02  1.036124346E+03  1.129318335E+03  1.250000000E+02  0.00000E+00  9.000E+00
      25     1     1     2     0     0 -4.503806770E+02 -7.635152972E+01  6.063739556E+02  7.694067093E+02  1.250000000E+02  0.00000E+00  9.000E+00
       1     1     1     2   501     0  2.303475146E+02 -2.948177702E+02 -1.525325129E+03  1.570539475E+03  3.051757812E-05  0.00000E+00  9.000E+00
#rwgt            1           1   2.6292968535736167E-002           6      266041           0
</event>
<event>
      5   9999  3.19816E-02  6.14932E+01 -1.00000E+00  1.34135E-01
      21    -1     0     0   502   501  0.000000000E+00  0.000000000E+00  7.157190870E+02  7.157190870E+02  0.000000000E+00  0.00000E+00  9.000E+00
      21    -1     0     0   511   502  0.000000000E+00  0.000000000E+00 -1.022066997E+02  1.022066997E+02  0.000000000E+00  0.00000E+00  9.000E+00
      25     1     1     2     0     0 -6.592314633E+01 -1.770520470E+02  3.763088797E+02  4.392341762E+02  1.250000000E+02  0.00000E+00  9.000E+00
      25     1     1     2     0     0  1.213446974E+02  1.504087978E+02  2.095705806E+02  3.112750717E+02  1.250000000E+02  0.00000E+00  9.000E+00
      21     1     1     2   511   501 -5.542155102E+01  2.664324921E+01  2.763292697E+01  6.741653876E+01  1.066240300E-06  0.00000E+00  9.000E+00
#rwgt            2          11   2.4474566687266307E-003           6      266086           0
</event>
<event>
      5   9999  3.19816E-02  4.21331E+01 -1.00000E+00  1.43455E-01
      21    -1     0     0   502   512  0.000000000E+00  0.000000000E+00  1.680953265E+03  1.680953265E+03  0.000000000E+00  0.00000E+00  9.000E+00
      21    -1     0     0   501   502  0.000000000E+00  0.000000000E+00 -5.650723202E+01  5.650723202E+01  0.000000000E+00  0.00000E+00  9.000E+00
      25     1     1     2     0     0  2.002527077E+02 -7.422471296E+01  9.535626884E+02  9.851483419E+02  1.250000000E+02  0.00000E+00  9.000E+00
      25     1     1     2     0     0 -2.406962984E+02  8.603618631E+01  4.903362795E+02  5.669141032E+02  1.250000000E+02  0.00000E+00  9.000E+00
      21     1     1     2   501   512  4.044359071E+01 -1.181147336E+01  1.805470649E+02  1.853980517E+02  1.907348633E-06  0.00000E+00  9.000E+00
#rwgt            1           1   2.6989136466335491E-002           6      266121           0
</event>
<event>
      5   9999  3.19816E-02  1.38356E+02 -1.00000E+00  1.17802E-01
       2    -1     0     0   502     0  0.000000000E+00  0.000000000E+00  9.518018103E+02  9.518018103E+02  0.000000000E+00  0.00000E+00  9.000E+00
      21    -1     0     0   501   502  0.000000000E+00  0.000000000E+00 -5.157076869E+02  5.157076869E+02  0.000000000E+00  0.00000E+00  9.000E+00
      25     1     1     2     0     0  4.787010276E+01 -8.523760896E+01 -2.514150674E+02  2.973071355E+02  1.250000000E+02  0.00000E+00  9.000E+00
      25     1     1     2     0     0 -1.669790953E+01  2.200365737E+02 -1.675888803E+02  3.039834646E+02  1.250000000E+02  0.00000E+00  9.000E+00
       2     1     1     2   501     0 -3.117219323E+01 -1.347989647E+02  8.550980711E+02  8.662188971E+02  0.000000000E+00  0.00000E+00  9.000E+00
#rwgt            1           1   2.8199749647736968E-002           6      266218           0
</event>
<event>
      5   9999  3.19816E-02  2.59043E+01 -1.00000E+00  1.57604E-01
      21    -1     0     0   502   511  0.000000000E+00  0.000000000E+00  9.603603029E+02  9.603603029E+02  0.000000000E+00  0.00000E+00  9.000E+00
      21    -1     0     0   501   502  0.000000000E+00  0.000000000E+00 -1.896707600E+02  1.896707600E+02  0.000000000E+00  0.00000E+00  9.000E+00
      25     1     1     2     0     0  1.689843495E+02  1.169697775E+02  6.373187646E+02  6.812032347E+02  1.250000000E+02  0.00000E+00  9.000E+00
      25     1     1     2     0     0 -1.490573691E+02 -1.335211279E+02 -8.359733203E+01  2.503188063E+02  1.250000000E+02  0.00000E+00  9.000E+00
      21     1     1     2   501   511 -1.992698042E+01  1.655135035E+01  2.169681103E+02  2.185090218E+02  0.000000000E+00  0.00000E+00  9.000E+00
#rwgt            1           1   2.8786977167239217E-002           6      266263           0
</event>
<event>
      5   9999  3.19816E-02  2.51543E+01 -1.00000E+00  1.58551E-01
      21    -1     0     0   502   501  0.000000000E+00  0.000000000E+00  6.731832564E+02  6.731832564E+02  0.000000000E+00  0.00000E+00  9.000E+00
      21    -1     0     0   512   502  0.000000000E+00  0.000000000E+00 -1.176185805E+03  1.176185805E+03  0.000000000E+00  0.00000E+00  9.000E+00
      25     1     1     2     0     0 -4.001331351E+02 -6.613900188E+02 -2.101918874E+02  8.107705670E+02  1.250000000E+02  0.00000E+00  9.000E+00
      25     1     1     2     0     0  4.245445980E+02  6.553219263E+02 -4.770244428E+01  7.922029196E+02  1.250000000E+02  0.00000E+00  9.000E+00
      21     1     1     2   512   501 -2.441146291E+01  6.068092538E+00 -2.451082171E+02  2.463955749E+02  0.000000000E+00  0.00000E+00  9.000E+00
#rwgt            1           1   3.3188143503574900E-002           6      266367           0
</event>
<event>
      5   9999  3.19816E-02  1.25246E+02 -1.00000E+00  1.19585E-01
      21    -1     0     0   502   511  0.000000000E+00  0.000000000E+00  1.480136202E+03  1.480136202E+03  0.000000000E+00  0.00000E+00  9.000E+00
      21    -1     0     0   501   502  0.000000000E+00  0.000000000E+00 -1.385680596E+02  1.385680596E+02  0.000000000E+00  0.00000E+00  9.000E+00
      25     1     1     2     0     0  2.694568895E+02 -1.569057416E+02  4.177622756E+02  5.360753175E+02  1.250000000E+02  0.00000E+00  9.000E+00
      25     1     1     2     0     0 -2.880698147E+02  3.305047533E+01  2.655839929E+02  4.125971514E+02  1.250000000E+02  0.00000E+00  9.000E+00
      21     1     1     2   501   511  1.861292520E+01  1.238552662E+02  6.582218736E+02  6.700317924E+02  0.000000000E+00  0.00000E+00  9.000E+00
#rwgt            1           1   2.8664352647354251E-002           6      266549           0
</event>
<event>
      5   9999  3.19816E-02  3.52674E+01 -1.00000E+00  1.48315E-01
      21    -1     0     0   502   501  0.000000000E+00  0.000000000E+00  1.961467316E+02  1.961467316E+02  0.000000000E+00  0.00000E+00  9.000E+00
      21    -1     0     0   512   502  0.000000000E+00  0.000000000E+00 -6.997424992E+02  6.997424992E+02  0.000000000E+00  0.00000E+00  9.000E+00
      25     1     1     2     0     0 -2.047350904E+02 -1.986731163E+02 -1.506021100E+02  3.459674260E+02  1.250000000E+02  0.00000E+00  9.000E+00
      25     1     1     2     0     0  2.396246490E+02  1.935243132E+02 -1.894251955E+02  3.825944810E+02  1.250000000E+02  0.00000E+00  9.000E+00
      21     1     1     2   512   501 -3.488955861E+01  5.148803030E+00 -1.635684621E+02  1.673273237E+02  1.907348633E-06  0.00000E+00  9.000E+00
#rwgt            1           1   2.8214278003756990E-002           6      266623           0
</event>
<event>
      5   9999  3.19816E-02  5.15604E+01 -1.00000E+00  1.38318E-01
      21    -1     0     0   502   501  0.000000000E+00  0.000000000E+00  1.177831956E+03  1.177831956E+03  0.000000000E+00  0.00000E+00  9.000E+00
      21    -1     0     0   501   511  0.000000000E+00  0.000000000E+00 -8.419691145E+01  8.419691145E+01  0.000000000E+00  0.00000E+00  9.000E+00
      25     1     1     2     0     0  3.867886351E+01  1.351318848E+02  1.186140800E+02  2.223757647E+02  1.250000000E+02  0.00000E+00  9.000E+00
      25     1     1     2     0     0  3.760360323E+00 -1.644130867E+02  9.653370347E+02  9.871911638E+02  1.250000000E+02  0.00000E+00  9.000E+00
      21     1     1     2   502   511 -4.243922383E+01  2.928120190E+01  9.683929558E+00  5.246193854E+01  1.768159506E-06  0.00000E+00  9.000E+00
#rwgt            1           1   3.8568918420110974E-002           6      266689           0
</event>
<event>
      5   9999  3.19816E-02  1.24604E+02 -1.00000E+00  1.19678E-01
      21    -1     0     0   512   501  0.000000000E+00  0.000000000E+00  1.648366951E+03  1.648366951E+03  0.000000000E+00  0.00000E+00  9.000E+00
      21    -1     0     0   501   502  0.000000000E+00  0.000000000E+00 -1.892920842E+02  1.892920842E+02  0.000000000E+00  0.00000E+00  9.000E+00
      25     1     1     2     0     0 -4.792301257E+01 -9.291276217E+01 -1.353374579E+02  2.118268727E+02  1.250000000E+02  0.00000E+00  9.000E+00
      25     1     1     2     0     0 -7.536900071E+01  1.109488704E+02  7.396262621E+02  7.620119065E+02  1.250000000E+02  0.00000E+00  9.000E+00
      21     1     1     2   512   502  1.232920133E+02 -1.803610825E+01  8.547860622E+02  8.638202555E+02  1.525878906E-05  0.00000E+00  9.000E+00
#rwgt            1           1   2.7731734127002090E-002           6      266766           0
</event>
<event>
      5   9999  3.19816E-02  1.01114E+02 -1.00000E+00  1.23612E-01
      21    -1     0     0   502   511  0.000000000E+00  0.000000000E+00  4.715533087E+02  4.715533087E+02  0.000000000E+00  0.00000E+00  9.000E+00
      21    -1     0     0   501   502  0.000000000E+00  0.000000000E+00 -5.554489860E+02  5.554489860E+02  0.000000000E+00  0.00000E+00  9.000E+00
      25     1     1     2     0     0 -2.252780004E+02 -3.178875872E+02 -3.289660241E+02  5.250203239E+02  1.250000000E+02  0.00000E+00  9.000E+00
      25     1     1     2     0     0  1.476337105E+02  2.531150335E+02  1.183057756E+02  3.398296474E+02  1.250000000E+02  0.00000E+00  9.000E+00
      21     1     1     2   501   511  7.764428985E+01  6.477255362E+01  1.267645713E+02  1.621523234E+02  3.015782986E-06  0.00000E+00  9.000E+00
#rwgt            1           1   2.7880965729042043E-002           6      266830           0
</event>
<event>
      5   9999  3.19816E-02  2.63758E+02 -1.00000E+00  1.07441E-01
      21    -1     0     0   502   512  0.000000000E+00  0.000000000E+00  3.114161363E+02  3.114161363E+02  0.000000000E+00  0.00000E+00  9.000E+00
      21    -1     0     0   501   502  0.000000000E+00  0.000000000E+00 -7.708297957E+02  7.708297957E+02  0.000000000E+00  0.00000E+00  9.000E+00
      25     1     1     2     0     0  6.383788860E+01  1.922700543E+02 -3.429395781E+02  4.174632966E+02  1.250000000E+02  0.00000E+00  9.000E+00
      25     1     1     2     0     0 -3.259064246E+02 -1.624683974E+02 -1.120507918E+02  4.009879770E+02  1.250000000E+02  0.00000E+00  9.000E+00
      21     1     1     2   501   512  2.620685360E+02 -2.980165685E+01 -4.423289502E+00  2.637946584E+02  5.085642101E-06  0.00000E+00  9.000E+00
#rwgt            2          11   3.4097098952375927E-003           6      267146           0
</event>
<event>
      5   9999  3.19816E-02  1.33931E+02 -1.00000E+00  1.18378E-01
      21    -1     0     0   502   511  0.000000000E+00  0.000000000E+00  7.649822889E+02  7.649822889E+02  0.000000000E+00  0.00000E+00  9.000E+00
      21    -1     0     0   501   502  0.000000000E+00  0.000000000E+00 -4.171365601E+02  4.171365601E+02  0.000000000E+00  0.00000E+00  9.000E+00
      25     1     1     2     0     0  1.426306998E+02 -2.857774233E+02  2.529257355E+02  4.261556991E+02  1.250000000E+02  0.00000E+00  9.000E+00
      25     1     1     2     0     0 -1.881379121E+02  1.598150675E+02 -2.581021252E+02  3.783892662E+02  1.250000000E+02  0.00000E+00  9.000E+00
      21     1     1     2   501   511  4.550721231E+01  1.259623558E+02  3.530221186E+02  3.775738837E+02  3.814697266E-06  0.00000E+00  9.000E+00
#rwgt            1           1   2.8949872611679070E-002           6      267181           0
</event>
<event>
      5   9999  3.19816E-02  1.67341E+02 -1.00000E+00  1.14541E-01
      21    -1     0     0   502   512  0.000000000E+00  0.000000000E+00  6.505034376E+02  6.505034376E+02  0.000000000E+00  0.00000E+00  9.000E+00
      21    -1     0     0   501   502  0.000000000E+00  0.000000000E+00 -4.876099702E+02  4.876099702E+02  0.000000000E+00  0.00000E+00  9.000E+00
      25     1     1     2     0     0  2.712026350E+02  2.350258697E+01 -2.550425422E+02  3.934144623E+02  1.250000000E+02  0.00000E+00  9.000E+00
      25     1     1     2     0     0 -2.398157641E+02 -1.878740570E+02  4.042885431E+01  3.317646067E+02  1.250000000E+02  0.00000E+00  9.000E+00
      21     1     1     2   501   512 -3.138687094E+01  1.643714700E+02  3.775071553E+02  4.129343388E+02  5.394796609E-06  0.00000E+00  9.000E+00
#rwgt            1           1   2.8405648252427650E-002           6      267241           0
</event>
<event>
      5   9999  3.19816E-02  3.46341E+01 -1.00000E+00  1.48830E-01
      21    -1     0     0   502   501  0.000000000E+00  0.000000000E+00  1.069972120E+03  1.069972120E+03  0.000000000E+00  0.00000E+00  9.000E+00
      21    -1     0     0   501   511  0.000000000E+00  0.000000000E+00 -1.564358338E+02  1.564358338E+02  0.000000000E+00  0.00000E+00  9.000E+00
      25     1     1     2     0     0 -3.206607716E+02  1.029940465E+02  2.842368499E+02  4.580902650E+02  1.250000000E+02  0.00000E+00  9.000E+00
      25     1     1     2     0     0  3.349676476E+02 -7.145300658E+01  6.359481953E+02  7.330511334E+02  1.250000000E+02  0.00000E+00  9.000E+00
      21     1     1     2   502   511 -1.430687594E+01 -3.154103993E+01 -6.648759309E+00  3.526655497E+01  4.616955931E-07  0.00000E+00  9.000E+00
#rwgt            1           1   2.9104205807911270E-002           6      267290           0
</event>
<event>
      5   9999  3.19816E-02  1.97394E+01 -1.00000E+00  1.66840E-01
      21    -1     0     0   502   512  0.000000000E+00  0.000000000E+00  3.347472375E+03  3.347472375E+03  0.000000000E+00  0.00000E+00  9.000E+00
      21    -1     0     0   501   502  0.000000000E+00  0.000000000E+00 -1.341483099E+03  1.341483099E+03  0.000000000E+00  0.00000E+00  9.000E+00
      25     1     1     2     0     0 -1.445287410E+03 -1.833938217E+02 -6.462331636E+02  1.598665473E+03  1.250000000E+02  0.00000E+00  9.000E+00
      25     1     1     2     0     0  1.464130086E+03  1.775118502E+02  2.284800959E+03  2.722338662E+03  1.250000000E+02  0.00000E+00  9.000E+00
      21     1     1     2   501   512 -1.884267632E+01  5.881971498E+00  3.674214809E+02  3.679513401E+02  5.394796609E-06  0.00000E+00  9.000E+00
#rwgt            1           1   1.1831817452338996E-002           6      267453           0
</event>
<event>
      5   9999  3.19816E-02  5.88218E+01 -1.00000E+00  1.35165E-01
      21    -1     0     0   502   501  0.000000000E+00  0.000000000E+00  8.478271043E+02  8.478271043E+02  0.000000000E+00  0.00000E+00  9.000E+00
      21    -1     0     0   501   511  0.000000000E+00  0.000000000E+00 -1.004723189E+02  1.004723189E+02  0.000000000E+00  0.00000E+00  9.000E+00
      25     1     1     2     0     0  1.080995085E+02  4.525916418E+01  6.850141677E+02  7.061184785E+02  1.250000000E+02  0.00000E+00  9.000E+00
      25     1     1     2     0     0 -4.989329261E+01 -3.677132895E+01  1.006026645E+02  1.720097886E+02  1.250000000E+02  0.00000E+00  9.000E+00
      21     1     1     2   502   511 -5.820621590E+01 -8.487835236E+00 -3.826204678E+01  7.017115604E+01  1.507891493E-06  0.00000E+00  9.000E+00
#rwgt            1           1   3.2253445175582915E-002           6      267856           0
</event>
<event>
      5   9999  3.19816E-02  2.03838E+02 -1.00000E+00  1.11348E-01
      21    -1     0     0   502   501  0.000000000E+00  0.000000000E+00  5.354414458E+02  5.354414458E+02  0.000000000E+00  0.00000E+00  9.000E+00
       2    -1     0     0   501     0  0.000000000E+00  0.000000000E+00 -9.343566681E+02  9.343566681E+02  0.000000000E+00  0.00000E+00  9.000E+00
      25     1     1     2     0     0  1.061503057E+01 -1.342284500E+02 -5.772541829E+01  1.925803198E+02  1.250000000E+02  0.00000E+00  9.000E+00
      25     1     1     2     0     0  3.439011055E+00  3.375818326E+02  3.825606341E+02  5.253103457E+02  1.250000000E+02  0.00000E+00  9.000E+00
       2     1     1     2   502     0 -1.405404162E+01 -2.033533826E+02 -7.237504381E+02  7.519074484E+02  0.000000000E+00  0.00000E+00  9.000E+00
#rwgt            2          13   1.9036960983652585E-003           6      267962           0
</event>
<event>
      5   9999  3.19816E-02  6.86326E+01 -1.00000E+00  1.31656E-01
      21    -1     0     0   502   501  0.000000000E+00  0.000000000E+00  1.599479803E+02  1.599479803E+02  0.000000000E+00  0.00000E+00  9.000E+00
      21    -1     0     0   511   502  0.000000000E+00  0.000000000E+00 -4.911453992E+02  4.911453992E+02  0.000000000E+00  0.00000E+00  9.000E+00
      25     1     1     2     0     0  1.072260486E+02  1.760840921E+01 -3.329679071E+02  3.718872258E+02  1.250000000E+02  0.00000E+00  9.000E+00
      25     1     1     2     0     0 -1.193999675E+02 -8.515268002E+01  4.527763257E+01  1.979454348E+02  1.250000000E+02  0.00000E+00  9.000E+00
      21     1     1     2   511   501  1.217391887E+01  6.754427081E+01 -4.350714441E+01  8.126071889E+01  1.348699152E-06  0.00000E+00  9.000E+00
#rwgt            1           1   2.4517244074864507E-002           6      267996           0
</event>
<event>
      5   9999  3.19816E-02  2.09227E+01 -1.00000E+00  1.64769E-01
      21    -1     0     0   502   501  0.000000000E+00  0.000000000E+00  8.886788491E+01  8.886788491E+01  0.000000000E+00  0.00000E+00  9.000E+00
      21    -1     0     0   501   512  0.000000000E+00  0.000000000E+00 -1.415055444E+03  1.415055444E+03  0.000000000E+00  0.00000E+00  9.000E+00
      25     1     1     2     0     0  7.433661218E+00 -2.304158282E+02 -1.787443585E+02  3.173661275E+02  1.250000000E+02  0.00000E+00  9.000E+00
      25     1     1     2     0     0 -2.188589211E+01  2.455450825E+02 -1.107457887E+03  1.141428645E+03  1.250000000E+02  0.00000E+00  9.000E+00
      21     1     1     2   502   512  1.445223089E+01 -1.512925430E+01 -3.998531365E+01  4.512855661E+01  0.000000000E+00  0.00000E+00  9.000E+00
#rwgt            1           1   3.5290984493279852E-002           6      268050           0
</event>
<event>
      5   9999  3.19816E-02  1.00970E+02 -1.00000E+00  1.23640E-01
      21    -1     0     0   502   501  0.000000000E+00  0.000000000E+00  1.851487674E+02  1.851487674E+02  0.000000000E+00  0.00000E+00  9.000E+00
      21    -1     0     0   501   511  0.000000000E+00  0.000000000E+00 -7.389777310E+02  7.389777310E+02  0.000000000E+00  0.00000E+00  9.000E+00
      25     1     1     2     0     0  2.359834135E+02  9.802389371E+01 -1.033479496E+02  3.026593033E+02  1.250000000E+02  0.00000E+00  9.000E+00
      25     1     1     2     0     0 -1.508766779E+02 -1.523534942E+02 -1.195700325E+02  2.754947401E+02  1.250000000E+02  0.00000E+00  9.000E+00
      21     1     1     2   502   511 -8.510673562E+01  5.432960051E+01 -3.309109815E+02  3.459724550E+02  3.814697266E-06  0.00000E+00  9.000E+00
#rwgt            1           1   2.9442830964937973E-002           6      268186           0
</event>
<event>
      5   9999  3.19816E-02  1.99714E+01 -1.00000E+00  1.66420E-01
      21    -1     0     0   502   512  0.000000000E+00  0.000000000E+00  8.950117132E+01  8.950117132E+01  0.000000000E+00  0.00000E+00  9.000E+00
      21    -1     0     0   501   502  0.000000000E+00  0.000000000E+00 -7.182504104E+02  7.182504104E+02  0.000000000E+00  0.00000E+00  9.000E+00
      25     1     1     2     0     0  1.572454286E+02  7.617845086E+01 -4.922417126E+02  5.370811715E+02  1.250000000E+02  0.00000E+00  9.000E+00
      25     1     1     2     0     0 -1.623890841E+02 -5.688076552E+01 -1.169128293E+02  2.426916681E+02  1.250000000E+02  0.00000E+00  9.000E+00
      21     1     1     2   501   512  5.143655479E+00 -1.929768535E+01 -1.959469714E+01  2.797874206E+01  2.384185791E-07  0.00000E+00  9.000E+00
#rwgt            1           1   2.7835236704085407E-002           6      268234           0
</event>
<event>
      5   9999  3.19816E-02  1.14027E+01 -1.00000E+00  1.89390E-01
      21    -1     0     0   502   501  0.000000000E+00  0.000000000E+00  8.517350894E+02  8.517350894E+02  0.000000000E+00  0.00000E+00  9.000E+00
      21    -1     0     0   501   511  0.000000000E+00  0.000000000E+00 -7.377516582E+01  7.377516582E+01  0.000000000E+00  0.00000E+00  9.000E+00
      25     1     1     2     0     0 -1.270176204E+02 -1.443487986E+02  5.066572822E+02  5.561444535E+02  1.250000000E+02  0.00000E+00  9.000E+00
      25     1     1     2     0     0  1.383144112E+02  1.458992121E+02  2.678064712E+02  3.574391731E+02  1.250000000E+02  0.00000E+00  9.000E+00
      21     1     1     2   502   511 -1.129679083E+01 -1.550413550E+00  3.496170213E+00  1.192662867E+01  2.795705652E-07  0.00000E+00  9.000E+00
#rwgt            1           1   2.3487324752303949E-002           6      268380           0
</event>
<event>
      5   9999  3.19816E-02  3.92975E+01 -1.00000E+00  1.45319E-01
      21    -1     0     0   502   501  0.000000000E+00  0.000000000E+00  1.631882603E+02  1.631882603E+02  0.000000000E+00  0.00000E+00  9.000E+00
       2    -1     0     0   501     0  0.000000000E+00  0.000000000E+00 -1.121363911E+03  1.121363911E+03  0.000000000E+00  0.00000E+00  9.000E+00
      25     1     1     2     0     0  3.158515100E+01  1.409220862E+02  9.246548682E+01  2.122063204E+02  1.250000000E+02  0.00000E+00  9.000E+00
      25     1     1     2     0     0  7.635180577E-01 -1.186093837E+02 -9.168491290E+02  9.329019746E+02  1.250000000E+02  0.00000E+00  9.000E+00
       2     1     1     2   502     0 -3.234866906E+01 -2.231270259E+01 -1.337920084E+02  1.394438761E+02  1.907348633E-06  0.00000E+00  9.000E+00
#rwgt            1           1   2.7069018290867084E-002           6      268615           0
</event>
<event>
      5   9999  3.19816E-02  6.45763E+01 -1.00000E+00  1.33019E-01
      21    -1     0     0   502   511  0.000000000E+00  0.000000000E+00  7.854872865E+02  7.854872865E+02  0.000000000E+00  0.00000E+00  9.000E+00
      21    -1     0     0   501   502  0.000000000E+00  0.000000000E+00 -9.980641683E+02  9.980641683E+02  0.000000000E+00  0.00000E+00  9.000E+00
      25     1     1     2     0     0  4.907962589E+02  2.011815424E+02 -1.759693362E+02  5.726649876E+02  1.250000000E+02  0.00000E+00  9.000E+00
      25     1     1     2     0     0 -5.391644504E+02 -1.583959126E+02 -4.881274280E+02  7.547721217E+02  1.250000000E+02  0.00000E+00  9.000E+00
      21     1     1     2   501   511  4.836819151E+01 -4.278562979E+01  4.515198824E+02  4.561143456E+02  5.394796609E-06  0.00000E+00  9.000E+00
#rwgt            1           1   3.3510223456830170E-002           6      268744           0
</event>
<event>
      5   9999  3.19816E-02  1.63710E+02 -1.00000E+00  1.14908E-01
      21    -1     0     0   502   501  0.000000000E+00  0.000000000E+00  1.388863084E+03  1.388863084E+03  0.000000000E+00  0.00000E+00  9.000E+00
      -2    -1     0     0     0   502  0.000000000E+00  0.000000000E+00 -5.853498997E+02  5.853498997E+02  0.000000000E+00  0.00000E+00  9.000E+00
      25     1     1     2     0     0 -3.391373600E+01  1.782276932E+02 -2.058113030E+02  3.014938549E+02  1.250000000E+02  0.00000E+00  9.000E+00
      25     1     1     2     0     0  1.306285951E+02 -3.103161354E+02  1.294771316E+03  1.343658325E+03  1.250000000E+02  0.00000E+00  9.000E+00
      -2     1     1     2     0   501 -9.671485907E+01  1.320884422E+02 -2.854468287E+02  3.290608037E+02  5.394796609E-06  0.00000E+00  9.000E+00
#rwgt            2           9   1.3514535074228928E-004           6      269056           0
</event>
<event>
      5   9999  3.19816E-02  3.90744E+01 -1.00000E+00  1.45474E-01
      21    -1     0     0   502   501  0.000000000E+00  0.000000000E+00  4.780963176E+02  4.780963176E+02  0.000000000E+00  0.00000E+00  9.000E+00
      21    -1     0     0   511   502  0.000000000E+00  0.000000000E+00 -3.390530925E+02  3.390530925E+02  0.000000000E+00  0.00000E+00  9.000E+00
      25     1     1     2     0     0  1.513459601E+01 -3.066107810E+01  3.562020135E+02  3.790435755E+02  1.250000000E+02  0.00000E+00  9.000E+00
      25     1     1     2     0     0  2.387959467E+01  3.282856955E+01  6.958552929E+01  1.487114518E+02  1.250000000E+02  0.00000E+00  9.000E+00
      21     1     1     2   511   501 -3.901419068E+01 -2.167491452E+00 -2.867443177E+02  2.893943828E+02  6.607249480E-06  0.00000E+00  9.000E+00
#rwgt            1           1   5.8434472402251608E-002           6      269075           0
</event>
<event>
      5   9999  3.19816E-02  6.69514E+01 -1.00000E+00  1.32208E-01
      21    -1     0     0   502   501  0.000000000E+00  0.000000000E+00  4.591467311E+02  4.591467311E+02  0.000000000E+00  0.00000E+00  9.000E+00
      21    -1     0     0   512   502  0.000000000E+00  0.000000000E+00 -2.387460214E+03  2.387460214E+03  0.000000000E+00  0.00000E+00  9.000E+00
      25     1     1     2     0     0 -2.679244064E+02 -3.754377747E+02  2.871638452E+02  5.575168914E+02  1.250000000E+02  0.00000E+00  9.000E+00
      25     1     1     2     0     0  3.322270288E+02  3.567920681E+02 -1.835039116E+03  1.902805543E+03  1.250000000E+02  0.00000E+00  9.000E+00
      21     1     1     2   512   501 -6.430262242E+01  1.864570661E+01 -3.804382124E+02  3.862845106E+02  5.394796609E-06  0.00000E+00  9.000E+00
#rwgt            1           1   1.7166075244478638E-002           6      269133           0
</event>
<event>
      5   9999  3.19816E-02  8.32907E+00 -1.00000E+00  2.05408E-01
      21    -1     0     0   502   511  0.000000000E+00  0.000000000E+00  4.462423840E+02  4.462423840E+02  0.000000000E+00  0.00000E+00  9.000E+00
      21    -1     0     0   501   502  0.000000000E+00  0.000000000E+00 -4.028363172E+02  4.028363172E+02  0.000000000E+00  0.00000E+00  9.000E+00
      25     1     1     2     0     0 -1.352261225E+02  3.527261727E+02 -1.019423402E+02  4.107543035E+02  1.250000000E+02  0.00000E+00  9.000E+00
      25     1     1     2     0     0  1.413030046E+02 -3.584222191E+02  1.440567302E+02  4.298957638E+02  1.250000000E+02  0.00000E+00  9.000E+00
      21     1     1     2   501   511 -6.076882063E+00  5.696046346E+00  1.291676795E+00  8.428633847E+00  1.397852826E-07  0.00000E+00  9.000E+00
#rwgt            1           1   2.7645016235607514E-002           6      269276           0
</event>
<event>
      5   9999  3.19816E-02  2.09568E+02 -1.00000E+00  1.10914E-01
       1    -1     0     0   502     0  0.000000000E+00  0.000000000E+00  1.433371070E+03  1.433371070E+03  0.000000000E+00  0.00000E+00  9.000E+00
      21    -1     0     0   501   502  0.000000000E+00  0.000000000E+00 -5.685281794E+02  5.685281794E+02  0.000000000E+00  0.00000E+00  9.000E+00
      25     1     1     2     0     0  5.040138258E+02 -1.099266857E+02 -1.708241038E+02  5.576017282E+02  1.250000000E+02  0.00000E+00  9.000E+00
      25     1     1     2     0     0 -6.246114616E+02  2.813175358E+02  4.675319667E+02  8.387432109E+02  1.250000000E+02  0.00000E+00  9.000E+00
       1     1     1     2   501     0  1.205976358E+02 -1.713908500E+02  5.681350271E+02  6.055543099E+02  0.000000000E+00  0.00000E+00  9.000E+00
#rwgt            1           1   2.7958954840401670E-002           6      269594           0
</event>
<event>
      5   9999  3.19816E-02  1.02395E+01 -1.00000E+00  1.94576E-01
      21    -1     0     0   511   501  0.000000000E+00  0.000000000E+00  1.040966780E+02  1.040966780E+02  0.000000000E+00  0.00000E+00  9.000E+00
      21    -1     0     0   501   502  0.000000000E+00  0.000000000E+00 -5.568600846E+02  5.568600846E+02  0.000000000E+00  0.00000E+00  9.000E+00
      25     1     1     2     0     0  1.178211298E+02  1.436944052E+02 -1.117099851E+02  2.502678994E+02  1.250000000E+02  0.00000E+00  9.000E+00
      25     1     1     2     0     0 -1.170149319E+02 -1.334866931E+02 -3.335893591E+02  3.980176529E+02  1.250000000E+02  0.00000E+00  9.000E+00
      21     1     1     2   511   502 -8.061978986E-01 -1.020771212E+01 -7.464062412E+00  1.267121026E+01  1.192092896E-07  0.00000E+00  9.000E+00
#rwgt            1           1   2.6515839387773681E-002           6      269655           0
</event>
<event>
      5   9999  3.19816E-02  1.17541E+02 -1.00000E+00  1.20751E-01
      -2    -1     0     0     0   501  0.000000000E+00  0.000000000E+00  4.232500793E+02  4.232500793E+02  0.000000000E+00  0.00000E+00  9.000E+00
      21    -1     0     0   501   502  0.000000000E+00  0.000000000E+00 -6.658084254E+02  6.658084254E+02  0.000000000E+00  0.00000E+00  9.000E+00
      25     1     1     2     0     0  2.196145777E+02  1.013634995E+02  2.905003397E+02  3.981464167E+02  1.250000000E+02  0.00000E+00  9.000E+00
      25     1     1     2     0     0 -1.082439772E+02 -6.378064906E+01 -5.446895864E+02  5.727970629E+02  1.250000000E+02  0.00000E+00  9.000E+00
      -2     1     1     2     0   502 -1.113706005E+02 -3.758285045E+01  1.163090054E+01  1.181150251E+02  1.768159506E-06  0.00000E+00  9.000E+00
#rwgt            1           1   3.2364400470550031E-002           6      269851           0
</event>
<event>
      5   9999  3.19816E-02  4.78516E+01 -1.00000E+00  1.40173E-01
      21    -1     0     0   502   501  0.000000000E+00  0.000000000E+00  1.430586303E+02  1.430586303E+02  0.000000000E+00  0.00000E+00  9.000E+00
      21    -1     0     0   501   511  0.000000000E+00  0.000000000E+00 -1.424632906E+03  1.424632906E+03  0.000000000E+00  0.00000E+00  9.000E+00
      25     1     1     2     0     0  2.319832264E+02  3.445897296E+02 -5.135074303E+02  6.722151293E+02  1.250000000E+02  0.00000E+00  9.000E+00
      25     1     1     2     0     0 -1.841976908E+02 -3.471035803E+02 -6.955630958E+02  8.086054075E+02  1.250000000E+02  0.00000E+00  9.000E+00
      21     1     1     2   502   511 -4.778553562E+01  2.513850707E+00 -7.250374989E+01  8.687099981E+01  9.536743164E-07  0.00000E+00  9.000E+00
#rwgt            1           1   2.4188545840428403E-002           6      269938           0
</event>
<event>
      5   9999  3.19816E-02  2.88156E+02 -1.00000E+00  1.06164E-01
      21    -1     0     0   512   501  0.000000000E+00  0.000000000E+00  7.035858263E+02  7.035858263E+02  0.000000000E+00  0.00000E+00  9.000E+00
      21    -1     0     0   501   502  0.000000000E+00  0.000000000E+00 -7.569126189E+02  7.569126189E+02  0.000000000E+00  0.00000E+00  9.000E+00
      25     1     1     2     0     0  6.369144319E+00 -1.712947844E+02 -2.252695415E+01  2.133422903E+02  1.250000000E+02  0.00000E+00  9.000E+00
      25     1     1     2     0     0 -2.291831594E+01 -1.163860268E+02 -5.918533101E+02  6.164302857E+02  1.250000000E+02  0.00000E+00  9.000E+00
      21     1     1     2   512   502  1.654917162E+01  2.876808112E+02  5.610534716E+02  6.307258693E+02  7.629394531E-06  0.00000E+00  9.000E+00
#rwgt            1           1   3.2845415594486421E-002           6      270010           0
</event>
<event>
      5   9999  3.19816E-02  1.21058E+02 -1.00000E+00  1.20207E-01
      21    -1     0     0   502   501  0.000000000E+00  0.000000000E+00  3.004703379E+02  3.004703379E+02  0.000000000E+00  0.00000E+00  9.000E+00
       2    -1     0     0   501     0  0.000000000E+00  0.000000000E+00 -2.868172127E+03  2.868172127E+03  0.000000000E+00  0.00000E+00  9.000E+00
      25     1     1     2     0     0  2.270291694E+01 -4.480646634E+02 -3.945952344E+02  6.104160582E+02  1.250000000E+02  0.00000E+00  9.000E+00
      25     1     1     2     0     0 -1.146162046E+02  5.268484563E+02 -2.109047395E+02  5.922938286E+02  1.250000000E+02  0.00000E+00  9.000E+00
       2     1     1     2   502     0  9.191328770E+01 -7.878379291E+01 -1.962201815E+03  1.965932578E+03  2.157918644E-05  0.00000E+00  9.000E+00
#rwgt            1           1   2.7705334441052592E-002           6      270066           0
</event>
<event>
      5   9999  3.19816E-02  4.91092E+02 -1.00000E+00  9.90743E-02
       2    -1     0     0   502     0  0.000000000E+00  0.000000000E+00  3.528088857E+03  3.528088857E+03  0.000000000E+00  0.00000E+00  9.000E+00
      21    -1     0     0   501   502  0.000000000E+00  0.000000000E+00 -5.341564515E+02  5.341564515E+02  0.000000000E+00  0.00000E+00  9.000E+00
      25     1     1     2     0     0 -4.176726283E+02 -3.257580999E+02  3.247893984E+02  6.337838097E+02  1.250000000E+02  0.00000E+00  9.000E+00
      25     1     1     2     0     0  5.201538148E+02  8.060385092E+02  3.057374535E+02  1.014573043E+03  1.250000000E+02  0.00000E+00  9.000E+00
       2     1     1     2   501     0 -1.024811866E+02 -4.802804093E+02  2.363405553E+03  2.413888455E+03  0.000000000E+00  0.00000E+00  9.000E+00
#rwgt            1           1   2.9543119362966830E-002           6      270145           0
</event>
<event>
      5   9999  3.19816E-02  1.21061E+02 -1.00000E+00  1.20206E-01
      21    -1     0     0   502   501  0.000000000E+00  0.000000000E+00  8.670620723E+02  8.670620723E+02  0.000000000E+00  0.00000E+00  9.000E+00
      21    -1     0     0   501   511  0.000000000E+00  0.000000000E+00 -1.576442795E+02  1.576442795E+02  0.000000000E+00  0.00000E+00  9.000E+00
      25     1     1     2     0     0  1.841229089E+02 -3.877052384E+01 -1.077172917E+01  2.261535524E+02  1.250000000E+02  0.00000E+00  9.000E+00
      25     1     1     2     0     0 -6.790275468E+01  7.266317233E+01  6.234471120E+02  6.435852874E+02  1.250000000E+02  0.00000E+00  9.000E+00
      21     1     1     2   502   511 -1.162201543E+02 -3.389264849E+01  9.674241001E+01  1.549675120E+02  1.907348633E-06  0.00000E+00  9.000E+00
#rwgt            2          11   3.8816775775883891E-003           6      270372           0
</event>
<event>
      5   9999  3.19816E-02  2.92005E+02 -1.00000E+00  1.05975E-01
      21    -1     0     0   502   501  0.000000000E+00  0.000000000E+00  1.330716963E+02  1.330716963E+02  0.000000000E+00  0.00000E+00  9.000E+00
       2    -1     0     0   501     0  0.000000000E+00  0.000000000E+00 -1.999153558E+03  1.999153558E+03  0.000000000E+00  0.00000E+00  9.000E+00
      25     1     1     2     0     0 -4.190067981E+00 -1.809916503E+02 -1.200302764E+03  1.220298021E+03  1.250000000E+02  0.00000E+00  9.000E+00
      25     1     1     2     0     0  2.621109930E+02  4.408386737E+01 -1.780608400E+02  3.434766699E+02  1.250000000E+02  0.00000E+00  9.000E+00
       2     1     1     2   502     0 -2.579209250E+02  1.369077829E+02 -4.877182577E+02  5.684505638E+02  5.394796609E-06  0.00000E+00  9.000E+00
#rwgt            1           1   2.9656895677908350E-002           6      270392           0
</event>
<event>
      5   9999  3.19816E-02  1.80752E+01 -1.00000E+00  1.70079E-01
      21    -1     0     0   502   511  0.000000000E+00  0.000000000E+00  4.369700108E+02  4.369700108E+02  0.000000000E+00  0.00000E+00  9.000E+00
      21    -1     0     0   501   502  0.000000000E+00  0.000000000E+00 -4.187168037E+02  4.187168037E+02  0.000000000E+00  0.00000E+00  9.000E+00
      25     1     1     2     0     0  1.054617153E+02 -3.618772866E+02 -3.272904882E+01  3.984639690E+02  1.250000000E+02  0.00000E+00  9.000E+00
      25     1     1     2     0     0 -1.012739604E+02  3.794606360E+02  9.825817466E+00  4.122721626E+02  1.250000000E+02  0.00000E+00  9.000E+00
      21     1     1     2   501   511 -4.187754870E+00 -1.758334945E+01  4.115643843E+01  4.495068290E+01  4.768371582E-07  0.00000E+00  9.000E+00
#rwgt            1           1   2.8667497502252073E-002           6      270466           0
</event>
<event>
      5   9999  3.19816E-02  5.68197E+01 -1.00000E+00  1.35980E-01
      21    -1     0     0   512   501  0.000000000E+00  0.000000000E+00  2.183167201E+03  2.183167201E+03  0.000000000E+00  0.00000E+00  9.000E+00
      21    -1     0     0   501   502  0.000000000E+00  0.000000000E+00 -2.269075435E+02  2.269075435E+02  0.000000000E+00  0.00000E+00  9.000E+00
      25     1     1     2     0     0  5.487381250E+01  2.480804068E+02 -1.224452974E+02  3.085010120E+02  1.250000000E+02  0.00000E+00  9.000E+00
      25     1     1     2     0     0 -8.115951831E+01 -1.977063713E+02  1.525841223E+03  1.545797889E+03  1.250000000E+02  0.00000E+00  9.000E+00
      21     1     1     2   512   502  2.628570581E+01 -5.037403550E+01  5.528637320E+02  5.557758433E+02  1.078959322E-05  0.00000E+00  9.000E+00
#rwgt            1           1   2.9413532511890446E-002           6      270708           0
</event>
<event>
      5   9999  3.19816E-02  8.22597E+01 -1.00000E+00  1.27767E-01
      21    -1     0     0   502   501  0.000000000E+00  0.000000000E+00  2.635346634E+02  2.635346634E+02  0.000000000E+00  0.00000E+00  9.000E+00
      21    -1     0     0   511   502  0.000000000E+00  0.000000000E+00 -5.244778126E+02  5.244778126E+02  0.000000000E+00  0.00000E+00  9.000E+00
      25     1     1     2     0     0  7.831500055E+01  1.389616779E+01 -3.980906399E+02  4.247675839E+02  1.250000000E+02  0.00000E+00  9.000E+00
      25     1     1     2     0     0 -5.767501286E+01  6.573206566E+01  2.057485290E+02  2.561338883E+02  1.250000000E+02  0.00000E+00  9.000E+00
      21     1     1     2   511   501 -2.063998769E+01 -7.962823345E+01 -6.860103837E+01  1.071110037E+02  1.348699152E-06  0.00000E+00  9.000E+00
#rwgt            1           1   2.9321034627332449E-002           6      270850           0
</event>
<event>
      5   9999  3.19816E-02  7.96339E+01 -1.00000E+00  1.28446E-01
      21    -1     0     0   502   512  0.000000000E+00  0.000000000E+00  4.822790941E+02  4.822790941E+02  0.000000000E+00  0.00000E+00  9.000E+00
      21    -1     0     0   501   502  0.000000000E+00  0.000000000E+00 -2.189191447E+02  2.189191447E+02  0.000000000E+00  0.00000E+00  9.000E+00
      25     1     1     2     0     0  2.989101208E+01  7.112474695E+01 -1.564509453E+02  2.146021913E+02  1.250000000E+02  0.00000E+00  9.000E+00
      25     1     1     2     0     0  1.269872710E+01 -3.836747009E+00  1.110437400E+02  1.677250443E+02  1.250000000E+02  0.00000E+00  9.000E+00
      21     1     1     2   501   512 -4.258973918E+01 -6.728799994E+01  3.087671547E+02  3.188710032E+02  3.814697266E-06  0.00000E+00  9.000E+00
#rwgt            1           1   3.1055041794789514E-002           6      270997           0
</event>
<event>
      5   9999  3.19816E-02  2.58376E+02 -1.00000E+00  1.07743E-01
      21    -1     0     0   502   501  0.000000000E+00  0.000000000E+00  1.242897447E+02  1.242897447E+02  0.000000000E+00  0.00000E+00  9.000E+00
       2    -1     0     0   501     0  0.000000000E+00  0.000000000E+00 -3.123250133E+03  3.123250133E+03  0.000000000E+00  0.00000E+00  9.000E+00
      25     1     1     2     0     0 -3.130137651E+02  3.697981160E+02 -6.914490663E+02  8.534957968E+02  1.250000000E+02  0.00000E+00  9.000E+00
      25     1     1     2     0     0  1.266738164E+02 -1.908127475E+02 -4.624620657E+02  5.309914524E+02  1.250000000E+02  0.00000E+00  9.000E+00
       2     1     1     2   502     0  1.863399487E+02 -1.789853686E+02 -1.845049256E+03  1.863052628E+03  3.737624730E-05  0.00000E+00  9.000E+00
#rwgt            2          13   1.4122712317740965E-003           6      271045           0
</event>
<event>
      5   9999  3.19816E-02  9.19145E+00 -1.00000E+00  2.00087E-01
      21    -1     0     0   502   511  0.000000000E+00  0.000000000E+00  9.941930986E+01  9.941930986E+01  0.000000000E+00  0.00000E+00  9.000E+00
      21    -1     0     0   501   502  0.000000000E+00  0.000000000E+00 -1.605865356E+03  1.605865356E+03  0.000000000E+00  0.00000E+00  9.000E+00
      25     1     1     2     0     0 -3.581402607E+01  3.973856171E+01 -1.545203409E+03  1.551173869E+03  1.250000000E+02  0.00000E+00  9.000E+00
      25     1     1     2     0     0  3.976116004E+01 -4.803933613E+01  3.856566482E+01  1.449173494E+02  1.250000000E+02  0.00000E+00  9.000E+00
      21     1     1     2   501   511 -3.947133974E+00  8.300774424E+00  1.916979639E-01  9.193447164E+00  1.208568230E-07  0.00000E+00  9.000E+00
#rwgt            1           1   2.8894166563909193E-002           6      271109           0
</event>
<event>
      5   9999  3.19816E-02  3.97761E+02 -1.00000E+00  1.01759E-01
      21    -1     0     0   502   512  0.000000000E+00  0.000000000E+00  8.299181550E+02  8.299181550E+02  0.000000000E+00  0.00000E+00  9.000E+00
      21    -1     0     0   501   502  0.000000000E+00  0.000000000E+00 -3.898917563E+02  3.898917563E+02  0.000000000E+00  0.00000E+00  9.000E+00
      25     1     1     2     0     0  1.618127942E+02 -3.277734173E+02  3.465181670E+02  5.189591830E+02  1.250000000E+02  0.00000E+00  9.000E+00
      25     1     1     2     0     0  1.527830020E+02  8.437472894E+01 -1.235783114E+02  2.477061558E+02  1.250000000E+02  0.00000E+00  9.000E+00
      21     1     1     2   501   512 -3.145957962E+02  2.433986884E+02  2.170865431E+02  4.531445726E+02  4.672030912E-06  0.00000E+00  9.000E+00
#rwgt            2          11   2.7295013276729323E-003           6      271484           0
</event>
<event>
      5   9999  3.19816E-02  1.91907E+01 -1.00000E+00  1.67863E-01
      21    -1     0     0   511   501  0.000000000E+00  0.000000000E+00  2.236711933E+03  2.236711933E+03  0.000000000E+00  0.00000E+00  9.000E+00
      21    -1     0     0   501   502  0.000000000E+00  0.000000000E+00 -1.950232399E+03  1.950232399E+03  0.000000000E+00  0.00000E+00  9.000E+00
      25     1     1     2     0     0 -1.007802010E+03 -1.215347939E+03 -8.797020779E+02  1.811694304E+03  1.250000000E+02  0.00000E+00  9.000E+00
      25     1     1     2     0     0  9.912122280E+02  1.224994762E+03  4.291365016E+02  1.637955123E+03  1.250000000E+02  0.00000E+00  9.000E+00
      21     1     1     2   511   502  1.658978248E+01 -9.646823827E+00  7.370451105E+02  7.372949051E+02  1.078959322E-05  0.00000E+00  9.000E+00
#rwgt            1           1   2.3076887411602336E-002           6      271519           0
</event>
<event>
      5   9999  3.19816E-02  8.66176E+01 -1.00000E+00  1.26701E-01
      21    -1     0     0   502   501  0.000000000E+00  0.000000000E+00  1.124866108E+03  1.124866108E+03  0.000000000E+00  0.00000E+00  9.000E+00
      21    -1     0     0   501   512  0.000000000E+00  0.000000000E+00 -4.873532877E+02  4.873532877E+02  0.000000000E+00  0.00000E+00  9.000E+00
      25     1     1     2     0     0  1.534081342E+02  4.301538909E+02  8.840766158E+02  1.002887276E+03  1.250000000E+02  0.00000E+00  9.000E+00
      25     1     1     2     0     0 -9.105520191E+01 -3.700312794E+02 -6.247635850E+01  4.058848272E+02  1.250000000E+02  0.00000E+00  9.000E+00
      21     1     1     2   502   512 -6.235293230E+01 -6.012261144E+01 -1.840874369E+02  2.034472929E+02  3.814697266E-06  0.00000E+00  9.000E+00
#rwgt            1           1   2.8910728854951950E-002           6      271862           0
</event>
<event>
      5   9999  3.19816E-02  7.73611E+01 -1.00000E+00  1.29059E-01
       2    -1     0     0   502     0  0.000000000E+00  0.000000000E+00  7.461067784E+02  7.461067784E+02  0.000000000E+00  0.00000E+00  9.000E+00
      21    -1     0     0   501   502  0.000000000E+00  0.000000000E+00 -2.291383399E+02  2.291383399E+02  0.000000000E+00  0.00000E+00  9.000E+00
      25     1     1     2     0     0  5.310389215E+00  1.714617047E+01 -1.918603609E+02  2.296902033E+02  1.250000000E+02  0.00000E+00  9.000E+00
      25     1     1     2     0     0  4.790381275E+01 -7.329766642E+01  4.343656830E+02  4.603975128E+02  1.250000000E+02  0.00000E+00  9.000E+00
       2     1     1     2   501     0 -5.321420197E+01  5.615149595E+01  2.744631164E+02  2.851574022E+02  3.814697266E-06  0.00000E+00  9.000E+00
#rwgt            1           1   2.7542288223210750E-002           6      271928           0
</event>
<event>
      5   9999  3.19816E-02  2.82008E+01 -1.00000E+00  1.54929E-01
      21    -1     0     0   511   501  0.000000000E+00  0.000000000E+00  9.851951104E+01  9.851951104E+01  0.000000000E+00  0.00000E+00  9.000E+00
      21    -1     0     0   501   502  0.000000000E+00  0.000000000E+00 -7.352043186E+02  7.352043186E+02  0.000000000E+00  0.00000E+00  9.000E+00
      25     1     1     2     0     0  7.714006831E+01  1.321612626E+02 -8.753356861E+01  2.161118115E+02  1.250000000E+02  0.00000E+00  9.000E+00
      25     1     1     2     0     0 -5.656387817E+01 -1.128764689E+02 -5.599149902E+02  5.874269025E+02  1.250000000E+02  0.00000E+00  9.000E+00
      21     1     1     2   511   502 -2.057619013E+01 -1.928479360E+01  1.076375120E+01  3.018511561E+01  5.462855929E-07  0.00000E+00  9.000E+00
#rwgt            1           1   2.7530099783638289E-002           6      272033           0
</event>
<event>
      5   9999  3.19816E-02  3.34945E+01 -1.00000E+00  1.49789E-01
      21    -1     0     0   512   501  0.000000000E+00  0.000000000E+00  2.630922821E+02  2.630922821E+02  0.000000000E+00  0.00000E+00  9.000E+00
      21    -1     0     0   501   502  0.000000000E+00  0.000000000E+00 -2.349732972E+02  2.349732972E+02  0.000000000E+00  0.00000E+00  9.000E+00
      25     1     1     2     0     0 -1.490647869E+02 -5.715020803E+01 -7.750428540E+01  2.170676651E+02  1.250000000E+02  0.00000E+00  9.000E+00
      25     1     1     2     0     0  1.683637441E+02  8.452600636E+01  9.919560391E+01  2.468922112E+02  1.250000000E+02  0.00000E+00  9.000E+00
      21     1     1     2   512   502 -1.929895728E+01 -2.737579833E+01  6.427666441E+00  3.410570308E+01  4.616955931E-07  0.00000E+00  9.000E+00
#rwgt            1           1   2.3302934384057842E-002           6      272153           0
</event>
<event>
      5   9999  3.19816E-02  2.93968E+01 -1.00000E+00  1.53655E-01
      21    -1     0     0   502   511  0.000000000E+00  0.000000000E+00  9.984090079E+02  9.984090079E+02  0.000000000E+00  0.00000E+00  9.000E+00
      21    -1     0     0   501   502  0.000000000E+00  0.000000000E+00 -1.211035181E+02  1.211035181E+02  0.000000000E+00  0.00000E+00  9.000E+00
      25     1     1     2     0     0 -1.236941458E+01  2.294064020E+02  1.021493575E+02  2.807842427E+02  1.250000000E+02  0.00000E+00  9.000E+00
      25     1     1     2     0     0  1.601276430E+01 -2.585765252E+02  6.615762676E+02  7.214058399E+02  1.250000000E+02  0.00000E+00  9.000E+00
      21     1     1     2   501   511 -3.643349717E+00  2.917012320E+01  1.135798646E+02  1.173224434E+02  1.348699152E-06  0.00000E+00  9.000E+00
#rwgt            1           1   2.8698644513127120E-002           6      272223           0
</event>
<event>
      5   9999  3.19816E-02  1.53893E+02 -1.00000E+00  1.15954E-01
      21    -1     0     0   502   501  0.000000000E+00  0.000000000E+00  1.935959926E+03  1.935959926E+03  0.000000000E+00  0.00000E+00  9.000E+00
      21    -1     0     0   512   502  0.000000000E+00  0.000000000E+00 -1.255968179E+02  1.255968179E+02  0.000000000E+00  0.00000E+00  9.000E+00
      25     1     1     2     0     0  1.649611923E+02 -1.998516902E+02  7.927045856E+02  8.433021126E+02  1.250000000E+02  0.00000E+00  9.000E+00
      25     1     1     2     0     0 -1.969843390E+02  3.503760674E+02  9.696011968E+02  1.057032497E+03  1.250000000E+02  0.00000E+00  9.000E+00
      21     1     1     2   512   501  3.202314667E+01 -1.505243772E+02  4.805732547E+01  1.612221343E+02  3.090257978E-06  0.00000E+00  9.000E+00
#rwgt            2          11   4.7152787217416498E-003           6      272576           0
</event>
<event>
      5   9999  3.19816E-02  1.82691E+02 -1.00000E+00  1.13098E-01
      21    -1     0     0   502   511  0.000000000E+00  0.000000000E+00  1.957243779E+03  1.957243779E+03  0.000000000E+00  0.00000E+00  9.000E+00
      21    -1     0     0   501   502  0.000000000E+00  0.000000000E+00 -6.233583266E+01  6.233583266E+01  0.000000000E+00  0.00000E+00  9.000E+00
      25     1     1     2     0     0 -8.907764346E+01  2.634977310E+02  5.563520190E+02  6.344434174E+02  1.250000000E+02  0.00000E+00  9.000E+00
      25     1     1     2     0     0  5.316689418E+01 -8.437042083E+01  8.171952422E+02  8.326933112E+02  1.250000000E+02  0.00000E+00  9.000E+00
      21     1     1     2   501   511  3.591074928E+01 -1.791273101E+02  5.213606853E+02  5.524428833E+02  0.000000000E+00  0.00000E+00  9.000E+00
#rwgt            1           1   2.9401890642215510E-002           6      272611           0
</event>
<event>
      5   9999  3.19816E-02  9.96185E+01 -1.00000E+00  1.23903E-01
      21    -1     0     0   502   501  0.000000000E+00  0.000000000E+00  3.909262901E+02  3.909262901E+02  0.000000000E+00  0.00000E+00  9.000E+00
      21    -1     0     0   512   502  0.000000000E+00  0.000000000E+00 -3.729256775E+02  3.729256775E+02  0.000000000E+00  0.00000E+00  9.000E+00
      25     1     1     2     0     0  1.445810212E+02  3.167450522E+02  8.571804828E+01  3.797416011E+02  1.250000000E+02  0.00000E+00  9.000E+00
      25     1     1     2     0     0 -9.854085375E+01 -2.284039219E+02 -4.636742510E+01  2.822296751E+02  1.250000000E+02  0.00000E+00  9.000E+00
      21     1     1     2   512   501 -4.604016740E+01 -8.834113027E+01 -2.135001057E+01  1.018806913E+02  1.877309769E-06  0.00000E+00  9.000E+00
#rwgt            1           1   3.1284297249100868E-002           6      272643           0
</event>
<event>
      5   9999  3.25105E-02  8.83039E+01 -1.00000E+00  1.26307E-01
      21    -1     0     0   511   501  0.000000000E+00  0.000000000E+00  2.469748551E+03  2.469748551E+03  0.000000000E+00  0.00000E+00  9.000E+00
      21    -1     0     0   501   502  0.000000000E+00  0.000000000E+00 -1.035934520E+03  1.035934520E+03  0.000000000E+00  0.00000E+00  9.000E+00
      25     1     1     2     0     0 -6.844013037E+01 -5.725125035E+02 -9.061378339E+02  1.081279516E+03  1.250000000E+02  0.00000E+00  9.000E+00
      25     1     1     2     0     0  4.153913316E+01  4.884058961E+02  2.210901317E+03  2.268033389E+03  1.250000000E+02  0.00000E+00  9.000E+00
      21     1     1     2   511   502  2.690099721E+01  8.410660742E+01  1.290505481E+02  1.563701667E+02  1.907348633E-06  0.00000E+00  9.000E+00
#rwgt            2          11   7.6743769786079677E-002           6      272685           0
</event>
<event>
      5   9999  3.19816E-02  7.40197E+00 -1.00000E+00  2.12182E-01
      21    -1     0     0   502   501  0.000000000E+00  0.000000000E+00  1.062519671E+03  1.062519671E+03  0.000000000E+00  0.00000E+00  9.000E+00
      21    -1     0     0   501   512  0.000000000E+00  0.000000000E+00 -3.844192316E+01  3.844192316E+01  0.000000000E+00  0.00000E+00  9.000E+00
      25     1     1     2     0     0 -4.132101520E+01  3.968719720E+01  9.022531160E+02  9.126709074E+02  1.250000000E+02  0.00000E+00  9.000E+00
      25     1     1     2     0     0  4.205185177E+01 -3.232139895E+01  1.121714893E+02  1.761263015E+02  1.250000000E+02  0.00000E+00  9.000E+00
      21     1     1     2   502   512 -7.308365714E-01 -7.365798247E+00  9.653142211E+00  1.216438492E+01  2.064765462E-07  0.00000E+00  9.000E+00
#rwgt            1           1   3.3697260277940372E-002           6      272720           0
</event>
<event>
      5   9999  3.19816E-02  1.36998E+02 -1.00000E+00  1.17976E-01
      21    -1     0     0   502   511  0.000000000E+00  0.000000000E+00  4.412737479E+03  4.412737479E+03  0.000000000E+00  0.00000E+00  9.000E+00
      21    -1     0     0   501   502  0.000000000E+00  0.000000000E+00 -3.534945667E+02  3.534945667E+02  0.000000000E+00  0.00000E+00  9.000E+00
      25     1     1     2     0     0  9.439149632E+02  1.447268941E+02  2.905468102E+03  3.060929797E+03  1.250000000E+02  0.00000E+00  9.000E+00
      25     1     1     2     0     0 -1.041398460E+03 -4.846921669E+01  7.823310661E+02  1.309399448E+03  1.250000000E+02  0.00000E+00  9.000E+00
      21     1     1     2   501   511  9.748349629E+01 -9.625767742E+01  3.714437441E+02  3.959028006E+02  5.394796609E-06  0.00000E+00  9.000E+00
#rwgt            1           1   6.5570359046814394E-002           6      272995           0
</event>
<event>
      5   9999  3.19816E-02  2.31320E+02 -1.00000E+00  1.09395E-01
      21    -1     0     0   502   501  0.000000000E+00  0.000000000E+00  2.524776168E+02  2.524776168E+02  0.000000000E+00  0.00000E+00  9.000E+00
      21    -1     0     0   501   512  0.000000000E+00  0.000000000E+00 -7.261715322E+02  7.261715322E+02  0.000000000E+00  0.00000E+00  9.000E+00
      25     1     1     2     0     0  3.109853255E+02  9.625085140E+01 -1.024794750E+02  3.634599591E+02  1.250000000E+02  0.00000E+00  9.000E+00
      25     1     1     2     0     0 -1.264699168E+02  4.325960183E+01 -6.275218888E+00  1.831131109E+02  1.250000000E+02  0.00000E+00  9.000E+00
      21     1     1     2   502   512 -1.845154087E+02 -1.395104532E+02 -3.649392216E+02  4.320760790E+02  7.629394531E-06  0.00000E+00  9.000E+00
#rwgt            1           1   2.6570106038333211E-002           6      273133           0
</event>
<event>
      5   9999  3.19816E-02  1.10021E+02 -1.00000E+00  1.21991E-01
      21    -1     0     0   502   511  0.000000000E+00  0.000000000E+00  3.412968859E+02  3.412968859E+02  0.000000000E+00  0.00000E+00  9.000E+00
      21    -1     0     0   501   502  0.000000000E+00  0.000000000E+00 -9.954384369E+02  9.954384369E+02  0.000000000E+00  0.00000E+00  9.000E+00
      25     1     1     2     0     0  4.455723253E+02 -1.777289719E+02 -5.419987678E+02  7.345134096E+02  1.250000000E+02  0.00000E+00  9.000E+00
      25     1     1     2     0     0 -4.524346896E+02  6.792262047E+01 -1.275547295E+02  4.911271116E+02  1.250000000E+02  0.00000E+00  9.000E+00
      21     1     1     2   501   511  6.862364312E+00  1.098063514E+02  1.541194639E+01  1.110948016E+02  2.125806153E-06  0.00000E+00  9.000E+00
#rwgt            1           1   2.9757936594536939E-002           6      273188           0
</event>
<event>
      5   9999  3.19816E-02  5.12489E+01 -1.00000E+00  1.38467E-01
      21    -1     0     0   502   501  0.000000000E+00  0.000000000E+00  2.073638093E+03  2.073638093E+03  0.000000000E+00  0.00000E+00  9.000E+00
      21    -1     0     0   512   502  0.000000000E+00  0.000000000E+00 -3.532691632E+02  3.532691632E+02  0.000000000E+00  0.00000E+00  9.000E+00
      25     1     1     2     0     0  1.627524368E+02  2.607564039E+02  1.938456935E+03  1.966652624E+03  1.250000000E+02  0.00000E+00  9.000E+00
      25     1     1     2     0     0 -1.293965875E+02 -2.996644334E+02 -2.116294726E+02  4.086003955E+02  1.250000000E+02  0.00000E+00  9.000E+00
      21     1     1     2   512   501 -3.335584932E+01  3.890802953E+01 -6.458532567E+00  5.165423592E+01  1.015030525E-06  0.00000E+00  9.000E+00
#rwgt            1           1   2.0087238464560887E-002           6      273248           0
</event>
<event>
      5   9999  3.19816E-02  2.61643E+02 -1.00000E+00  1.07559E-01
      21    -1     0     0   502   501  0.000000000E+00  0.000000000E+00  1.854114309E+03  1.854114309E+03  0.000000000E+00  0.00000E+00  9.000E+00
      21    -1     0     0   511   502  0.000000000E+00  0.000000000E+00 -2.128449354E+02  2.128449354E+02  0.000000000E+00  0.00000E+00  9.000E+00
      25     1     1     2     0     0  4.273120048E+01 -1.509607821E+01  4.818185121E+02  4.998278961E+02  1.250000000E+02  0.00000E+00  9.000E+00
      25     1     1     2     0     0  1.973288872E+02  1.191556129E+02  1.259876987E+03  1.286876751E+03  1.250000000E+02  0.00000E+00  9.000E+00
      21     1     1     2   511   501 -2.400600877E+02 -1.040595347E+02 -1.004261257E+02  2.802545971E+02  8.946258087E-06  0.00000E+00  9.000E+00
#rwgt            1           1   6.2283903530302998E-002           6      273447           0
</event>
<event>
      5   9999  3.19816E-02  4.85505E+01 -1.00000E+00  1.39808E-01
       1    -1     0     0   502     0  0.000000000E+00  0.000000000E+00  9.423323172E+02  9.423323172E+02  0.000000000E+00  0.00000E+00  9.000E+00
      21    -1     0     0   501   502  0.000000000E+00  0.000000000E+00 -1.376926533E+02  1.376926533E+02  0.000000000E+00  0.00000E+00  9.000E+00
      25     1     1     2     0     0  1.973722796E+02  5.581080401E+01  1.577109080E+02  2.873471647E+02  1.250000000E+02  0.00000E+00  9.000E+00
      25     1     1     2     0     0 -2.307434230E+02 -9.107428862E+01  1.979838290E+02  3.411153028E+02  1.250000000E+02  0.00000E+00  9.000E+00
       1     1     1     2   501     0  3.337114338E+01  3.526348461E+01  4.489449270E+02  4.515625029E+02  7.629394531E-06  0.00000E+00  9.000E+00
#rwgt            1           1   2.6207087373481940E-002           6      273505           0
</event>
<event>
      5   9999  3.19816E-02  9.27687E+01 -1.00000E+00  1.25312E-01
      21    -1     0     0   502   501  0.000000000E+00  0.000000000E+00  1.435671724E+02  1.435671724E+02  0.000000000E+00  0.00000E+00  9.000E+00
       2    -1     0     0   501     0  0.000000000E+00  0.000000000E+00 -2.172176660E+03  2.172176660E+03  0.000000000E+00  0.00000E+00  9.000E+00
      25     1     1     2     0     0  3.479803345E+02  1.954715239E+02 -1.341008454E+03  1.404716379E+03  1.250000000E+02  0.00000E+00  9.000E+00
      25     1     1     2     0     0 -4.383104244E+02 -2.166021714E+02 -5.899361486E+02  7.763260837E+02  1.250000000E+02  0.00000E+00  9.000E+00
       2     1     1     2   502     0  9.033008989E+01  2.113064747E+01 -9.766488488E+01  1.347013702E+02  1.907348633E-06  0.00000E+00  9.000E+00
#rwgt            1           1   3.4110664723905552E-002           6      273613           0
</event>
<event>
      5   9999  3.19816E-02  6.59821E+01 -1.00000E+00  1.32534E-01
      21    -1     0     0   502   511  0.000000000E+00  0.000000000E+00  3.109617881E+02  3.109617881E+02  0.000000000E+00  0.00000E+00  9.000E+00
      21    -1     0     0   501   502  0.000000000E+00  0.000000000E+00 -3.188601823E+02  3.188601823E+02  0.000000000E+00  0.00000E+00  9.000E+00
      25     1     1     2     0     0  2.086731848E+02 -4.124418059E+01 -1.012051917E+02  2.666703420E+02  1.250000000E+02  0.00000E+00  9.000E+00
      25     1     1     2     0     0 -2.037670150E+02 -2.455525579E+01 -1.006017118E+01  2.405206104E+02  1.250000000E+02  0.00000E+00  9.000E+00
      21     1     1     2   501   511 -4.906169773E+00  6.579943639E+01  1.033669687E+02  1.226310179E+02  0.000000000E+00  0.00000E+00  9.000E+00
#rwgt            1           1   3.0807866215583461E-002           6      273696           0
</event>
<event>
      5   9999  3.19816E-02  1.51813E+02 -1.00000E+00  1.16187E-01
      21    -1     0     0   502   501  0.000000000E+00  0.000000000E+00  7.133201595E+02  7.133201595E+02  0.000000000E+00  0.00000E+00  9.000E+00
       2    -1     0     0   501     0  0.000000000E+00  0.000000000E+00 -1.436584030E+03  1.436584030E+03  0.000000000E+00  0.00000E+00  9.000E+00
      25     1     1     2     0     0 -2.838816368E+02  1.511924423E+02  5.723792698E+02  6.683494347E+02  1.250000000E+02  0.00000E+00  9.000E+00
      25     1     1     2     0     0  2.617255582E+02 -3.013803514E+02 -4.196516490E+02  5.925056038E+02  1.250000000E+02  0.00000E+00  9.000E+00
       2     1     1     2   502     0  2.215607865E+01  1.501879092E+02 -8.759914918E+02  8.890491514E+02  1.078959322E-05  0.00000E+00  9.000E+00
#rwgt            2          13   1.6675931395279198E-003           6      273831           0
</event>
<event>
      5   9999  3.19816E-02  2.72580E+01 -1.00000E+00  1.55989E-01
      21    -1     0     0   511   501  0.000000000E+00  0.000000000E+00  2.730381432E+02  2.730381432E+02  0.000000000E+00  0.00000E+00  9.000E+00
      21    -1     0     0   501   502  0.000000000E+00  0.000000000E+00 -4.010780846E+02  4.010780846E+02  0.000000000E+00  0.00000E+00  9.000E+00
      25     1     1     2     0     0 -1.675553745E+02  2.037634458E+02 -1.940415228E+02  3.505302525E+02  1.250000000E+02  0.00000E+00  9.000E+00
      25     1     1     2     0     0  1.855286913E+02 -1.832706115E+02  5.610796959E+01  2.945880456E+02  1.250000000E+02  0.00000E+00  9.000E+00
      21     1     1     2   511   502 -1.797331685E+01 -2.049283431E+01  9.893611737E+00  2.899792975E+01  1.685873940E-07  0.00000E+00  9.000E+00
#rwgt            1           1   2.8350109143148360E-002           6      273850           0
</event>
<event>
      5   9999  3.19816E-02  3.47919E+01 -1.00000E+00  1.48700E-01
      21    -1     0     0   502   512  0.000000000E+00  0.000000000E+00  8.327400291E+02  8.327400291E+02  0.000000000E+00  0.00000E+00  9.000E+00
      21    -1     0     0   501   502  0.000000000E+00  0.000000000E+00 -2.601053377E+02  2.601053377E+02  0.000000000E+00  0.00000E+00  9.000E+00
      25     1     1     2     0     0  4.165225056E+01 -4.157636009E+02  1.367692773E+02  4.570832714E+02  1.250000000E+02  0.00000E+00  9.000E+00
      25     1     1     2     0     0 -7.473060385E+00  4.092630581E+02  4.055130099E+02  5.895912979E+02  1.250000000E+02  0.00000E+00  9.000E+00
      21     1     1     2   501   512 -3.417919018E+01  6.500542713E+00  3.035240420E+01  4.617079745E+01  3.371747881E-07  0.00000E+00  9.000E+00
#rwgt            1           1   2.7025258793872950E-002           6      273998           0
</event>
<event>
      5   9999  3.19816E-02  4.76684E+01 -1.00000E+00  1.40269E-01
      21    -1     0     0   502   501  0.000000000E+00  0.000000000E+00  1.499761032E+02  1.499761032E+02  0.000000000E+00  0.00000E+00  9.000E+00
      21    -1     0     0   501   511  0.000000000E+00  0.000000000E+00 -1.213731803E+03  1.213731803E+03  0.000000000E+00  0.00000E+00  9.000E+00
      25     1     1     2     0     0  2.246384971E+02  2.183265576E+02 -7.401788414E+02  8.133994452E+02  1.250000000E+02  0.00000E+00  9.000E+00
      25     1     1     2     0     0 -2.688252161E+02 -2.004433850E+02 -1.831504833E+02  4.020119985E+02  1.250000000E+02  0.00000E+00  9.000E+00
      21     1     1     2   502   511  4.418671899E+01 -1.788317261E+01 -1.404263755E+02  1.482964630E+02  2.697398305E-06  0.00000E+00  9.000E+00
#rwgt            1           1   3.2126142122137803E-002           6      274110           0
</event>
<event>
      5   9999  3.19816E-02  8.80406E+01 -1.00000E+00  1.26368E-01
      21    -1     0     0   502   501  0.000000000E+00  0.000000000E+00  4.346439056E+02  4.346439056E+02  0.000000000E+00  0.00000E+00  9.000E+00
      21    -1     0     0   501   512  0.000000000E+00  0.000000000E+00 -8.545277903E+02  8.545277903E+02  0.000000000E+00  0.00000E+00  9.000E+00
      25     1     1     2     0     0  2.621659578E+02 -6.286749586E+00 -5.576678487E+02  6.287996041E+02  1.250000000E+02  0.00000E+00  9.000E+00
      25     1     1     2     0     0 -2.763133192E+02 -8.060973820E+01  3.260564815E+02  4.525315562E+02  1.250000000E+02  0.00000E+00  9.000E+00
      21     1     1     2   502   512  1.414736145E+01  8.689648779E+01 -1.882725174E+02  2.078405356E+02  2.697398305E-06  0.00000E+00  9.000E+00
#rwgt            1           1   2.9002605032423922E-002           6      274245           0
</event>
<event>
      5   9999  3.19816E-02  4.52115E+01 -1.00000E+00  1.41617E-01
      21    -1     0     0   511   501  0.000000000E+00  0.000000000E+00  1.539937153E+03  1.539937153E+03  0.000000000E+00  0.00000E+00  9.000E+00
      21    -1     0     0   501   502  0.000000000E+00  0.000000000E+00 -2.119005753E+02  2.119005753E+02  0.000000000E+00  0.00000E+00  9.000E+00
      25     1     1     2     0     0  2.440824560E+02 -4.406741575E+02  7.381450838E+02  9.023597527E+02  1.250000000E+02  0.00000E+00  9.000E+00
      25     1     1     2     0     0 -2.781714540E+02  4.703729831E+02  5.109267239E+02  7.584861358E+02  1.250000000E+02  0.00000E+00  9.000E+00
      21     1     1     2   511   502  3.408899800E+01 -2.969882554E+01  7.896476979E+01  9.099183970E+01  1.651812370E-06  0.00000E+00  9.000E+00
#rwgt            1           1   2.5714906861290004E-002           6      274323           0
</event>
<event>
      5   9999  3.19816E-02  5.80995E+01 -1.00000E+00  1.35455E-01
      21    -1     0     0   502   512  0.000000000E+00  0.000000000E+00  1.200237727E+02  1.200237727E+02  0.000000000E+00  0.00000E+00  9.000E+00
      21    -1     0     0   501   502  0.000000000E+00  0.000000000E+00 -9.141443420E+02  9.141443420E+02  0.000000000E+00  0.00000E+00  9.000E+00
      25     1     1     2     0     0  1.211409031E+02  1.928652343E+02 -4.746475876E+02  5.410983731E+02  1.250000000E+02  0.00000E+00  9.000E+00
      25     1     1     2     0     0 -1.352139512E+02 -2.492345777E+02 -3.012552517E+02  4.321809968E+02  1.250000000E+02  0.00000E+00  9.000E+00
      21     1     1     2   501   512  1.407304807E+01  5.636934340E+01 -1.821773011E+01  6.088874484E+01  3.371747881E-07  0.00000E+00  9.000E+00
#rwgt            1           1   2.7244499312170867E-002           6      274411           0
</event>
<event>
      5   9999  3.19816E-02  8.99098E+01 -1.00000E+00  1.25942E-01
      21    -1     0     0   502   511  0.000000000E+00  0.000000000E+00  2.262167961E+03  2.262167961E+03  0.000000000E+00  0.00000E+00  9.000E+00
      21    -1     0     0   501   502  0.000000000E+00  0.000000000E+00 -9.466646924E+02  9.466646924E+02  0.000000000E+00  0.00000E+00  9.000E+00
      25     1     1     2     0     0  9.523706051E+02  7.283277659E+02 -6.510714626E+01  1.207201327E+03  1.250000000E+02  0.00000E+00  9.000E+00
      25     1     1     2     0     0 -1.042139075E+03 -7.232890785E+02  1.027483066E+03  1.637237732E+03  1.250000000E+02  0.00000E+00  9.000E+00
      21     1     1     2   501   511  8.976846949E+01 -5.038687349E+00  3.531273496E+02  3.643935943E+02  5.394796609E-06  0.00000E+00  9.000E+00
#rwgt            1           1   4.6542092850726739E-002           6      274467           0
</event>
<event>
      5   9999  3.19816E-02  3.56786E+01 -1.00000E+00  1.47988E-01
      21    -1     0     0   512   501  0.000000000E+00  0.000000000E+00  1.215768089E+02  1.215768089E+02  0.000000000E+00  0.00000E+00  9.000E+00
      21    -1     0     0   501   502  0.000000000E+00  0.000000000E+00 -4.405461242E+02  4.405461242E+02  0.000000000E+00  0.00000E+00  9.000E+00
      25     1     1     2     0     0 -4.433907147E+00 -5.525861925E+01  1.723122089E+01  1.378226741E+02  1.250000000E+02  0.00000E+00  9.000E+00
      25     1     1     2     0     0  2.321507727E+01  8.559395974E+01 -3.530206349E+02  3.848556021E+02  1.250000000E+02  0.00000E+00  9.000E+00
      21     1     1     2   512   502 -1.878117012E+01 -3.033534049E+01  1.682009877E+01  3.944465688E+01  0.000000000E+00  0.00000E+00  9.000E+00
#rwgt            1           1   2.8728159781839339E-002           6      274617           0
</event>
<event>
      5   9999  3.19816E-02  6.51777E+01 -1.00000E+00  1.32810E-01
      21    -1     0     0   502   501  0.000000000E+00  0.000000000E+00  6.891556630E+01  6.891556630E+01  0.000000000E+00  0.00000E+00  9.000E+00
       2    -1     0     0   501     0  0.000000000E+00  0.000000000E+00 -1.155873167E+03  1.155873167E+03  0.000000000E+00  0.00000E+00  9.000E+00
      25     1     1     2     0     0 -1.788000873E+02 -2.979705346E+01 -2.509038033E+02  3.338188942E+02  1.250000000E+02  0.00000E+00  9.000E+00
      25     1     1     2     0     0  1.891360018E+02 -3.455588372E+01 -5.209031480E+02  5.691499151E+02  1.250000000E+02  0.00000E+00  9.000E+00
       2     1     1     2   502     0 -1.033591454E+01  6.435293718E+01 -3.151506489E+02  3.218199235E+02  7.629394531E-06  0.00000E+00  9.000E+00
#rwgt            1           1   2.7885989765585761E-002           6      274694           0
</event>
<event>
      5   9999  3.19816E-02  1.26995E+01 -1.00000E+00  1.84478E-01
      21    -1     0     0   502   501  0.000000000E+00  0.000000000E+00  6.287984672E+02  6.287984672E+02  0.000000000E+00  0.00000E+00  9.000E+00
      21    -1     0     0   511   502  0.000000000E+00  0.000000000E+00 -6.913369015E+02  6.913369015E+02  0.000000000E+00  0.00000E+00  9.000E+00
      25     1     1     2     0     0 -4.245786859E+02 -3.270356521E+02  3.279836628E+02  6.406384794E+02  1.250000000E+02  0.00000E+00  9.000E+00
      25     1     1     2     0     0  4.121067600E+02  3.294291702E+02 -3.875194900E+02  6.664472335E+02  1.250000000E+02  0.00000E+00  9.000E+00
      21     1     1     2   511   501  1.247192591E+01 -2.393518195E+00 -3.002607096E+00  1.304965573E+01  1.192092896E-07  0.00000E+00  9.000E+00
#rwgt            1           1   2.9331279924403549E-002           6      274753           0
</event>
<event>
      5   9999  3.19816E-02  9.86816E+01 -1.00000E+00  1.24088E-01
      21    -1     0     0   502   512  0.000000000E+00  0.000000000E+00  5.369718909E+02  5.369718909E+02  0.000000000E+00  0.00000E+00  9.000E+00
      21    -1     0     0   501   502  0.000000000E+00  0.000000000E+00 -2.886105868E+02  2.886105868E+02  0.000000000E+00  0.00000E+00  9.000E+00
      25     1     1     2     0     0  2.219914431E+02  7.641684657E+01 -9.001316292E+01  2.807972663E+02  1.250000000E+02  0.00000E+00  9.000E+00
      25     1     1     2     0     0 -2.465227175E+02  1.916702289E+01  1.138762583E+02  2.995557164E+02  1.250000000E+02  0.00000E+00  9.000E+00
      21     1     1     2   501   512  2.453127437E+01 -9.558386946E+01  2.244982088E+02  2.452294951E+02  3.814697266E-06  0.00000E+00  9.000E+00
#rwgt            1           1   2.9394769035440513E-002           6      275023           0
</event>
<event>
      5   9999  3.19816E-02  3.52546E+02 -1.00000E+00  1.03363E-01
      21    -1     0     0   502   501  0.000000000E+00  0.000000000E+00  1.491537255E+03  1.491537255E+03  0.000000000E+00  0.00000E+00  9.000E+00
      21    -1     0     0   501   511  0.000000000E+00  0.000000000E+00 -4.796432156E+02  4.796432156E+02  0.000000000E+00  0.00000E+00  9.000E+00
      25     1     1     2     0     0  4.511397184E+02  2.109093221E+02  5.755412914E+02  7.712863060E+02  1.250000000E+02  0.00000E+00  9.000E+00
      25     1     1     2     0     0 -3.360487389E+02 -5.441404906E+02  5.244870540E+02  8.364982357E+02  1.250000000E+02  0.00000E+00  9.000E+00
      21     1     1     2   502   511 -1.150909795E+02  3.332311685E+02 -8.813430598E+01  3.633959289E+02  3.303624740E-06  0.00000E+00  9.000E+00
#rwgt            2          11   3.4969788654576521E-003           6      275118           0
</event>
<event>
      5   9999  3.19816E-02  4.07592E+01 -1.00000E+00  1.44336E-01
      21    -1     0     0   502   501  0.000000000E+00  0.000000000E+00  3.076906031E+02  3.076906031E+02  0.000000000E+00  0.00000E+00  9.000E+00
      21    -1     0     0   501   512  0.000000000E+00  0.000000000E+00 -2.617812030E+02  2.617812030E+02  0.000000000E+00  0.00000E+00  9.000E+00
      25     1     1     2     0     0  5.109584561E+01  1.971712921E+02  7.518641063E+01  2.505300385E+02  1.250000000E+02  0.00000E+00  9.000E+00
      25     1     1     2     0     0 -7.038445082E+01 -2.330776285E+02 -1.003837036E+01  2.738702626E+02  1.250000000E+02  0.00000E+00  9.000E+00
      21     1     1     2   502   512  1.928860522E+01  3.590633645E+01 -1.923864018E+01  4.507150502E+01  6.743495762E-07  0.00000E+00  9.000E+00
#rwgt            1           1   2.8292659464785336E-002           6      275138           0
</event>
<event>
      5   9999  3.19816E-02  1.16121E+02 -1.00000E+00  1.20977E-01
       1    -1     0     0   502     0  0.000000000E+00  0.000000000E+00  2.483514938E+03  2.483514938E+03  0.000000000E+00  0.00000E+00  9.000E+00
      21    -1     0     0   501   502  0.000000000E+00  0.000000000E+00 -2.434868441E+02  2.434868441E+02  0.000000000E+00  0.00000E+00  9.000E+00
      25     1     1     2     0     0  1.405644980E+02 -8.447762163E+01 -8.517228598E+01  2.231012437E+02  1.250000000E+02  0.00000E+00  9.000E+00
      25     1     1     2     0     0 -2.396790858E+02  2.397715003E+01  1.218262218E+02  2.974686475E+02  1.250000000E+02  0.00000E+00  9.000E+00
       1     1     1     2   501     0  9.911458782E+01  6.050047159E+01  2.203374158E+03  2.206431891E+03  4.315837288E-05  0.00000E+00  9.000E+00
#rwgt            1           1   2.8425386819096544E-002           6      275218           0
</event>
<event>
      5   9999  3.19816E-02  6.09159E+01 -1.00000E+00  1.34353E-01
      21    -1     0     0   511   501  0.000000000E+00  0.000000000E+00  1.045969654E+03  1.045969654E+03  0.000000000E+00  0.00000E+00  9.000E+00
      21    -1     0     0   501   502  0.000000000E+00  0.000000000E+00 -7.292172154E+02  7.292172154E+02  0.000000000E+00  0.00000E+00  9.000E+00
      25     1     1     2     0     0 -3.335432784E+02  6.762331476E+02  4.457621095E+02  8.848001168E+02  1.250000000E+02  0.00000E+00  9.000E+00
      25     1     1     2     0     0  3.415347078E+02 -6.158436869E+02 -2.477676217E+02  7.569169027E+02  1.250000000E+02  0.00000E+00  9.000E+00
      21     1     1     2   511   502 -7.991429378E+00 -6.038946075E+01  1.187579504E+02  1.334698494E+02  1.907348633E-06  0.00000E+00  9.000E+00
#rwgt            1           1   3.0103380652335046E-002           6      275310           0
</event>
<event>
      5   9999  3.19816E-02  4.51468E+01 -1.00000E+00  1.41654E-01
       2    -1     0     0   502     0  0.000000000E+00  0.000000000E+00  1.749433418E+03  1.749433418E+03  0.000000000E+00  0.00000E+00  9.000E+00
      21    -1     0     0   501   502  0.000000000E+00  0.000000000E+00 -6.136045667E+01  6.136045667E+01  0.000000000E+00  0.00000E+00  9.000E+00
      25     1     1     2     0     0 -8.436913636E+01  2.020867437E+02  4.375268122E+02  5.049870440E+02  1.250000000E+02  0.00000E+00  9.000E+00
      25     1     1     2     0     0  8.599125482E+01 -2.472044194E+02  7.645815901E+02  8.177496736E+02  1.250000000E+02  0.00000E+00  9.000E+00
       2     1     1     2   501     0 -1.622118461E+00  4.511767562E+01  4.859645593E+02  4.880571573E+02  0.000000000E+00  0.00000E+00  9.000E+00
#rwgt            1           1   2.7035178793239752E-002           6      275451           0
</event>
<event>
      5   9999  3.19816E-02  1.94331E+02 -1.00000E+00  1.12105E-01
      21    -1     0     0   502   501  0.000000000E+00  0.000000000E+00  1.079169008E+03  1.079169008E+03  0.000000000E+00  0.00000E+00  9.000E+00
      21    -1     0     0   511   502  0.000000000E+00  0.000000000E+00 -9.877155751E+02  9.877155751E+02  0.000000000E+00  0.00000E+00  9.000E+00
      25     1     1     2     0     0  7.878440707E+02  3.851814299E+00  6.685303594E+02  1.040803035E+03  1.250000000E+02  0.00000E+00  9.000E+00
      25     1     1     2     0     0 -6.038871300E+02  5.879179794E+01 -5.527446067E+02  8.302335464E+02  1.250000000E+02  0.00000E+00  9.000E+00
      21     1     1     2   511   501 -1.839569407E+02 -6.264361224E+01 -2.433231940E+01  1.958480022E+02  4.264961200E-06  0.00000E+00  9.000E+00
#rwgt            1           1   2.6925256435717162E-002           6      275517           0
</event>
<event>
      5   9999  3.19816E-02  3.28905E+01 -1.00000E+00  1.50316E-01
      21    -1     0     0   502   501  0.000000000E+00  0.000000000E+00  6.450972695E+02  6.450972695E+02  0.000000000E+00  0.00000E+00  9.000E+00
      21    -1     0     0   501   512  0.000000000E+00  0.000000000E+00 -2.618634414E+02  2.618634414E+02  0.000000000E+00  0.00000E+00  9.000E+00
      25     1     1     2     0     0 -2.547908399E+02  8.366612357E+01  1.734645701E+02  3.429771849E+02  1.250000000E+02  0.00000E+00  9.000E+00
      25     1     1     2     0     0  2.862881181E+02 -7.419478879E+01  3.173760352E+02  4.514624026E+02  1.250000000E+02  0.00000E+00  9.000E+00
      21     1     1     2   502   512 -3.149727822E+01 -9.471334773E+00 -1.076067771E+02  1.125211234E+02  1.348699152E-06  0.00000E+00  9.000E+00
#rwgt            1           1   2.6260785088599761E-002           6      275580           0
</event>
<event>
      5   9999  3.19816E-02  6.53246E+01 -1.00000E+00  1.32759E-01
      21    -1     0     0   502   501  0.000000000E+00  0.000000000E+00  4.476951042E+02  4.476951042E+02  0.000000000E+00  0.00000E+00  9.000E+00
      21    -1     0     0   511   502  0.000000000E+00  0.000000000E+00 -1.936519087E+03  1.936519087E+03  0.000000000E+00  0.00000E+00  9.000E+00
      25     1     1     2     0     0  3.062597455E+02 -8.331124668E+02 -8.974485858E+02  1.268428310E+03  1.250000000E+02  0.00000E+00  9.000E+00
      25     1     1     2     0     0 -2.474076240E+02  8.047623940E+02 -4.563325300E+02  9.657729656E+02  1.250000000E+02  0.00000E+00  9.000E+00
      21     1     1     2   511   501 -5.885212149E+01  2.835007279E+01 -1.350428671E+02  1.500129154E+02  2.697398305E-06  0.00000E+00  9.000E+00
#rwgt            1           1   3.1479551067388582E-002           6      275713           0
</event>
<event>
      5   9999  3.19816E-02  3.15638E+01 -1.00000E+00  1.51523E-01
      21    -1     0     0   502   512  0.000000000E+00  0.000000000E+00  3.993662453E+02  3.993662453E+02  0.000000000E+00  0.00000E+00  9.000E+00
      21    -1     0     0   501   502  0.000000000E+00  0.000000000E+00 -2.428805754E+02  2.428805754E+02  0.000000000E+00  0.00000E+00  9.000E+00
      25     1     1     2     0     0 -6.271040975E+01  9.294174375E+01  1.948518945E+02  2.572217409E+02  1.250000000E+02  0.00000E+00  9.000E+00
      25     1     1     2     0     0  8.060339220E+01 -1.189439027E+02 -1.665582553E+02  2.530043700E+02  1.250000000E+02  0.00000E+00  9.000E+00
      21     1     1     2   501   512 -1.789298244E+01  2.600215892E+01  1.281920307E+02  1.320207098E+02  1.907348633E-06  0.00000E+00  9.000E+00
#rwgt            1           1   2.6591831591061189E-002           6      275907           0
</event>
<event>
      5   9999  3.19816E-02  1.00386E+02 -1.00000E+00  1.23753E-01
      21    -1     0     0   502   501  0.000000000E+00  0.000000000E+00  4.908994775E+02  4.908994775E+02  0.000000000E+00  0.00000E+00  9.000E+00
       1    -1     0     0   501     0  0.000000000E+00  0.000000000E+00 -7.225420579E+02  7.225420579E+02  0.000000000E+00  0.00000E+00  9.000E+00
      25     1     1     2     0     0 -2.234686532E+02 -6.409357209E+01  2.924767294E+02  3.939719053E+02  1.250000000E+02  0.00000E+00  9.000E+00
      25     1     1     2     0     0  2.507247989E+02 -3.252163736E+01  3.826874920E+00  2.820642243E+02  1.250000000E+02  0.00000E+00  9.000E+00
       1     1     1     2   502     0 -2.725614569E+01  9.661520945E+01 -5.279461847E+02  5.374054058E+02  7.629394531E-06  0.00000E+00  9.000E+00
#rwgt            2          12   6.5440921935777110E-004           6      276247           0
</event>
<event>
      5   9999  3.19816E-02  1.94506E+02 -1.00000E+00  1.12090E-01
      21    -1     0     0   502   501  0.000000000E+00  0.000000000E+00  1.426924333E+03  1.426924333E+03  0.000000000E+00  0.00000E+00  9.000E+00
       2    -1     0     0   501     0  0.000000000E+00  0.000000000E+00 -7.375759435E+02  7.375759435E+02  0.000000000E+00  0.00000E+00  9.000E+00
      25     1     1     2     0     0  2.375750573E+02  2.053038920E+02  9.863561062E+02  1.042648054E+03  1.250000000E+02  0.00000E+00  9.000E+00
      25     1     1     2     0     0 -2.952420897E+02 -3.910648410E+02  2.333625871E+02  5.569404802E+02  1.250000000E+02  0.00000E+00  9.000E+00
       2     1     1     2   502     0  5.766703234E+01  1.857609490E+02 -5.303703042E+02  5.649117421E+02  7.629394531E-06  0.00000E+00  9.000E+00
#rwgt            1           1   2.9399867190837099E-002           6      276266           0
</event>
<event>
      5   9999  3.19816E-02  1.45396E+02 -1.00000E+00  1.16933E-01
      21    -1     0     0   502   501  0.000000000E+00  0.000000000E+00  1.483445706E+03  1.483445706E+03  0.000000000E+00  0.00000E+00  9.000E+00
      21    -1     0     0   511   502  0.000000000E+00  0.000000000E+00 -1.480505738E+03  1.480505738E+03  0.000000000E+00  0.00000E+00  9.000E+00
      25     1     1     2     0     0 -3.240469778E+02 -3.546732020E+02  1.006406647E+03  1.122175950E+03  1.250000000E+02  0.00000E+00  9.000E+00
      25     1     1     2     0     0  3.764769124E+02  2.190599321E+02  2.914082136E+02  5.387632749E+02  1.250000000E+02  0.00000E+00  9.000E+00
      21     1     1     2   511   501 -5.242993459E+01  1.356132698E+02 -1.294874893E+03  1.303012220E+03  1.525878906E-05  0.00000E+00  9.000E+00
#rwgt            1           1   2.3375542061844640E-002           6      276311           0
</event>
<event>
      5   9999  3.19816E-02  2.86486E+01 -1.00000E+00  1.54443E-01
      21    -1     0     0   512   501  0.000000000E+00  0.000000000E+00  3.205262427E+02  3.205262427E+02  0.000000000E+00  0.00000E+00  9.000E+00
      21    -1     0     0   501   502  0.000000000E+00  0.000000000E+00 -6.843263737E+02  6.843263737E+02  0.000000000E+00  0.00000E+00  9.000E+00
      25     1     1     2     0     0 -5.888757164E-01 -3.329294809E+02  1.269690601E+02  3.776089620E+02  1.250000000E+02  0.00000E+00  9.000E+00
      25     1     1     2     0     0 -2.698581338E+01  3.251591808E+02 -4.854323207E+02  5.981022195E+02  1.250000000E+02  0.00000E+00  9.000E+00
      21     1     1     2   512   502  2.757468910E+01  7.770300077E+00 -5.336870365E+00  2.914143489E+01  6.049210766E-07  0.00000E+00  9.000E+00
#rwgt            1           1   2.8646867026520695E-002           6      276388           0
</event>
<event>
      5   9999  3.19816E-02  1.57081E+02 -1.00000E+00  1.15605E-01
      21    -1     0     0   502   501  0.000000000E+00  0.000000000E+00  8.477083221E+02  8.477083221E+02  0.000000000E+00  0.00000E+00  9.000E+00
      21    -1     0     0   501   511  0.000000000E+00  0.000000000E+00 -1.188988928E+02  1.188988928E+02  0.000000000E+00  0.00000E+00  9.000E+00
      25     1     1     2     0     0  5.045291006E+01 -1.116581304E+02  9.042822234E+01  1.970159832E+02  1.250000000E+02  0.00000E+00  9.000E+00
      25     1     1     2     0     0 -1.593996968E+02 -1.500943209E+00  5.569755330E+02  5.926696049E+02  1.250000000E+02  0.00000E+00  9.000E+00
      21     1     1     2   502   511  1.089467867E+02  1.131590736E+02  8.140567400E+01  1.769216268E+02  2.336015456E-06  0.00000E+00  9.000E+00
#rwgt            2          11   3.4851870490404252E-003           6      276576           0
</event>
<event>
      5   9999  3.19816E-02  4.39336E+01 -1.00000E+00  1.42358E-01
      21    -1     0     0   512   501  0.000000000E+00  0.000000000E+00  1.072373410E+02  1.072373410E+02  0.000000000E+00  0.00000E+00  9.000E+00
      21    -1     0     0   501   502  0.000000000E+00  0.000000000E+00 -8.606325249E+02  8.606325249E+02  0.000000000E+00  0.00000E+00  9.000E+00
      25     1     1     2     0     0 -1.277828177E+02  1.245480329E+02 -4.169794202E+02  4.704651930E+02  1.250000000E+02  0.00000E+00  9.000E+00
      25     1     1     2     0     0  1.223078955E+02 -1.681391374E+02 -3.697662311E+02  4.422466015E+02  1.250000000E+02  0.00000E+00  9.000E+00
      21     1     1     2   512   502  5.474922232E+00  4.359110454E+01  3.335046734E+01  5.515807140E+01  1.066240300E-06  0.00000E+00  9.000E+00
#rwgt            1           1   2.7792063522330337E-002           6      276596           0
</event>
<event>
      5   9999  3.19816E-02  1.73468E+01 -1.00000E+00  1.71636E-01
      21    -1     0     0   511   501  0.000000000E+00  0.000000000E+00  2.187971062E+02  2.187971062E+02  0.000000000E+00  0.00000E+00  9.000E+00
      21    -1     0     0   501   502  0.000000000E+00  0.000000000E+00 -4.709244208E+02  4.709244208E+02  0.000000000E+00  0.00000E+00  9.000E+00
      25     1     1     2     0     0 -2.412847637E+02 -1.174546658E+02 -6.317908855E+01  3.027053567E+02  1.250000000E+02  0.00000E+00  9.000E+00
      25     1     1     2     0     0  2.583239697E+02  1.142023110E+02 -1.985598396E+02  3.671844919E+02  1.250000000E+02  0.00000E+00  9.000E+00
      21     1     1     2   511   502 -1.703920601E+01  3.252354842E+00  9.611613626E+00  1.983167844E+01  3.769728732E-07  0.00000E+00  9.000E+00
#rwgt            1           1   2.5941894016559195E-002           6      276711           0
</event>
<event>
      5   9999  3.19816E-02  7.38427E+01 -1.00000E+00  1.30056E-01
      21    -1     0     0   502   501  0.000000000E+00  0.000000000E+00  1.347271739E+02  1.347271739E+02  0.000000000E+00  0.00000E+00  9.000E+00
      21    -1     0     0   501   512  0.000000000E+00  0.000000000E+00 -6.164783636E+02  6.164783636E+02  0.000000000E+00  0.00000E+00  9.000E+00
      25     1     1     2     0     0  9.309707455E+01 -2.023467741E+02 -1.127478050E+02  2.791923169E+02  1.250000000E+02  0.00000E+00  9.000E+00
      25     1     1     2     0     0 -2.300368769E+01  1.791163042E+02 -2.913103088E+02  3.648266932E+02  1.250000000E+02  0.00000E+00  9.000E+00
      21     1     1     2   502   512 -7.009338686E+01  2.323046986E+01 -7.769307586E+01  1.071865274E+02  9.536743164E-07  0.00000E+00  9.000E+00
#rwgt            1           1   2.7425311264600891E-002           6      276942           0
</event>
<event>
      5   9999  3.19816E-02  6.75480E+02 -1.00000E+00  9.52771E-02
      21    -1     0     0   511   501  0.000000000E+00  0.000000000E+00  6.653614927E+02  6.653614927E+02  0.000000000E+00  0.00000E+00  9.000E+00
      21    -1     0     0   501   502  0.000000000E+00  0.000000000E+00 -3.282065789E+03  3.282065789E+03  0.000000000E+00  0.00000E+00  9.000E+00
      25     1     1     2     0     0  1.060292263E+03  9.202559053E+01 -1.009153593E+03  1.471972950E+03  1.250000000E+02  0.00000E+00  9.000E+00
      25     1     1     2     0     0 -8.735327473E+02  5.571228584E+02 -1.441954062E+03  1.779972432E+03  1.250000000E+02  0.00000E+00  9.000E+00
      21     1     1     2   511   502 -1.867595152E+02 -6.491484489E+02 -1.655966407E+02  6.954818996E+02  1.572839976E-05  0.00000E+00  9.000E+00
#rwgt            1           1   2.7535702062098662E-002           6      276998           0
</event>
<event>
      5   9999  3.19816E-02  1.62647E+01 -1.00000E+00  1.74134E-01
      21    -1     0     0   502   512  0.000000000E+00  0.000000000E+00  1.913282138E+02  1.913282138E+02  0.000000000E+00  0.00000E+00  9.000E+00
      21    -1     0     0   501   502  0.000000000E+00  0.000000000E+00 -1.387838949E+02  1.387838949E+02  0.000000000E+00  0.00000E+00  9.000E+00
      25     1     1     2     0     0 -2.815526728E+01  4.992268603E+01  9.249890270E+01  1.657288166E+02  1.250000000E+02  0.00000E+00  9.000E+00
      25     1     1     2     0     0  2.053561931E+01 -3.555318226E+01 -5.464453272E+01  1.424667168E+02  1.250000000E+02  0.00000E+00  9.000E+00
      21     1     1     2   501   512  7.619647967E+00 -1.436950377E+01  1.468994896E+01  2.191657533E+01  3.371747881E-07  0.00000E+00  9.000E+00
#rwgt            1           1   5.4537538740631351E-002           6      277045           0
</event>
<event>
      5   9999  3.19816E-02  4.71209E+00 -1.00000E+00  2.47758E-01
      21    -1     0     0   511   501  0.000000000E+00  0.000000000E+00  2.670781300E+02  2.670781300E+02  0.000000000E+00  0.00000E+00  9.000E+00
      21    -1     0     0   501   502  0.000000000E+00  0.000000000E+00 -1.216445265E+03  1.216445265E+03  0.000000000E+00  0.00000E+00  9.000E+00
      25     1     1     2     0     0 -4.690784660E+02 -1.723045064E+02 -7.673581454E+02  9.242223615E+02  1.250000000E+02  0.00000E+00  9.000E+00
      25     1     1     2     0     0  4.733320116E+02  1.702769085E+02 -1.882744444E+02  5.514614086E+02  1.250000000E+02  0.00000E+00  9.000E+00
      21     1     1     2   511   502 -4.253545614E+00  2.027597877E+00  6.265454513E+00  7.839625227E+00  1.884864366E-07  0.00000E+00  9.000E+00
#rwgt            1           1   1.4847638651758080E-002           6      277174           0
</event>
<event>
      5   9999  3.19816E-02  8.29939E+01 -1.00000E+00  1.27582E-01
      21    -1     0     0   502   501  0.000000000E+00  0.000000000E+00  5.471552011E+01  5.471552011E+01  0.000000000E+00  0.00000E+00  9.000E+00
       2    -1     0     0   501     0  0.000000000E+00  0.000000000E+00 -2.064472465E+03  2.064472465E+03  0.000000000E+00  0.00000E+00  9.000E+00
      25     1     1     2     0     0  2.309715763E+00  1.481689953E+02 -3.633205546E+02  4.118084644E+02  1.250000000E+02  0.00000E+00  9.000E+00
      25     1     1     2     0     0 -6.993906484E+01 -1.000622954E+02 -2.316266330E+02  2.901376103E+02  1.250000000E+02  0.00000E+00  9.000E+00
       2     1     1     2   502     0  6.762934907E+01 -4.810669990E+01 -1.414809757E+03  1.417241910E+03  3.411968960E-05  0.00000E+00  9.000E+00
#rwgt            1           1   2.6028724817372211E-002           6      277464           0
</event>
<event>
      5   9999  3.19816E-02  5.83589E+01 -1.00000E+00  1.35350E-01
       3    -1     0     0   502     0  0.000000000E+00  0.000000000E+00  7.205373373E+02  7.205373373E+02  0.000000000E+00  0.00000E+00  9.000E+00
      21    -1     0     0   501   502  0.000000000E+00  0.000000000E+00 -4.350425004E+02  4.350425004E+02  0.000000000E+00  0.00000E+00  9.000E+00
      25     1     1     2     0     0 -2.006061650E+02 -2.257077095E+02  1.045823893E+02  3.431461492E+02  1.250000000E+02  0.00000E+00  9.000E+00
      25     1     1     2     0     0  1.775834465E+02  2.793334291E+02 -2.138209969E+02  4.134095594E+02  1.250000000E+02  0.00000E+00  9.000E+00
       3     1     1     2   501     0  2.302271844E+01 -5.362571962E+01  3.947334445E+02  3.990241291E+02  7.629394531E-06  0.00000E+00  9.000E+00
#rwgt            1           1   2.5630606379124964E-002           6      277513           0
</event>
<event>
      5   9999  3.19816E-02  1.68800E+01 -1.00000E+00  1.72685E-01
      21    -1     0     0   502   511  0.000000000E+00  0.000000000E+00  2.218335429E+02  2.218335429E+02  0.000000000E+00  0.00000E+00  9.000E+00
      21    -1     0     0   501   502  0.000000000E+00  0.000000000E+00 -9.544927459E+02  9.544927459E+02  0.000000000E+00  0.00000E+00  9.000E+00
      25     1     1     2     0     0  1.140833774E+01 -7.114504909E+01  4.724048691E+01  1.518170998E+02  1.250000000E+02  0.00000E+00  9.000E+00
      25     1     1     2     0     0  5.437690176E+00  7.221511889E+01 -8.958062221E+02  9.073799532E+02  1.250000000E+02  0.00000E+00  9.000E+00
      21     1     1     2   501   511 -1.684602791E+01 -1.070069796E+00  1.159065321E+02  1.171292358E+02  2.697398305E-06  0.00000E+00  9.000E+00
#rwgt            1           1   2.8838266591423554E-002           6      277584           0
</event>
<event>
      5   9999  3.19816E-02  1.18064E+02 -1.00000E+00  1.20669E-01
      21    -1     0     0   502   501  0.000000000E+00  0.000000000E+00  7.794580499E+02  7.794580499E+02  0.000000000E+00  0.00000E+00  9.000E+00
       1    -1     0     0   501     0  0.000000000E+00  0.000000000E+00 -8.074923660E+02  8.074923660E+02  0.000000000E+00  0.00000E+00  9.000E+00
      25     1     1     2     0     0  2.292507707E+02 -3.153341067E+02  5.709768222E+02  7.025888173E+02  1.250000000E+02  0.00000E+00  9.000E+00
      25     1     1     2     0     0 -2.795283319E+02  4.221581341E+02 -4.185111803E+02  6.686779394E+02  1.250000000E+02  0.00000E+00  9.000E+00
       1     1     1     2   502     0  5.027756125E+01 -1.068240275E+02 -1.804999580E+02  2.156836592E+02  0.000000000E+00  0.00000E+00  9.000E+00
#rwgt            1           1   2.9217568930252156E-002           6      277768           0
</event>
<event>
      5   9999  3.19816E-02  4.18908E+01 -1.00000E+00  1.43607E-01
      -4    -1     0     0     0   501  0.000000000E+00  0.000000000E+00  5.315662669E+01  5.315662669E+01  0.000000000E+00  0.00000E+00  9.000E+00
      21    -1     0     0   501   502  0.000000000E+00  0.000000000E+00 -1.886362781E+03  1.886362781E+03  0.000000000E+00  0.00000E+00  9.000E+00
      25     1     1     2     0     0 -2.144079374E+01  1.202919943E+02 -1.357156216E+03  1.368366861E+03  1.250000000E+02  0.00000E+00  9.000E+00
      25     1     1     2     0     0 -1.808959389E+00 -8.544537124E+01 -5.003244258E+02  5.227367549E+02  1.250000000E+02  0.00000E+00  9.000E+00
      -4     1     1     2     0   502  2.324975313E+01 -3.484662309E+01  2.427448751E+01  4.841579190E+01  9.536743164E-07  0.00000E+00  9.000E+00
#rwgt            1           1   8.1581274401081760E-002           6      277847           0
</event>
<event>
      5   9999  3.19816E-02  5.15501E+01 -1.00000E+00  1.38323E-01
      21    -1     0     0   502   501  0.000000000E+00  0.000000000E+00  2.584517042E+02  2.584517042E+02  0.000000000E+00  0.00000E+00  9.000E+00
      21    -1     0     0   501   511  0.000000000E+00  0.000000000E+00 -1.823738802E+02  1.823738802E+02  0.000000000E+00  0.00000E+00  9.000E+00
      25     1     1     2     0     0 -1.281623586E+02 -1.464241139E+01  1.365093663E+02  2.256098346E+02  1.250000000E+02  0.00000E+00  9.000E+00
      25     1     1     2     0     0  8.139647805E+01  3.633037711E+01 -5.621155033E+01  1.634931844E+02  1.250000000E+02  0.00000E+00  9.000E+00
      21     1     1     2   502   511  4.676588054E+01 -2.168796573E+01 -4.219991957E+00  5.172256541E+01  5.196212463E-07  0.00000E+00  9.000E+00
#rwgt            1           1   2.6404362175670593E-002           6      277928           0
</event>
<event>
      5   9999  3.19816E-02  1.45232E+02 -1.00000E+00  1.16952E-01
      21    -1     0     0   502   512  0.000000000E+00  0.000000000E+00  1.758747528E+03  1.758747528E+03  0.000000000E+00  0.00000E+00  9.000E+00
      21    -1     0     0   501   502  0.000000000E+00  0.000000000E+00 -1.660773638E+02  1.660773638E+02  0.000000000E+00  0.00000E+00  9.000E+00
      25     1     1     2     0     0 -9.313242692E+01  2.854125763E+02  3.283293065E+02  4.621245732E+02  1.250000000E+02  0.00000E+00  9.000E+00
      25     1     1     2     0     0 -5.082045456E+01 -3.046486027E+02  2.002405985E+02  3.887348543E+02  1.250000000E+02  0.00000E+00  9.000E+00
      21     1     1     2   501   512  1.439528815E+02  1.923602633E+01  1.064100259E+03  1.073965464E+03  2.157918644E-05  0.00000E+00  9.000E+00
#rwgt            1           1   2.8382549371389964E-002           6      278016           0
</event>
<event>
      5   9999  3.19816E-02  1.10280E+02 -1.00000E+00  1.21946E-01
      21    -1     0     0   502   511  0.000000000E+00  0.000000000E+00  5.051117991E+02  5.051117991E+02  0.000000000E+00  0.00000E+00  9.000E+00
      21    -1     0     0   501   502  0.000000000E+00  0.000000000E+00 -2.904408555E+02  2.904408555E+02  0.000000000E+00  0.00000E+00  9.000E+00
      25     1     1     2     0     0 -3.256997300E+01 -1.768890556E+01  1.599319465E+02  2.063417748E+02  1.250000000E+02  0.00000E+00  9.000E+00
      25     1     1     2     0     0  3.223083549E+01 -9.259094730E+01 -2.324652171E+02  2.815616939E+02  1.250000000E+02  0.00000E+00  9.000E+00
      21     1     1     2   501   511  3.391375174E-01  1.102798529E+02  2.872042142E+02  3.076491859E+02  0.000000000E+00  0.00000E+00  9.000E+00
#rwgt            1           1   3.1415747556548565E-002           6      278056           0
</event>
<event>
      5   9999  3.19816E-02  8.16198E+01 -1.00000E+00  1.27930E-01
      21    -1     0     0   512   501  0.000000000E+00  0.000000000E+00  3.698974686E+01  3.698974686E+01  0.000000000E+00  0.00000E+00  9.000E+00
      21    -1     0     0   501   502  0.000000000E+00  0.000000000E+00 -2.762070268E+03  2.762070268E+03  0.000000000E+00  0.00000E+00  9.000E+00
      25     1     1     2     0     0  2.868599855E+02 -2.055951491E+01 -1.439105621E+03  1.472875193E+03  1.250000000E+02  0.00000E+00  9.000E+00
      25     1     1     2     0     0 -2.074478230E+02  1.704789662E+00 -9.847103703E+02  1.014059672E+03  1.250000000E+02  0.00000E+00  9.000E+00
      21     1     1     2   512   502 -7.941216254E+01  1.885472525E+01 -3.012645295E+02  3.121251495E+02  8.529922400E-06  0.00000E+00  9.000E+00
#rwgt            1           1   7.4130921089414908E-002           6      278102           0
</event>
<event>
      5   9999  3.19816E-02  3.15971E+01 -1.00000E+00  1.51492E-01
      21    -1     0     0   502   511  0.000000000E+00  0.000000000E+00  9.850468530E+01  9.850468530E+01  0.000000000E+00  0.00000E+00  9.000E+00
      21    -1     0     0   501   502  0.000000000E+00  0.000000000E+00 -1.082225988E+03  1.082225988E+03  0.000000000E+00  0.00000E+00  9.000E+00
      25     1     1     2     0     0 -2.098933009E+02  3.269976079E+00 -1.764034359E+02  3.013454209E+02  1.250000000E+02  0.00000E+00  9.000E+00
      25     1     1     2     0     0  2.175831882E+02  2.737709346E+01 -8.092744733E+02  8.477276226E+02  1.250000000E+02  0.00000E+00  9.000E+00
      21     1     1     2   501   511 -7.689887303E+00 -3.064706954E+01  1.956606115E+00  3.165763013E+01  5.543552410E-07  0.00000E+00  9.000E+00
#rwgt            1           1   2.5163001068038475E-002           6      278182           0
</event>
<event>
      5   9999  3.19816E-02  2.43150E+02 -1.00000E+00  1.08644E-01
      21    -1     0     0   502   512  0.000000000E+00  0.000000000E+00  2.694192740E+02  2.694192740E+02  0.000000000E+00  0.00000E+00  9.000E+00
      21    -1     0     0   501   502  0.000000000E+00  0.000000000E+00 -8.753477903E+02  8.753477903E+02  0.000000000E+00  0.00000E+00  9.000E+00
      25     1     1     2     0     0 -1.177759578E+02  7.964934255E+01  6.820202869E+01  2.012255221E+02  1.250000000E+02  0.00000E+00  9.000E+00
      25     1     1     2     0     0  1.058480076E+02 -3.225066823E+02 -5.784686587E+02  6.822502107E+02  1.250000000E+02  0.00000E+00  9.000E+00
      21     1     1     2   501   512  1.192795023E+01  2.428573397E+02 -9.566188626E+01  2.612913316E+02  2.336015456E-06  0.00000E+00  9.000E+00
#rwgt            1           1   3.0856293585925461E-002           6      278342           0
</event>
<event>
      5   9999  3.19816E-02  6.66859E+01 -1.00000E+00  1.32296E-01
      21    -1     0     0   502   501  0.000000000E+00  0.000000000E+00  7.774177126E+01  7.774177126E+01  0.000000000E+00  0.00000E+00  9.000E+00
      21    -1     0     0   501   511  0.000000000E+00  0.000000000E+00 -1.904554600E+03  1.904554600E+03  0.000000000E+00  0.00000E+00  9.000E+00
      25     1     1     2     0     0 -1.441245355E+02  9.048741950E+01 -1.271762686E+03  1.289172287E+03  1.250000000E+02  0.00000E+00  9.000E+00
      25     1     1     2     0     0  1.454564535E+02 -2.381481192E+01 -7.316502783E+01  2.066466705E+02  1.250000000E+02  0.00000E+00  9.000E+00
      21     1     1     2   502   511 -1.331917954E+00 -6.667260758E+01 -4.818851150E+02  4.864774144E+02  9.344061824E-06  0.00000E+00  9.000E+00
#rwgt            1           1   3.1993424971504092E-002           6      278388           0
</event>
<event>
      5   9999  3.19816E-02  1.11742E+02 -1.00000E+00  1.21697E-01
       2    -1     0     0   502     0  0.000000000E+00  0.000000000E+00  1.157449147E+03  1.157449147E+03  0.000000000E+00  0.00000E+00  9.000E+00
      21    -1     0     0   501   502  0.000000000E+00  0.000000000E+00 -7.715072934E+02  7.715072934E+02  0.000000000E+00  0.00000E+00  9.000E+00
      25     1     1     2     0     0 -8.526144325E+01  3.342750347E+01  1.741789673E+02  2.331313457E+02  1.250000000E+02  0.00000E+00  9.000E+00
      25     1     1     2     0     0  6.416464423E+01  7.630494264E+01 -7.300768141E+02  7.473798902E+02  1.250000000E+02  0.00000E+00  9.000E+00
       2     1     1     2   501     0  2.109679902E+01 -1.097324461E+02  9.418397003E+02  9.484452044E+02  0.000000000E+00  0.00000E+00  9.000E+00
#rwgt            1           1   2.2374540332700556E-002           6      278460           0
</event>
<event>
      5   9999  3.19816E-02  4.94218E+01 -1.00000E+00  1.39364E-01
      21    -1     0     0   502   501  0.000000000E+00  0.000000000E+00  1.768822065E+02  1.768822065E+02  0.000000000E+00  0.00000E+00  9.000E+00
       1    -1     0     0   501     0  0.000000000E+00  0.000000000E+00 -1.230237458E+03  1.230237458E+03  0.000000000E+00  0.00000E+00  9.000E+00
      25     1     1     2     0     0  2.163507260E+01  1.244441644E+02  9.831389272E+01  2.030887686E+02  1.250000000E+02  0.00000E+00  9.000E+00
      25     1     1     2     0     0  2.727588076E+01 -1.173567847E+02 -2.701478101E+02  3.211252527E+02  1.250000000E+02  0.00000E+00  9.000E+00
       1     1     1     2   502     0 -4.891095336E+01 -7.087379699E+00 -8.815213345E+02  8.829056436E+02  1.078959322E-05  0.00000E+00  9.000E+00
#rwgt            1           1   2.8491319852499902E-002           6      278531           0
</event>
<event>
      5   9999  3.19816E-02  3.27659E+02 -1.00000E+00  1.04362E-01
      21    -1     0     0   502   511  0.000000000E+00  0.000000000E+00  8.116961784E+02  8.116961784E+02  0.000000000E+00  0.00000E+00  9.000E+00
      21    -1     0     0   501   502  0.000000000E+00  0.000000000E+00 -2.012793063E+02  2.012793063E+02  0.000000000E+00  0.00000E+00  9.000E+00
      25     1     1     2     0     0  4.591699749E+01  1.895960147E+02  9.337848466E+01  2.497990409E+02  1.250000000E+02  0.00000E+00  9.000E+00
      25     1     1     2     0     0 -1.121017416E+02  1.313085622E+02  1.075962186E+02  2.387691045E+02  1.250000000E+02  0.00000E+00  9.000E+00
      21     1     1     2   501   511  6.618474415E+01 -3.209045769E+02  4.094421689E+02  5.244073393E+02  7.629394531E-06  0.00000E+00  9.000E+00
#rwgt            1           1   4.7468308955144610E-002           6      278602           0
</event>
<event>
      5   9999  3.19816E-02  5.62808E+01 -1.00000E+00  1.36205E-01
      21    -1     0     0   502   501  0.000000000E+00  0.000000000E+00  1.215741460E+02  1.215741460E+02  0.000000000E+00  0.00000E+00  9.000E+00
       1    -1     0     0   501     0  0.000000000E+00  0.000000000E+00 -1.363357449E+03  1.363357449E+03  0.000000000E+00  0.00000E+00  9.000E+00
      25     1     1     2     0     0  4.076556210E+01  1.624674332E+02 -7.007603851E+01  2.204385381E+02  1.250000000E+02  0.00000E+00  9.000E+00
      25     1     1     2     0     0 -6.195199932E+01 -1.103266703E+02 -1.276697736E+02  2.189397074E+02  1.250000000E+02  0.00000E+00  9.000E+00
       1     1     1     2   502     0  2.118643723E+01 -5.214076288E+01 -1.044037491E+03  1.045553350E+03  1.525878906E-05  0.00000E+00  9.000E+00
#rwgt            1           1   2.7179880818370469E-002           6      278660           0
</event>
<event>
      5   9999  3.19816E-02  1.79665E+01 -1.00000E+00  1.70305E-01
      21    -1     0     0   502   511  0.000000000E+00  0.000000000E+00  6.641868427E+02  6.641868427E+02  0.000000000E+00  0.00000E+00  9.000E+00
      21    -1     0     0   501   502  0.000000000E+00  0.000000000E+00 -3.112989607E+02  3.112989607E+02  0.000000000E+00  0.00000E+00  9.000E+00
      25     1     1     2     0     0 -1.623091780E+02  1.893934602E+02 -2.395167281E+01  2.800229180E+02  1.250000000E+02  0.00000E+00  9.000E+00
      25     1     1     2     0     0  1.504247644E+02 -1.759192002E+02 -5.040157221E+01  2.678441585E+02  1.250000000E+02  0.00000E+00  9.000E+00
      21     1     1     2   501   511  1.188441357E+01 -1.347425993E+01  4.272411270E+02  4.276187268E+02  7.629394531E-06  0.00000E+00  9.000E+00
#rwgt            1           1   2.8374762325469493E-002           6      278749           0
</event>
<event>
      5   9999  3.19816E-02  3.99445E+01 -1.00000E+00  1.44878E-01
      21    -1     0     0   502   501  0.000000000E+00  0.000000000E+00  8.282594050E+01  8.282594050E+01  0.000000000E+00  0.00000E+00  9.000E+00
      21    -1     0     0   501   512  0.000000000E+00  0.000000000E+00 -5.719514834E+02  5.719514834E+02  0.000000000E+00  0.00000E+00  9.000E+00
      25     1     1     2     0     0  8.648793628E+01  1.353461234E+01 -1.120964126E+02  1.893514050E+02  1.250000000E+02  0.00000E+00  9.000E+00
      25     1     1     2     0     0 -8.394134795E+01  2.632864311E+01 -9.368413951E+01  1.792792942E+02  1.250000000E+02  0.00000E+00  9.000E+00
      21     1     1     2   502   512 -2.546588328E+00 -3.986325545E+01 -2.833449907E+02  2.861467246E+02  3.814697266E-06  0.00000E+00  9.000E+00
#rwgt            1           1   6.1205678435231371E-002           6      278907           0
</event>
<event>
      5   9999  3.19816E-02  3.57729E+01 -1.00000E+00  1.47914E-01
      21    -1     0     0   502   501  0.000000000E+00  0.000000000E+00  5.857698786E+02  5.857698786E+02  0.000000000E+00  0.00000E+00  9.000E+00
      21    -1     0     0   501   511  0.000000000E+00  0.000000000E+00 -4.396505752E+02  4.396505752E+02  0.000000000E+00  0.00000E+00  9.000E+00
      25     1     1     2     0     0  3.219181960E+02  3.232120443E+02  8.363254637E+01  4.803298380E+02  1.250000000E+02  0.00000E+00  9.000E+00
      25     1     1     2     0     0 -3.370747090E+02 -3.556154783E+02  6.018856495E+01  5.092439407E+02  1.250000000E+02  0.00000E+00  9.000E+00
      21     1     1     2   502   511  1.515651304E+01  3.240343401E+01  2.298192088E+00  3.584667502E+01  2.365486006E-07  0.00000E+00  9.000E+00
#rwgt            1           1   2.7936109152280741E-002           6      278975           0
</event>
<event>
      5   9999  3.19816E-02  1.84492E+02 -1.00000E+00  1.12939E-01
      21    -1     0     0   502   512  0.000000000E+00  0.000000000E+00  1.983700444E+03  1.983700444E+03  0.000000000E+00  0.00000E+00  9.000E+00
      21    -1     0     0   501   502  0.000000000E+00  0.000000000E+00 -2.019424314E+02  2.019424314E+02  0.000000000E+00  0.00000E+00  9.000E+00
      25     1     1     2     0     0 -1.712729123E+02 -4.798672885E+02  3.143287410E+02  6.115836676E+02  1.250000000E+02  0.00000E+00  9.000E+00
      25     1     1     2     0     0  3.355915775E+01  3.570984548E+02  1.082434171E+03  1.147141778E+03  1.250000000E+02  0.00000E+00  9.000E+00
      21     1     1     2   501   512  1.377137546E+02  1.227688336E+02  3.849951006E+02  4.269174302E+02  0.000000000E+00  0.00000E+00  9.000E+00
#rwgt            1           1   2.5308501235664610E-002           6      279119           0
</event>
<event>
      5   9999  3.19816E-02  2.18592E+01 -1.00000E+00  1.63246E-01
      21    -1     0     0   511   501  0.000000000E+00  0.000000000E+00  3.748819419E+02  3.748819419E+02  0.000000000E+00  0.00000E+00  9.000E+00
      21    -1     0     0   501   502  0.000000000E+00  0.000000000E+00 -4.518943173E+02  4.518943173E+02  0.000000000E+00  0.00000E+00  9.000E+00
      25     1     1     2     0     0 -9.751372007E+01 -8.985963862E+01  3.155773610E+02  3.644142574E+02  1.250000000E+02  0.00000E+00  9.000E+00
      25     1     1     2     0     0  1.124367293E+02  1.058324107E+02 -3.931523902E+02  4.404955382E+02  1.250000000E+02  0.00000E+00  9.000E+00
      21     1     1     2   511   502 -1.492300918E+01 -1.597277205E+01  5.626538413E-01  2.186646358E+01  4.569216998E-07  0.00000E+00  9.000E+00
#rwgt            1           1   2.3353813157318781E-002           6      279170           0
</event>
<event>
      5   9999  3.19816E-02  2.11497E+02 -1.00000E+00  1.10771E-01
       1    -1     0     0   502     0  0.000000000E+00  0.000000000E+00  3.555277928E+02  3.555277928E+02  0.000000000E+00  0.00000E+00  9.000E+00
      21    -1     0     0   501   502  0.000000000E+00  0.000000000E+00 -3.735325296E+02  3.735325296E+02  0.000000000E+00  0.00000E+00  9.000E+00
      25     1     1     2     0     0 -3.915732769E+01 -6.091513070E+00  1.505698416E+02  1.996664219E+02  1.250000000E+02  0.00000E+00  9.000E+00
      25     1     1     2     0     0  2.201143471E+02  1.155704252E+02 -3.803070728E+01  2.808526013E+02  1.250000000E+02  0.00000E+00  9.000E+00
       1     1     1     2   501     0 -1.809570194E+02 -1.094789122E+02 -1.305438711E+02  2.485412991E+02  3.814697266E-06  0.00000E+00  9.000E+00
#rwgt            1           1   2.7947079864487342E-002           6      279312           0
</event>
<event>
      5   9999  3.19816E-02  8.94958E+01 -1.00000E+00  1.26035E-01
       1    -1     0     0   502     0  0.000000000E+00  0.000000000E+00  9.575722530E+02  9.575722530E+02  0.000000000E+00  0.00000E+00  9.000E+00
      21    -1     0     0   501   502  0.000000000E+00  0.000000000E+00 -7.245187391E+02  7.245187391E+02  0.000000000E+00  0.00000E+00  9.000E+00
      25     1     1     2     0     0 -3.926829880E+02 -1.125173918E+02 -5.904241960E+02  7.287563542E+02  1.250000000E+02  0.00000E+00  9.000E+00
      25     1     1     2     0     0  3.044091741E+02  1.272564542E+02  4.641303009E+02  5.830103658E+02  1.250000000E+02  0.00000E+00  9.000E+00
       1     1     1     2   501     0  8.827381397E+01 -1.473906236E+01  3.593474090E+02  3.703242721E+02  0.000000000E+00  0.00000E+00  9.000E+00
#rwgt            1           1   2.2825025505594235E-002           6      279356           0
</event>
<event>
      5   9999  3.19816E-02  7.25696E+01 -1.00000E+00  1.30433E-01
      21    -1     0     0   502   501  0.000000000E+00  0.000000000E+00  1.348980437E+03  1.348980437E+03  0.000000000E+00  0.00000E+00  9.000E+00
      21    -1     0     0   511   502  0.000000000E+00  0.000000000E+00 -3.159737373E+02  3.159737373E+02  0.000000000E+00  0.00000E+00  9.000E+00
      25     1     1     2     0     0  2.663238339E+02 -1.934197583E+02  5.912663678E+02  6.881573258E+02  1.250000000E+02  0.00000E+00  9.000E+00
      25     1     1     2     0     0 -3.327409054E+02  1.641774448E+02  6.485800076E+02  7.575960466E+02  1.250000000E+02  0.00000E+00  9.000E+00
      21     1     1     2   511   501  6.641707144E+01  2.924231352E+01 -2.068396755E+02  2.192008021E+02  2.697398305E-06  0.00000E+00  9.000E+00
#rwgt            1           1   3.0242564764872512E-002           6      279433           0
</event>
<event>
      5   9999  3.19816E-02  1.39020E+01 -1.00000E+00  1.80551E-01
      21    -1     0     0   502   512  0.000000000E+00  0.000000000E+00  5.555558151E+02  5.555558151E+02  0.000000000E+00  0.00000E+00  9.000E+00
      21    -1     0     0   501   502  0.000000000E+00  0.000000000E+00 -8.863880424E+01  8.863880424E+01  0.000000000E+00  0.00000E+00  9.000E+00
      25     1     1     2     0     0  4.120492387E+01  1.093457483E+02  2.330288282E+02  2.891051248E+02  1.250000000E+02  0.00000E+00  9.000E+00
      25     1     1     2     0     0 -5.326315714E+01 -1.162641717E+02  7.227708708E+01  1.928815669E+02  1.250000000E+02  0.00000E+00  9.000E+00
      21     1     1     2   501   512  1.205823327E+01  6.918423409E+00  1.616110956E+02  1.622079277E+02  1.907348633E-06  0.00000E+00  9.000E+00
#rwgt            1           1   3.0491536791457861E-002           6      279501           0
</event>
<event>
      5   9999  3.19816E-02  2.35235E+02 -1.00000E+00  1.09141E-01
      21    -1     0     0   502   501  0.000000000E+00  0.000000000E+00  4.158683759E+02  4.158683759E+02  0.000000000E+00  0.00000E+00  9.000E+00
       2    -1     0     0   501     0  0.000000000E+00  0.000000000E+00 -1.612124490E+03  1.612124490E+03  0.000000000E+00  0.00000E+00  9.000E+00
      25     1     1     2     0     0  1.050741403E+02  8.157551433E+01 -7.812014192E+02  8.022442252E+02  1.250000000E+02  0.00000E+00  9.000E+00
      25     1     1     2     0     0 -6.731122048E+01 -3.137595033E+02  3.100807266E+02  4.634122175E+02  1.250000000E+02  0.00000E+00  9.000E+00
       2     1     1     2   502     0 -3.776291986E+01  2.321839889E+02 -7.251354218E+02  7.623364236E+02  0.000000000E+00  0.00000E+00  9.000E+00
#rwgt            1           1   3.2133165308347436E-002           6      279657           0
</event>
<event>
      5   9999  3.19816E-02  5.85227E+01 -1.00000E+00  1.35285E-01
      21    -1     0     0   502   511  0.000000000E+00  0.000000000E+00  5.240366475E+02  5.240366475E+02  0.000000000E+00  0.00000E+00  9.000E+00
      21    -1     0     0   501   502  0.000000000E+00  0.000000000E+00 -6.699306328E+02  6.699306328E+02  0.000000000E+00  0.00000E+00  9.000E+00
      25     1     1     2     0     0 -4.130623938E+02 -2.450353751E+02  1.840998649E+02  5.293209202E+02  1.250000000E+02  0.00000E+00  9.000E+00
      25     1     1     2     0     0  3.561159303E+02  2.585262451E+02 -3.744294148E+02  5.911655960E+02  1.250000000E+02  0.00000E+00  9.000E+00
      21     1     1     2   501   511  5.694646354E+01 -1.349086998E+01  4.443556460E+01  7.348076405E+01  4.768371582E-07  0.00000E+00  9.000E+00
#rwgt            1           1   3.0604874415863254E-002           6      279725           0
</event>
<event>
      5   9999  3.19816E-02  8.02843E+01 -1.00000E+00  1.28275E-01
      21    -1     0     0   502   501  0.000000000E+00  0.000000000E+00  9.528478950E+01  9.528478950E+01  0.000000000E+00  0.00000E+00  9.000E+00
      21    -1     0     0   512   502  0.000000000E+00  0.000000000E+00 -1.485492965E+03  1.485492965E+03  0.000000000E+00  0.00000E+00  9.000E+00
      25     1     1     2     0     0 -1.730618735E+02 -8.650658569E+01 -7.631759621E+01  2.426585604E+02  1.250000000E+02  0.00000E+00  9.000E+00
      25     1     1     2     0     0  1.014991837E+02  5.011492288E+01 -7.633533063E+02  7.817588248E+02  1.250000000E+02  0.00000E+00  9.000E+00
      21     1     1     2   512   501  7.156268977E+01  3.639166281E+01 -5.505372728E+02  5.563603692E+02  0.000000000E+00  0.00000E+00  9.000E+00
#rwgt            1           1   2.7599933335426444E-002           6      279837           0
</event>
<event>
      5   9999  3.19816E-02  1.10614E+02 -1.00000E+00  1.21889E-01
      21    -1     0     0   502   501  0.000000000E+00  0.000000000E+00  2.717026550E+02  2.717026550E+02  0.000000000E+00  0.00000E+00  9.000E+00
      21    -1     0     0   501   511  0.000000000E+00  0.000000000E+00 -1.021768035E+03  1.021768035E+03  0.000000000E+00  0.00000E+00  9.000E+00
      25     1     1     2     0     0  8.654670444E+01  2.485184555E+02 -5.484566072E+02  6.210325312E+02  1.250000000E+02  0.00000E+00  9.000E+00
      25     1     1     2     0     0 -1.899946897E+02 -2.876834213E+02  7.519495088E+01  3.743514573E+02  1.250000000E+02  0.00000E+00  9.000E+00
      21     1     1     2   502   511  1.034479852E+02  3.916496580E+01 -2.768037233E+02  2.980867012E+02  3.814697266E-06  0.00000E+00  9.000E+00
#rwgt            2          11   2.8555976060010632E-003           6      279901           0
</event>
<event>
      5   9999  3.19816E-02  5.51135E+02 -1.00000E+00  9.76653E-02
      21    -1     0     0   502   501  0.000000000E+00  0.000000000E+00  8.075233927E+02  8.075233927E+02  0.000000000E+00  0.00000E+00  9.000E+00
      21    -1     0     0   501   512  0.000000000E+00  0.000000000E+00 -4.663029968E+02  4.663029968E+02  0.000000000E+00  0.00000E+00  9.000E+00
      25     1     1     2     0     0  1.320141201E+02  4.283460658E+02  8.656686436E+01  4.733148022E+02  1.250000000E+02  0.00000E+00  9.000E+00
      25     1     1     2     0     0  5.513016966E+01  9.004260733E+01  1.817907361E+02  2.445810264E+02  1.250000000E+02  0.00000E+00  9.000E+00
      21     1     1     2   502   512 -1.871442897E+02 -5.183886731E+02  7.286279549E+01  5.559305609E+02  1.307612343E-05  0.00000E+00  9.000E+00
#rwgt            2          11   3.7868846410347009E-003           6      280011           0
</event>
<event>
      5   9999  3.19816E-02  1.02233E+02 -1.00000E+00  1.23398E-01
      21    -1     0     0   502   501  0.000000000E+00  0.000000000E+00  7.348893746E+02  7.348893746E+02  0.000000000E+00  0.00000E+00  9.000E+00
      21    -1     0     0   511   502  0.000000000E+00  0.000000000E+00 -9.663722197E+02  9.663722197E+02  0.000000000E+00  0.00000E+00  9.000E+00
      25     1     1     2     0     0 -6.666024342E+02  2.818125136E+02 -1.949160677E+00  7.344425760E+02  1.250000000E+02  0.00000E+00  9.000E+00
      25     1     1     2     0     0  7.256480391E+02 -3.652697305E+02 -1.460512950E+02  8.348311407E+02  1.250000000E+02  0.00000E+00  9.000E+00
      21     1     1     2   511   501 -5.904560485E+01  8.345721693E+01 -8.348238942E+01  1.319878777E+02  2.132480600E-06  0.00000E+00  9.000E+00
#rwgt            1           1   2.7456838120252330E-002           6      280046           0
</event>
<event>
      5   9999  3.19816E-02  1.66309E+01 -1.00000E+00  1.73262E-01
      21    -1     0     0   502   501  0.000000000E+00  0.000000000E+00  8.155743367E+02  8.155743367E+02  0.000000000E+00  0.00000E+00  9.000E+00
      21    -1     0     0   501   512  0.000000000E+00  0.000000000E+00 -4.943141841E+02  4.943141841E+02  0.000000000E+00  0.00000E+00  9.000E+00
      25     1     1     2     0     0 -1.141866930E+02 -2.943963647E+02 -3.346736084E+02  4.768010534E+02  1.250000000E+02  0.00000E+00  9.000E+00
      25     1     1     2     0     0  1.247141861E+02  2.815215947E+02  7.060165422E+02  7.803155735E+02  1.250000000E+02  0.00000E+00  9.000E+00
      21     1     1     2   502   512 -1.052749313E+01  1.287476994E+01 -5.008278107E+01  5.277189377E+01  9.536743164E-07  0.00000E+00  9.000E+00
#rwgt            1           1   3.0358426759979788E-002           6      280122           0
</event>
<event>
      5   9999  3.19816E-02  7.30339E+01 -1.00000E+00  1.30294E-01
      21    -1     0     0   502   501  0.000000000E+00  0.000000000E+00  4.257321887E+02  4.257321887E+02  0.000000000E+00  0.00000E+00  9.000E+00
      21    -1     0     0   501   511  0.000000000E+00  0.000000000E+00 -1.073927899E+03  1.073927899E+03  0.000000000E+00  0.00000E+00  9.000E+00
      25     1     1     2     0     0 -2.127364127E+01  4.584338765E+01  3.443346749E+02  3.697912280E+02  1.250000000E+02  0.00000E+00  9.000E+00
      25     1     1     2     0     0  8.769645877E+01 -7.620724482E+01 -4.096271350E+01  1.755025839E+02  1.250000000E+02  0.00000E+00  9.000E+00
      21     1     1     2   502   511 -6.642281750E+01  3.036385716E+01 -9.515676719E+02  9.543662759E+02  1.078959322E-05  0.00000E+00  9.000E+00
#rwgt            1           1   3.2627524979633497E-002           6      280402           0
</event>
<event>
      5   9999  3.19816E-02  8.72751E+00 -1.00000E+00  2.02848E-01
      21    -1     0     0   512   501  0.000000000E+00  0.000000000E+00  4.820051633E+02  4.820051633E+02  0.000000000E+00  0.00000E+00  9.000E+00
      21    -1     0     0   501   502  0.000000000E+00  0.000000000E+00 -1.903264319E+02  1.903264319E+02  0.000000000E+00  0.00000E+00  9.000E+00
      25     1     1     2     0     0 -1.368060934E+01 -2.215159261E+02 -2.549498569E+01  2.559911305E+02  1.250000000E+02  0.00000E+00  9.000E+00
      25     1     1     2     0     0  8.049919808E+00  2.148477357E+02  2.649165043E+02  3.633594708E+02  1.250000000E+02  0.00000E+00  9.000E+00
      21     1     1     2   512   502  5.630689530E+00  6.668190344E+00  5.225721283E+01  5.298099394E+01  6.743495762E-07  0.00000E+00  9.000E+00
#rwgt            1           1   2.6753747398006039E-002           6      280464           0
</event>
<event>
      5   9999  3.19816E-02  3.40145E+02 -1.00000E+00  1.03850E-01
      21    -1     0     0   502   501  0.000000000E+00  0.000000000E+00  8.565608758E+02  8.565608758E+02  0.000000000E+00  0.00000E+00  9.000E+00
       2    -1     0     0   501     0  0.000000000E+00  0.000000000E+00 -1.051317258E+03  1.051317258E+03  0.000000000E+00  0.00000E+00  9.000E+00
      25     1     1     2     0     0  4.384109912E+02  1.999608467E+02  2.939625931E+02  5.781241592E+02  1.250000000E+02  0.00000E+00  9.000E+00
      25     1     1     2     0     0 -7.046739531E+02  1.170584281E+01  2.202655290E+01  7.161093324E+02  1.250000000E+02  0.00000E+00  9.000E+00
       2     1     1     2   502     0  2.662629619E+02 -2.116666895E+02 -5.107455278E+02  6.136446419E+02  9.344061824E-06  0.00000E+00  9.000E+00
#rwgt            1           1   3.1367765568030441E-002           6      280784           0
</event>
<event>
      5   9999  3.19816E-02  1.00436E+02 -1.00000E+00  1.23743E-01
      21    -1     0     0   502   501  0.000000000E+00  0.000000000E+00  7.344039779E+02  7.344039779E+02  0.000000000E+00  0.00000E+00  9.000E+00
       1    -1     0     0   501     0  0.000000000E+00  0.000000000E+00 -6.355040789E+02  6.355040789E+02  0.000000000E+00  0.00000E+00  9.000E+00
      25     1     1     2     0     0 -4.626598404E+02  2.010188172E+01 -2.310592257E+02  5.324204911E+02  1.250000000E+02  0.00000E+00  9.000E+00
      25     1     1     2     0     0  3.653914467E+02  4.921412060E+00  5.049540510E+02  6.357190600E+02  1.250000000E+02  0.00000E+00  9.000E+00
       1     1     1     2   502     0  9.726839372E+01 -2.502329378E+01 -1.749949264E+02  2.017685057E+02  2.697398305E-06  0.00000E+00  9.000E+00
#rwgt            1           1   2.3009203531620868E-002           6      280811           0
</event>
<event>
      5   9999  3.19816E-02  1.36815E+02 -1.00000E+00  1.18000E-01
      21    -1     0     0   502   511  0.000000000E+00  0.000000000E+00  8.140382512E+02  8.140382512E+02  0.000000000E+00  0.00000E+00  9.000E+00
      21    -1     0     0   501   502  0.000000000E+00  0.000000000E+00 -2.128834640E+02  2.128834640E+02  0.000000000E+00  0.00000E+00  9.000E+00
      25     1     1     2     0     0  2.875538719E+02  1.798444435E+02  8.352703634E+01  3.709892436E+02  1.250000000E+02  0.00000E+00  9.000E+00
      25     1     1     2     0     0 -1.508036264E+02 -1.756479117E+02  3.770642181E+02  4.597785849E+02  1.250000000E+02  0.00000E+00  9.000E+00
      21     1     1     2   501   511 -1.367502455E+02 -4.196531759E+00  1.405635328E+02  1.961538867E+02  2.697398305E-06  0.00000E+00  9.000E+00
#rwgt            2          11   3.5479894072589137E-003           6      280934           0
</event>
<event>
      5   9999  3.19816E-02  8.34594E+01 -1.00000E+00  1.27466E-01
      21    -1     0     0   502   501  0.000000000E+00  0.000000000E+00  4.260298335E+02  4.260298335E+02  0.000000000E+00  0.00000E+00  9.000E+00
       2    -1     0     0   501     0  0.000000000E+00  0.000000000E+00 -7.279954829E+02  7.279954829E+02  0.000000000E+00  0.00000E+00  9.000E+00
      25     1     1     2     0     0  2.143412164E+02 -1.325994145E+02  2.747506606E+02  3.932399869E+02  1.250000000E+02  0.00000E+00  9.000E+00
      25     1     1     2     0     0 -2.702771328E+02  7.065876889E+01 -1.793110288E+02  3.547109178E+02  1.250000000E+02  0.00000E+00  9.000E+00
       2     1     1     2   502     0  5.593591642E+01  6.194064564E+01 -3.974052813E+02  4.060744118E+02  5.394796609E-06  0.00000E+00  9.000E+00
#rwgt            1           1   2.8103445565303045E-002           6      280954           0
</event>
<event>
      5   9999  3.19816E-02  9.93070E+01 -1.00000E+00  1.23964E-01
      21    -1     0     0   502   501  0.000000000E+00  0.000000000E+00  2.519391329E+02  2.519391329E+02  0.000000000E+00  0.00000E+00  9.000E+00
       2    -1     0     0   501     0  0.000000000E+00  0.000000000E+00 -4.513593429E+03  4.513593429E+03  0.000000000E+00  0.00000E+00  9.000E+00
      25     1     1     2     0     0  5.622835345E+02  2.981824800E+02 -1.162462261E+03  1.331172067E+03  1.250000000E+02  0.00000E+00  9.000E+00
      25     1     1     2     0     0 -4.643463805E+02 -2.817446026E+02 -2.991255218E+02  6.325335247E+02  1.250000000E+02  0.00000E+00  9.000E+00
       2     1     1     2   502     0 -9.793715400E+01 -1.643787745E+01 -2.800066514E+03  2.801826970E+03  0.000000000E+00  0.00000E+00  9.000E+00
#rwgt            1           1   2.2481863490404506E-002           6      281029           0
</event>
<event>
      5   9999  3.19816E-02  3.46369E+02 -1.00000E+00  1.03603E-01
      -4    -1     0     0     0   501  0.000000000E+00  0.000000000E+00  7.286638088E+02  7.286638088E+02  0.000000000E+00  0.00000E+00  9.000E+00
      21    -1     0     0   501   502  0.000000000E+00  0.000000000E+00 -2.569186724E+02  2.569186724E+02  0.000000000E+00  0.00000E+00  9.000E+00
      25     1     1     2     0     0  2.227410621E+02  3.626700321E+01  1.273710754E+02  2.877103875E+02  1.250000000E+02  0.00000E+00  9.000E+00
      25     1     1     2     0     0  1.024239948E+02 -1.555955952E+02  2.323230538E+01  2.255335983E+02  1.250000000E+02  0.00000E+00  9.000E+00
      -4     1     1     2     0   502 -3.251650568E+02  1.193285920E+02  3.211417556E+02  4.723384954E+02  3.814697266E-06  0.00000E+00  9.000E+00
#rwgt            2           2   4.0796322307401444E-005           6      281173           0
</event>
<event>
      5   9999  3.19816E-02  1.40284E+02 -1.00000E+00  1.17558E-01
      -1    -1     0     0     0   501  0.000000000E+00  0.000000000E+00  8.014335916E+02  8.014335916E+02  0.000000000E+00  0.00000E+00  9.000E+00
      21    -1     0     0   501   502  0.000000000E+00  0.000000000E+00 -7.238379204E+02  7.238379204E+02  0.000000000E+00  0.00000E+00  9.000E+00
      25     1     1     2     0     0  6.370581651E+02 -5.662906955E+01  9.292637577E+01  6.582630694E+02  1.250000000E+02  0.00000E+00  9.000E+00
      25     1     1     2     0     0 -7.033619218E+02 -6.699666577E+01  3.395040500E+01  7.183203855E+02  1.250000000E+02  0.00000E+00  9.000E+00
      -1     1     1     2     0   502  6.630375669E+01  1.236257353E+02 -4.928110956E+01  1.486880572E+02  1.784161275E-06  0.00000E+00  9.000E+00
#rwgt            1           1   2.1717995858797301E-002           6      281192           0
</event>
<event>
      5   9999  3.19816E-02  9.63769E+01 -1.00000E+00  1.24553E-01
      21    -1     0     0   502   501  0.000000000E+00  0.000000000E+00  7.623411739E+02  7.623411739E+02  0.000000000E+00  0.00000E+00  9.000E+00
      21    -1     0     0   501   511  0.000000000E+00  0.000000000E+00 -2.352398725E+02  2.352398725E+02  0.000000000E+00  0.00000E+00  9.000E+00
      25     1     1     2     0     0  1.233273287E+02 -1.930245488E+02  5.311047582E+02  5.917477255E+02  1.250000000E+02  0.00000E+00  9.000E+00
      25     1     1     2     0     0 -7.089627759E+01  2.738916703E+02  1.392922710E+00  3.093054630E+02  1.250000000E+02  0.00000E+00  9.000E+00
      21     1     1     2   502   511 -5.243105107E+01 -8.086712145E+01 -5.396379510E+00  9.652785795E+01  1.086048314E-06  0.00000E+00  9.000E+00
#rwgt            1           1   2.6959410454144940E-002           6      281288           0
</event>
<event>
      5   9999  3.19816E-02  9.83370E+01 -1.00000E+00  1.24156E-01
      21    -1     0     0   502   512  0.000000000E+00  0.000000000E+00  1.332769828E+02  1.332769828E+02  0.000000000E+00  0.00000E+00  9.000E+00
      21    -1     0     0   501   502  0.000000000E+00  0.000000000E+00 -5.618589239E+02  5.618589239E+02  0.000000000E+00  0.00000E+00  9.000E+00
      25     1     1     2     0     0 -8.411873723E+01  1.031097620E+02 -1.122186516E+02  2.143026149E+02  1.250000000E+02  0.00000E+00  9.000E+00
      25     1     1     2     0     0  1.171948657E+02 -1.957171803E+02 -2.585534907E+02  3.667625373E+02  1.250000000E+02  0.00000E+00  9.000E+00
      21     1     1     2   501   512 -3.307612852E+01  9.260741830E+01 -5.780979892E+01  1.140707546E+02  6.743495762E-07  0.00000E+00  9.000E+00
#rwgt            1           1   2.9540155624757591E-002           6      281417           0
</event>
<event>
      5   9999  3.19816E-02  6.17957E+01 -1.00000E+00  1.34023E-01
      21    -1     0     0   502   511  0.000000000E+00  0.000000000E+00  1.087235629E+03  1.087235629E+03  0.000000000E+00  0.00000E+00  9.000E+00
      21    -1     0     0   501   502  0.000000000E+00  0.000000000E+00 -1.463296081E+02  1.463296081E+02  0.000000000E+00  0.00000E+00  9.000E+00
      25     1     1     2     0     0  2.407906650E+02  1.000177713E+02  8.061005576E+02  8.563917374E+02  1.250000000E+02  0.00000E+00  9.000E+00
      25     1     1     2     0     0 -1.925932698E+02 -1.386922582E+02  5.099509549E+01  2.730443368E+02  1.250000000E+02  0.00000E+00  9.000E+00
      21     1     1     2   501   511 -4.819739514E+01  3.867448691E+01  8.381036784E+01  1.041291630E+02  1.348699152E-06  0.00000E+00  9.000E+00
#rwgt            1           1   3.1525824148438526E-002           6      281515           0
</event>
<event>
      5   9999  3.19816E-02  5.06061E+01 -1.00000E+00  1.38778E-01
      21    -1     0     0   502   501  0.000000000E+00  0.000000000E+00  8.308589370E+02  8.308589370E+02  0.000000000E+00  0.00000E+00  9.000E+00
      21    -1     0     0   501   512  0.000000000E+00  0.000000000E+00 -4.012564948E+02  4.012564948E+02  0.000000000E+00  0.00000E+00  9.000E+00
      25     1     1     2     0     0  1.190452451E+02 -3.306566150E+02 -2.121539757E+02  4.291152256E+02  1.250000000E+02  0.00000E+00  9.000E+00
      25     1     1     2     0     0 -1.675346965E+02  3.161738944E+02  6.493042893E+02  7.518343342E+02  1.250000000E+02  0.00000E+00  9.000E+00
      21     1     1     2   502   512  4.848945135E+01  1.448272061E+01 -7.547871360E+00  5.116587193E+01  1.183118417E-06  0.00000E+00  9.000E+00
#rwgt            1           1   2.4278210455304212E-002           6      281589           0
</event>
<event>
      5   9999  3.19816E-02  2.61946E+01 -1.00000E+00  1.57247E-01
       2    -1     0     0   502     0  0.000000000E+00  0.000000000E+00  1.892690024E+03  1.892690024E+03  0.000000000E+00  0.00000E+00  9.000E+00
      21    -1     0     0   501   502  0.000000000E+00  0.000000000E+00 -1.232854447E+03  1.232854447E+03  0.000000000E+00  0.00000E+00  9.000E+00
      25     1     1     2     0     0 -2.476923243E+02  2.479812686E+02 -1.115544265E+03  1.175972026E+03  1.250000000E+02  0.00000E+00  9.000E+00
      25     1     1     2     0     0  2.691970148E+02 -2.330244502E+02  3.222976620E+02  4.962541789E+02  1.250000000E+02  0.00000E+00  9.000E+00
       2     1     1     2   501     0 -2.150469054E+01 -1.495681841E+01  1.453082181E+03  1.453318266E+03  0.000000000E+00  0.00000E+00  9.000E+00
#rwgt            1           1   3.2727807777158252E-002           6      281720           0
</event>
<event>
      5   9999  3.19816E-02  2.56428E+01 -1.00000E+00  1.57929E-01
      21    -1     0     0   502   501  0.000000000E+00  0.000000000E+00  1.115937108E+03  1.115937108E+03  0.000000000E+00  0.00000E+00  9.000E+00
      21    -1     0     0   511   502  0.000000000E+00  0.000000000E+00 -1.008911643E+02  1.008911643E+02  0.000000000E+00  0.00000E+00  9.000E+00
      25     1     1     2     0     0  3.830187290E+01  2.334586364E+02  1.541645645E+02  3.088068673E+02  1.250000000E+02  0.00000E+00  9.000E+00
      25     1     1     2     0     0 -4.329154223E+01 -2.083059635E+02  8.382651357E+02  8.738300577E+02  1.250000000E+02  0.00000E+00  9.000E+00
      21     1     1     2   511   501  4.989669338E+00 -2.515267286E+01  2.261624351E+01  3.419134719E+01  0.000000000E+00  0.00000E+00  9.000E+00
#rwgt            1           1   3.1495714074785935E-002           6      281888           0
</event>
<event>
      5   9999  3.19816E-02  1.76666E+02 -1.00000E+00  1.13645E-01
      21    -1     0     0   512   501  0.000000000E+00  0.000000000E+00  1.665262723E+03  1.665262723E+03  0.000000000E+00  0.00000E+00  9.000E+00
      21    -1     0     0   501   502  0.000000000E+00  0.000000000E+00 -5.758742436E+02  5.758742436E+02  0.000000000E+00  0.00000E+00  9.000E+00
      25     1     1     2     0     0  4.241566027E+01  6.349073321E+01  5.439368962E+02  5.633138632E+02  1.250000000E+02  0.00000E+00  9.000E+00
      25     1     1     2     0     0 -1.067772254E+02  1.010340084E+02 -5.424095387E+02  5.757103042E+02  1.250000000E+02  0.00000E+00  9.000E+00
      21     1     1     2   512   502  6.436156518E+01 -1.645247416E+02  1.087861122E+03  1.102112799E+03  1.525878906E-05  0.00000E+00  9.000E+00
#rwgt            2          11   2.1584329937460868E-003           6      282064           0
</event>
<event>
      5   9999  3.19816E-02  1.44680E+02 -1.00000E+00  1.17019E-01
      21    -1     0     0   502   501  0.000000000E+00  0.000000000E+00  3.267463502E+02  3.267463502E+02  0.000000000E+00  0.00000E+00  9.000E+00
      21    -1     0     0   511   502  0.000000000E+00  0.000000000E+00 -1.419474372E+03  1.419474372E+03  0.000000000E+00  0.00000E+00  9.000E+00
      25     1     1     2     0     0 -7.049537770E+01  6.224050749E+02 -2.524166724E+02  6.868019016E+02  1.250000000E+02  0.00000E+00  9.000E+00
      25     1     1     2     0     0  7.876363290E+01 -4.779612578E+02 -6.630555524E+02  8.306132310E+02  1.250000000E+02  0.00000E+00  9.000E+00
      21     1     1     2   511   501 -8.268255204E+00 -1.444438170E+02 -1.772557973E+02  2.288055899E+02  3.303624740E-06  0.00000E+00  9.000E+00
#rwgt            1           1   2.7303848581975758E-002           6      282099           0
</event>
<event>
      5   9999  3.19816E-02  3.38092E+01 -1.00000E+00  1.49520E-01
      21    -1     0     0   502   501  0.000000000E+00  0.000000000E+00  4.000950851E+02  4.000950851E+02  0.000000000E+00  0.00000E+00  9.000E+00
      21    -1     0     0   501   512  0.000000000E+00  0.000000000E+00 -4.121196400E+02  4.121196400E+02  0.000000000E+00  0.00000E+00  9.000E+00
      25     1     1     2     0     0 -2.360805136E+02  2.258170768E+02 -1.536707689E+02  3.820563653E+02  1.250000000E+02  0.00000E+00  9.000E+00
      25     1     1     2     0     0  2.029958940E+02 -2.327788824E+02  1.802642749E+02  3.788318227E+02  1.250000000E+02  0.00000E+00  9.000E+00
      21     1     1     2   502   512  3.308461957E+01  6.961805616E+00 -3.861806089E+01  5.132653716E+01  4.768371582E-07  0.00000E+00  9.000E+00
#rwgt            1           1   2.9635432635258925E-002           6      282173           0
</event>
<event>
      5   9999  3.19816E-02  5.00928E+01 -1.00000E+00  1.39030E-01
      21    -1     0     0   502   501  0.000000000E+00  0.000000000E+00  2.393376320E+02  2.393376320E+02  0.000000000E+00  0.00000E+00  9.000E+00
      21    -1     0     0   511   502  0.000000000E+00  0.000000000E+00 -5.121090455E+02  5.121090455E+02  0.000000000E+00  0.00000E+00  9.000E+00
      25     1     1     2     0     0 -4.114278930E+01  1.438049616E+02  1.478305757E+02  2.446456115E+02  1.250000000E+02  0.00000E+00  9.000E+00
      25     1     1     2     0     0  1.121253228E+01 -1.839729498E+02 -2.814181230E+02  3.588773148E+02  1.250000000E+02  0.00000E+00  9.000E+00
      21     1     1     2   511   501  2.993025702E+01  4.016798813E+01 -1.391838662E+02  1.479237512E+02  1.907348633E-06  0.00000E+00  9.000E+00
#rwgt            1           1   3.0118996880730532E-002           6      282305           0
</event>
<event>
      5   9999  3.19816E-02  2.42534E+02 -1.00000E+00  1.08682E-01
      21    -1     0     0   512   501  0.000000000E+00  0.000000000E+00  5.561380524E+02  5.561380524E+02  0.000000000E+00  0.00000E+00  9.000E+00
      21    -1     0     0   501   502  0.000000000E+00  0.000000000E+00 -6.114925240E+02  6.114925240E+02  0.000000000E+00  0.00000E+00  9.000E+00
      25     1     1     2     0     0  1.878938399E+00 -3.219359044E+02 -2.535177240E+01  3.462859647E+02  1.250000000E+02  0.00000E+00  9.000E+00
      25     1     1     2     0     0  3.853491479E+00  5.644020560E+02 -2.878863651E+01  5.788076674E+02  1.250000000E+02  0.00000E+00  9.000E+00
      21     1     1     2   512   502 -5.732429878E+00 -2.424661516E+02 -1.214062735E+00  2.425369443E+02  4.154966424E-06  0.00000E+00  9.000E+00
#rwgt            1           1   3.1400701228599989E-002           6      282404           0
</event>
<event>
      5   9999  3.19816E-02  9.75147E+01 -1.00000E+00  1.24322E-01
      21    -1     0     0   502   501  0.000000000E+00  0.000000000E+00  4.783891852E+02  4.783891852E+02  0.000000000E+00  0.00000E+00  9.000E+00
      21    -1     0     0   511   502  0.000000000E+00  0.000000000E+00 -6.390389940E+02  6.390389940E+02  0.000000000E+00  0.00000E+00  9.000E+00
      25     1     1     2     0     0  1.647652712E+02  3.496343518E+02  2.315318845E+02  4.675722277E+02  1.250000000E+02  0.00000E+00  9.000E+00
      25     1     1     2     0     0 -1.922528626E+02 -2.560739474E+02 -1.255548700E+02  3.659563568E+02  1.250000000E+02  0.00000E+00  9.000E+00
      21     1     1     2   511   501  2.748759136E+01 -9.356040440E+01 -2.666268233E+02  2.838995947E+02  0.000000000E+00  0.00000E+00  9.000E+00
#rwgt            1           1   2.6546637095658302E-002           6      282456           0
</event>
<event>
      5   9999  3.19816E-02  3.80190E+01 -1.00000E+00  1.46222E-01
      -1    -1     0     0     0   501  0.000000000E+00  0.000000000E+00  9.900499846E+02  9.900499846E+02  0.000000000E+00  0.00000E+00  9.000E+00
      21    -1     0     0   501   502  0.000000000E+00  0.000000000E+00 -7.234344859E+02  7.234344859E+02  0.000000000E+00  0.00000E+00  9.000E+00
      25     1     1     2     0     0 -1.457631783E+02 -7.334846577E+02  1.462143223E+02  7.721724388E+02  1.250000000E+02  0.00000E+00  9.000E+00
      25     1     1     2     0     0  1.078647260E+02  7.304592557E+02 -6.532924604E+01  7.517302932E+02  1.250000000E+02  0.00000E+00  9.000E+00
      -1     1     1     2     0   502  3.789845236E+01  3.025401963E+00  1.857304224E+02  1.895817384E+02  0.000000000E+00  0.00000E+00  9.000E+00
#rwgt            1           1   3.0513544742569180E-002           6      282520           0
</event>
<event>
      5   9999  3.19816E-02  7.67514E+01 -1.00000E+00  1.29227E-01
      21    -1     0     0   502   501  0.000000000E+00  0.000000000E+00  7.992749280E+02  7.992749280E+02  0.000000000E+00  0.00000E+00  9.000E+00
       2    -1     0     0   501     0  0.000000000E+00  0.000000000E+00 -1.038584674E+03  1.038584674E+03  0.000000000E+00  0.00000E+00  9.000E+00
      25     1     1     2     0     0  5.556068399E+02  1.063611398E+02  3.415782988E+02  6.725417361E+02  1.250000000E+02  0.00000E+00  9.000E+00
      25     1     1     2     0     0 -4.838885910E+02 -7.902494947E+01  6.921978145E+01  5.106951040E+02  1.250000000E+02  0.00000E+00  9.000E+00
       2     1     1     2   502     0 -7.171824897E+01 -2.733619029E+01 -6.501078267E+02  6.546227623E+02  0.000000000E+00  0.00000E+00  9.000E+00
#rwgt            1           1   2.6717400747047534E-002           6      282718           0
</event>
<event>
      5   9999  3.19816E-02  1.43243E+01 -1.00000E+00  1.79291E-01
      21    -1     0     0   502   501  0.000000000E+00  0.000000000E+00  7.193738692E+02  7.193738692E+02  0.000000000E+00  0.00000E+00  9.000E+00
      21    -1     0     0   511   502  0.000000000E+00  0.000000000E+00 -2.910693291E+02  2.910693291E+02  0.000000000E+00  0.00000E+00  9.000E+00
      25     1     1     2     0     0 -1.102607688E+02  1.960643758E+02  6.146913398E+02  6.663851137E+02  1.250000000E+02  0.00000E+00  9.000E+00
      25     1     1     2     0     0  9.602879169E+01 -1.976877151E+02 -1.269492542E+02  2.829188483E+02  1.250000000E+02  0.00000E+00  9.000E+00
      21     1     1     2   511   501  1.423197715E+01  1.623339379E+00 -5.943754544E+01  6.113923628E+01  6.743495762E-07  0.00000E+00  9.000E+00
#rwgt            1           1   2.9637178922840186E-002           6      282787           0
</event>
<event>
      5   9999  3.19816E-02  2.43172E+01 -1.00000E+00  1.59657E-01
      21    -1     0     0   502   512  0.000000000E+00  0.000000000E+00  4.046630391E+02  4.046630391E+02  0.000000000E+00  0.00000E+00  9.000E+00
      21    -1     0     0   501   502  0.000000000E+00  0.000000000E+00 -6.753690761E+02  6.753690761E+02  0.000000000E+00  0.00000E+00  9.000E+00
      25     1     1     2     0     0 -2.779527634E+02  3.458750387E+02  3.699981695E+01  4.624729911E+02  1.250000000E+02  0.00000E+00  9.000E+00
      25     1     1     2     0     0  3.013282887E+02 -3.391733110E+02 -3.374933622E+02  5.791062441E+02  1.250000000E+02  0.00000E+00  9.000E+00
      21     1     1     2   501   512 -2.337552528E+01 -6.701727736E+00  2.978750826E+01  3.845288006E+01  0.000000000E+00  0.00000E+00  9.000E+00
#rwgt            1           1   3.0399150214123417E-002           6      282941           0
</event>
<event>
      5   9999  3.19816E-02  2.28073E+02 -1.00000E+00  1.09610E-01
      21    -1     0     0   502   511  0.000000000E+00  0.000000000E+00  1.034216236E+03  1.034216236E+03  0.000000000E+00  0.00000E+00  9.000E+00
      21    -1     0     0   501   502  0.000000000E+00  0.000000000E+00 -7.976731586E+02  7.976731586E+02  0.000000000E+00  0.00000E+00  9.000E+00
      25     1     1     2     0     0 -1.727224952E+02 -6.675395855E+01  3.254484258E+02  3.947541376E+02  1.250000000E+02  0.00000E+00  9.000E+00
      25     1     1     2     0     0  2.057376496E+02 -1.589163020E+02 -7.148922918E+02  7.708945196E+02  1.250000000E+02  0.00000E+00  9.000E+00
      21     1     1     2   501   511 -3.301515440E+01  2.256702606E+02  6.259869436E+02  6.662407376E+02  1.078959322E-05  0.00000E+00  9.000E+00
#rwgt            1           1   3.1782774191061472E-002           6      283119           0
</event>
<event>
      5   9999  3.19816E-02  1.49861E+02 -1.00000E+00  1.16410E-01
      21    -1     0     0   502   501  0.000000000E+00  0.000000000E+00  1.216818008E+03  1.216818008E+03  0.000000000E+00  0.00000E+00  9.000E+00
       2    -1     0     0   501     0  0.000000000E+00  0.000000000E+00 -1.536013309E+03  1.536013309E+03  0.000000000E+00  0.00000E+00  9.000E+00
      25     1     1     2     0     0 -1.717914742E+02 -3.699024367E+02  9.188454065E+02  1.013036033E+03  1.250000000E+02  0.00000E+00  9.000E+00
      25     1     1     2     0     0  3.207234038E+02  3.532431538E+02 -1.420494007E+03  1.503686288E+03  1.250000000E+02  0.00000E+00  9.000E+00
       2     1     1     2   502     0 -1.489319296E+02  1.665928291E+01  1.824533000E+02  2.361089961E+02  2.697398305E-06  0.00000E+00  9.000E+00
#rwgt            2          13   1.1020234604550093E-004           6      283207           0
</event>
<event>
      5   9999  3.19816E-02  1.38057E+02 -1.00000E+00  1.17840E-01
       2    -1     0     0   502     0  0.000000000E+00  0.000000000E+00  3.206133611E+03  3.206133611E+03  0.000000000E+00  0.00000E+00  9.000E+00
      21    -1     0     0   501   502  0.000000000E+00  0.000000000E+00 -2.895369499E+01  2.895369499E+01  0.000000000E+00  0.00000E+00  9.000E+00
      25     1     1     2     0     0  9.809830324E+01 -1.319436329E+02  5.774570912E+02  6.132814130E+02  1.250000000E+02  0.00000E+00  9.000E+00
      25     1     1     2     0     0  3.995086271E+01  1.334484368E+02  1.106789788E+03  1.122503092E+03  1.250000000E+02  0.00000E+00  9.000E+00
       2     1     1     2   501     0 -1.380491659E+02 -1.504803939E+00  1.492933037E+03  1.499302801E+03  2.157918644E-05  0.00000E+00  9.000E+00
#rwgt            1           1   3.2404107878589654E-002           6      283226           0
</event>
<event>
      5   9999  3.19816E-02  1.89827E+01 -1.00000E+00  1.68262E-01
      21    -1     0     0   511   501  0.000000000E+00  0.000000000E+00  2.720854977E+02  2.720854977E+02  0.000000000E+00  0.00000E+00  9.000E+00
      21    -1     0     0   501   502  0.000000000E+00  0.000000000E+00 -1.650633668E+02  1.650633668E+02  0.000000000E+00  0.00000E+00  9.000E+00
      25     1     1     2     0     0  6.008476336E+00 -5.934863567E+01  2.072144044E+02  2.492411919E+02  1.250000000E+02  0.00000E+00  9.000E+00
      25     1     1     2     0     0 -6.854947441E+00  4.038484147E+01 -1.050191011E+02  1.683209355E+02  1.250000000E+02  0.00000E+00  9.000E+00
      21     1     1     2   511   502  8.464711050E-01  1.896379420E+01  4.826827632E+00  1.958673706E+01  0.000000000E+00  0.00000E+00  9.000E+00
#rwgt            1           1   2.9403264146941312E-002           6      283344           0
</event>
<event>
      5   9999  3.19816E-02  1.99363E+02 -1.00000E+00  1.11699E-01
      21    -1     0     0   502   501  0.000000000E+00  0.000000000E+00  2.677828656E+02  2.677828656E+02  0.000000000E+00  0.00000E+00  9.000E+00
      21    -1     0     0   501   512  0.000000000E+00  0.000000000E+00 -4.677912012E+02  4.677912012E+02  0.000000000E+00  0.00000E+00  9.000E+00
      25     1     1     2     0     0 -1.892017862E+02  1.772345407E+02  2.787414284E+00  2.878231540E+02  1.250000000E+02  0.00000E+00  9.000E+00
      25     1     1     2     0     0  1.531253437E+02  1.883714272E+01 -8.337429682E+01  2.153566396E+02  1.250000000E+02  0.00000E+00  9.000E+00
      21     1     1     2   502   512  3.607644247E+01 -1.960716834E+02 -1.194214531E+02  2.323942732E+02  4.672030912E-06  0.00000E+00  9.000E+00
#rwgt            1           1   2.5127428352520527E-002           6      283450           0
</event>
<event>
      5   9999  3.19816E-02  2.72048E+01 -1.00000E+00  1.56050E-01
      21    -1     0     0   502   501  0.000000000E+00  0.000000000E+00  7.892734950E+02  7.892734950E+02  0.000000000E+00  0.00000E+00  9.000E+00
      21    -1     0     0   501   511  0.000000000E+00  0.000000000E+00 -2.121237170E+02  2.121237170E+02  0.000000000E+00  0.00000E+00  9.000E+00
      25     1     1     2     0     0 -1.559664418E+02 -2.979337144E+02  2.269364327E+02  4.245175775E+02  1.250000000E+02  0.00000E+00  9.000E+00
      25     1     1     2     0     0  1.523862453E+02  2.709655483E+02  3.989956186E+02  5.210243755E+02  1.250000000E+02  0.00000E+00  9.000E+00
      21     1     1     2   502   511  3.580196455E+00  2.696816605E+01 -4.878227325E+01  5.585525911E+01  6.743495762E-07  0.00000E+00  9.000E+00
#rwgt            1           1   2.8691008471065454E-002           6      283480           0
</event>
<event>
      5   9999  3.19816E-02  2.99072E+02 -1.00000E+00  1.05636E-01
      21    -1     0     0   502   501  0.000000000E+00  0.000000000E+00  9.242262903E+01  9.242262903E+01  0.000000000E+00  0.00000E+00  9.000E+00
      21    -1     0     0   512   502  0.000000000E+00  0.000000000E+00 -1.711853691E+03  1.711853691E+03  0.000000000E+00  0.00000E+00  9.000E+00
      25     1     1     2     0     0 -1.496970644E+02 -1.338971313E+02 -5.615256798E+02  6.093223629E+02  1.250000000E+02  0.00000E+00  9.000E+00
      25     1     1     2     0     0  1.268001111E+02 -1.642975237E+02 -3.422741593E+02  4.193429916E+02  1.250000000E+02  0.00000E+00  9.000E+00
      21     1     1     2   512   501  2.289695332E+01  2.981946550E+02 -7.156312228E+02  7.756109655E+02  1.078959322E-05  0.00000E+00  9.000E+00
#rwgt            1           1   3.0924717432792972E-002           6      283634           0
</event>
<event>
      5   9999  3.19816E-02  2.04397E+01 -1.00000E+00  1.65594E-01
      21    -1     0     0   502   511  0.000000000E+00  0.000000000E+00  2.795485047E+02  2.795485047E+02  0.000000000E+00  0.00000E+00  9.000E+00
      21    -1     0     0   501   502  0.000000000E+00  0.000000000E+00 -1.200634766E+03  1.200634766E+03  0.000000000E+00  0.00000E+00  9.000E+00
      25     1     1     2     0     0 -2.494498040E+00 -1.299998381E+02 -4.046947678E+00  1.804094183E+02  1.250000000E+02  0.00000E+00  9.000E+00
      25     1     1     2     0     0  4.380125050E+00  1.503523984E+02 -1.099203310E+03  1.116466724E+03  1.250000000E+02  0.00000E+00  9.000E+00
      21     1     1     2   501   511 -1.885627011E+00 -2.035256031E+01  1.821639956E+02  1.833071292E+02  3.814697266E-06  0.00000E+00  9.000E+00
#rwgt            1           1   2.9138419270842500E-002           6      283691           0
</event>
<event>
      5   9999  3.19816E-02  3.17025E+01 -1.00000E+00  1.51393E-01
      -1    -1     0     0     0   501  0.000000000E+00  0.000000000E+00  9.705742105E+02  9.705742105E+02  0.000000000E+00  0.00000E+00  9.000E+00
      21    -1     0     0   501   502  0.000000000E+00  0.000000000E+00 -1.339330420E+02  1.339330420E+02  0.000000000E+00  0.00000E+00  9.000E+00
      25     1     1     2     0     0  2.059817042E+02 -5.007337139E+01  1.623692183E+02  2.948297272E+02  1.250000000E+02  0.00000E+00  9.000E+00
      25     1     1     2     0     0 -1.995880529E+02  8.112442657E+01  1.635593803E+02  2.979819363E+02  1.250000000E+02  0.00000E+00  9.000E+00
      -1     1     1     2     0   502 -6.393651213E+00 -3.105105518E+01  5.107125699E+02  5.116955891E+02  7.629394531E-06  0.00000E+00  9.000E+00
#rwgt            1           1   3.3488046724615285E-002           6      283904           0
</event>
<event>
      5   9999  3.19816E-02  4.25546E+01 -1.00000E+00  1.43192E-01
      21    -1     0     0   502   501  0.000000000E+00  0.000000000E+00  3.148811271E+03  3.148811271E+03  0.000000000E+00  0.00000E+00  9.000E+00
      21    -1     0     0   511   502  0.000000000E+00  0.000000000E+00 -5.775837284E+01  5.775837284E+01  0.000000000E+00  0.00000E+00  9.000E+00
      25     1     1     2     0     0  2.352007129E+02  3.196190553E+02  1.262069367E+03  1.328879153E+03  1.250000000E+02  0.00000E+00  9.000E+00
      25     1     1     2     0     0 -2.281562153E+02 -2.776515878E+02  1.691802610E+03  1.734060765E+03  1.250000000E+02  0.00000E+00  9.000E+00
      21     1     1     2   511   501 -7.044497578E+00 -4.196746752E+01  1.371809207E+02  1.436297263E+02  1.907348633E-06  0.00000E+00  9.000E+00
#rwgt            1           1   4.2739012514290423E-002           6      283992           0
</event>
<event>
      5   9999  3.19816E-02  6.61417E+01 -1.00000E+00  1.32480E-01
       2    -1     0     0   502     0  0.000000000E+00  0.000000000E+00  1.605687009E+03  1.605687009E+03  0.000000000E+00  0.00000E+00  9.000E+00
      21    -1     0     0   501   502  0.000000000E+00  0.000000000E+00 -8.618001927E+01  8.618001927E+01  0.000000000E+00  0.00000E+00  9.000E+00
      25     1     1     2     0     0 -2.343775304E+02  3.260428707E+00  5.167659224E+02  5.810468791E+02  1.250000000E+02  0.00000E+00  9.000E+00
      25     1     1     2     0     0  2.976685504E+02 -2.246915551E+01  4.508477931E+02  5.549776225E+02  1.250000000E+02  0.00000E+00  9.000E+00
       2     1     1     2   501     0 -6.329102004E+01  1.920872681E+01  5.518932741E+02  5.558425267E+02  7.629394531E-06  0.00000E+00  9.000E+00
#rwgt            2          18   4.4980472521831573E-004           6      284127           0
</event>
<event>
      5   9999  3.19816E-02  2.97062E+01 -1.00000E+00  1.53337E-01
      21    -1     0     0   502   501  0.000000000E+00  0.000000000E+00  6.568652012E+01  6.568652012E+01  0.000000000E+00  0.00000E+00  9.000E+00
      21    -1     0     0   511   502  0.000000000E+00  0.000000000E+00 -2.907902275E+03  2.907902275E+03  0.000000000E+00  0.00000E+00  9.000E+00
      25     1     1     2     0     0  1.819353773E+00 -2.712208238E+02 -1.581385017E+03  1.609337633E+03  1.250000000E+02  0.00000E+00  9.000E+00
      25     1     1     2     0     0 -2.435683247E+00  2.415210438E+02 -3.077144201E+02  4.106720242E+02  1.250000000E+02  0.00000E+00  9.000E+00
      21     1     1     2   511   501  6.163294738E-01  2.969978001E+01 -9.531163176E+02  9.535791376E+02  1.868812365E-05  0.00000E+00  9.000E+00
#rwgt            1           1   2.8167109518926571E-002           6      284161           0
</event>
<event>
      5   9999  3.19816E-02  1.28085E+02 -1.00000E+00  1.19179E-01
      21    -1     0     0   502   501  0.000000000E+00  0.000000000E+00  4.297713504E+01  4.297713504E+01  0.000000000E+00  0.00000E+00  9.000E+00
       2    -1     0     0   501     0  0.000000000E+00  0.000000000E+00 -3.227757571E+03  3.227757571E+03  0.000000000E+00  0.00000E+00  9.000E+00
      25     1     1     2     0     0 -1.294382150E+02  3.214053538E+01 -6.908383550E+02  7.146117116E+02  1.250000000E+02  0.00000E+00  9.000E+00
      25     1     1     2     0     0  1.216098759E+02  9.570471709E+01 -3.094294571E+02  3.678585920E+02  1.250000000E+02  0.00000E+00  9.000E+00
       2     1     1     2   502     0  7.828339104E+00 -1.278452525E+02 -2.184512624E+03  2.188264402E+03  4.315837288E-05  0.00000E+00  9.000E+00
#rwgt            1           1   2.7465513494249891E-002           6      284281           0
</event>
<event>
      5   9999  3.19816E-02  2.46868E+02 -1.00000E+00  1.08418E-01
      21    -1     0     0   502   501  0.000000000E+00  0.000000000E+00  1.856482702E+03  1.856482702E+03  0.000000000E+00  0.00000E+00  9.000E+00
      21    -1     0     0   501   511  0.000000000E+00  0.000000000E+00 -1.277532049E+02  1.277532049E+02  0.000000000E+00  0.00000E+00  9.000E+00
      25     1     1     2     0     0 -2.814887506E+02  2.280841674E+02  9.584735585E+02  1.032257171E+03  1.250000000E+02  0.00000E+00  9.000E+00
      25     1     1     2     0     0  3.969983857E+01 -2.779044649E+02  3.615351059E+02  4.744887792E+02  1.250000000E+02  0.00000E+00  9.000E+00
      21     1     1     2   502   511  2.417889120E+02  4.982029751E+01  4.087208326E+02  4.774899570E+02  0.000000000E+00  0.00000E+00  9.000E+00
#rwgt            1           1   3.6077034522880962E-002           6      284355           0
</event>
<event>
      5   9999  3.19816E-02  4.15205E+02 -1.00000E+00  1.01200E-01
      21    -1     0     0   512   501  0.000000000E+00  0.000000000E+00  4.787746935E+02  4.787746935E+02  0.000000000E+00  0.00000E+00  9.000E+00
      21    -1     0     0   501   502  0.000000000E+00  0.000000000E+00 -7.251598126E+02  7.251598126E+02  0.000000000E+00  0.00000E+00  9.000E+00
      25     1     1     2     0     0  3.122002706E+02 -4.096281792E+02 -2.857283133E+02  6.021045783E+02  1.250000000E+02  0.00000E+00  9.000E+00
      25     1     1     2     0     0 -1.929979970E+01  1.153415819E+02 -4.749156344E+01  1.776418064E+02  1.250000000E+02  0.00000E+00  9.000E+00
      21     1     1     2   512   502 -2.929004709E+02  2.942865973E+02  8.683475772E+01  4.241881214E+02  8.148196931E-06  0.00000E+00  9.000E+00
#rwgt            1           1   2.8428949993295333E-002           6      284383           0
</event>
<event>
      5   9999  3.19816E-02  1.25304E+02 -1.00000E+00  1.19576E-01
      21    -1     0     0   502   501  0.000000000E+00  0.000000000E+00  1.105889706E+02  1.105889706E+02  0.000000000E+00  0.00000E+00  9.000E+00
      21    -1     0     0   501   511  0.000000000E+00  0.000000000E+00 -7.402283291E+02  7.402283291E+02  0.000000000E+00  0.00000E+00  9.000E+00
      25     1     1     2     0     0 -6.352469498E+00  1.023179609E+02 -4.008087056E+01  1.665556819E+02  1.250000000E+02  0.00000E+00  9.000E+00
      25     1     1     2     0     0  1.309344822E+02 -1.157460450E+02 -3.024542279E+02  3.710047783E+02  1.250000000E+02  0.00000E+00  9.000E+00
      21     1     1     2   502   511 -1.245820127E+02  1.342808417E+01 -2.871042600E+02  3.132568394E+02  0.000000000E+00  0.00000E+00  9.000E+00
#rwgt            1           1   2.8002169679934165E-002           6      284438           0
</event>
<event>
      5   9999  3.19816E-02  1.53303E+02 -1.00000E+00  1.16020E-01
      21    -1     0     0   512   501  0.000000000E+00  0.000000000E+00  2.043671549E+02  2.043671549E+02  0.000000000E+00  0.00000E+00  9.000E+00
      21    -1     0     0   501   502  0.000000000E+00  0.000000000E+00 -4.288979617E+02  4.288979617E+02  0.000000000E+00  0.00000E+00  9.000E+00
      25     1     1     2     0     0 -2.240019571E+01 -1.215654230E+02  8.426884183E+00  1.759998102E+02  1.250000000E+02  0.00000E+00  9.000E+00
      25     1     1     2     0     0 -1.247387279E+02  7.853246140E+01 -2.345972647E+02  3.039539017E+02  1.250000000E+02  0.00000E+00  9.000E+00
      21     1     1     2   512   502  1.471389236E+02  4.303296157E+01  1.639573644E+00  1.533114047E+02  2.706109952E-06  0.00000E+00  9.000E+00
#rwgt            2          11   2.7423297397855531E-003           6      284577           0
</event>
<event>
      5   9999  3.19816E-02  4.71549E+01 -1.00000E+00  1.40543E-01
      21    -1     0     0   502   501  0.000000000E+00  0.000000000E+00  1.161435155E+03  1.161435155E+03  0.000000000E+00  0.00000E+00  9.000E+00
      21    -1     0     0   511   502  0.000000000E+00  0.000000000E+00 -8.691447269E+01  8.691447269E+01  0.000000000E+00  0.00000E+00  9.000E+00
      25     1     1     2     0     0  6.048718486E+01  2.748005735E+01  1.958161073E+02  2.416253318E+02  1.250000000E+02  0.00000E+00  9.000E+00
      25     1     1     2     0     0 -8.722596399E+01  1.136088682E+01  9.268291763E+02  9.393480508E+02  1.250000000E+02  0.00000E+00  9.000E+00
      21     1     1     2   511   501  2.673877913E+01 -3.884094417E+01 -4.812460085E+01  6.737624552E+01  6.743495762E-07  0.00000E+00  9.000E+00
#rwgt            1           1   3.4837687913268682E-002           6      284597           0
</event>
<event>
      5   9999  3.69205E-02  1.96033E+02 -1.00000E+00  1.11966E-01
      21    -1     0     0   502   501  0.000000000E+00  0.000000000E+00  3.732494227E+02  3.732494227E+02  0.000000000E+00  0.00000E+00  9.000E+00
      21    -1     0     0   501   512  0.000000000E+00  0.000000000E+00 -2.493371221E+03  2.493371221E+03  0.000000000E+00  0.00000E+00  9.000E+00
      25     1     1     2     0     0 -1.428455664E+02 -2.956397585E+01  3.004748441E+02  3.566356915E+02  1.250000000E+02  0.00000E+00  9.000E+00
      25     1     1     2     0     0  2.739158692E+02  1.753356669E+02 -7.391968796E+02  8.171961370E+02  1.250000000E+02  0.00000E+00  9.000E+00
      21     1     1     2   502   512 -1.310703028E+02 -1.457716911E+02 -1.681399763E+03  1.692788815E+03  2.157918644E-05  0.00000E+00  9.000E+00
#rwgt            1           1   3.8809508064568426E-002           6      284667           0
</event>
<event>
      5   9999  3.19816E-02  1.00261E+02 -1.00000E+00  1.23777E-01
       2    -1     0     0   502     0  0.000000000E+00  0.000000000E+00  9.052277967E+02  9.052277967E+02  0.000000000E+00  0.00000E+00  9.000E+00
      21    -1     0     0   501   502  0.000000000E+00  0.000000000E+00 -4.426609686E+02  4.426609686E+02  0.000000000E+00  0.00000E+00  9.000E+00
      25     1     1     2     0     0  1.123950956E+02  1.152381461E+02 -3.468340878E+02  4.022827019E+02  1.250000000E+02  0.00000E+00  9.000E+00
      25     1     1     2     0     0 -1.041676462E+02 -2.151611213E+02  2.210106783E+02  3.487347510E+02  1.250000000E+02  0.00000E+00  9.000E+00
       2     1     1     2   501     0 -8.227449425E+00  9.992297520E+01  5.883902375E+02  5.968713124E+02  7.629394531E-06  0.00000E+00  9.000E+00
#rwgt            1           1   2.9104196249322395E-002           6      284730           0
</event>
<event>
      5   9999  3.19816E-02  1.16791E+02 -1.00000E+00  1.20870E-01
      21    -1     0     0   502   511  0.000000000E+00  0.000000000E+00  1.290499691E+03  1.290499691E+03  0.000000000E+00  0.00000E+00  9.000E+00
      21    -1     0     0   501   502  0.000000000E+00  0.000000000E+00 -5.129462377E+02  5.129462377E+02  0.000000000E+00  0.00000E+00  9.000E+00
      25     1     1     2     0     0  7.580662627E+02 -1.429313886E+02  2.241969859E+02  8.130086894E+02  1.250000000E+02  0.00000E+00  9.000E+00
      25     1     1     2     0     0 -6.512633330E+02  1.901895454E+02  3.992779518E+02  7.970971552E+02  1.250000000E+02  0.00000E+00  9.000E+00
      21     1     1     2   501   511 -1.068029297E+02 -4.725815674E+01  1.540785158E+02  1.933400843E+02  0.000000000E+00  0.00000E+00  9.000E+00
#rwgt            2          11   6.4782295551997363E-003           6      284855           0
</event>
<event>
      5   9999  3.19816E-02  4.67637E+01 -1.00000E+00  1.40754E-01
      21    -1     0     0   502   512  0.000000000E+00  0.000000000E+00  5.206485714E+02  5.206485714E+02  0.000000000E+00  0.00000E+00  9.000E+00
      21    -1     0     0   501   502  0.000000000E+00  0.000000000E+00 -2.087032598E+02  2.087032598E+02  0.000000000E+00  0.00000E+00  9.000E+00
      25     1     1     2     0     0  2.314484341E+02 -4.130284053E+01 -5.301036669E+00  2.663219917E+02  1.250000000E+02  0.00000E+00  9.000E+00
      25     1     1     2     0     0 -2.478718968E+02  8.508772826E+01  2.779554007E+02  4.019509964E+02  1.250000000E+02  0.00000E+00  9.000E+00
      21     1     1     2   501   512  1.642346271E+01 -4.378488773E+01  3.929094761E+01  6.107884319E+01  1.261592536E-06  0.00000E+00  9.000E+00
#rwgt            2          11   2.8684126101576725E-003           6      284965           0
</event>
<event>
      5   9999  3.19816E-02  2.40584E+02 -1.00000E+00  1.08803E-01
      21    -1     0     0   502   501  0.000000000E+00  0.000000000E+00  4.343671217E+02  4.343671217E+02  0.000000000E+00  0.00000E+00  9.000E+00
      21    -1     0     0   511   502  0.000000000E+00  0.000000000E+00 -8.419752795E+02  8.419752795E+02  0.000000000E+00  0.00000E+00  9.000E+00
      25     1     1     2     0     0  8.381946042E+01 -2.935497415E+02 -8.929712272E+01  3.417544862E+02  1.250000000E+02  0.00000E+00  9.000E+00
      25     1     1     2     0     0  1.557131809E+02  3.160199189E+02  1.541851697E+02  4.043677168E+02  1.250000000E+02  0.00000E+00  9.000E+00
      21     1     1     2   511   501 -2.395326413E+02 -2.247017740E+01 -4.724962047E+02  5.302201983E+02  5.394796609E-06  0.00000E+00  9.000E+00
#rwgt            1           1   3.3249758487103244E-002           6      285015           0
</event>
<event>
      5   9999  3.19816E-02  1.75271E+02 -1.00000E+00  1.13775E-01
      21    -1     0     0   512   501  0.000000000E+00  0.000000000E+00  4.353818792E+02  4.353818792E+02  0.000000000E+00  0.00000E+00  9.000E+00
      21    -1     0     0   501   502  0.000000000E+00  0.000000000E+00 -8.777999243E+02  8.777999243E+02  0.000000000E+00  0.00000E+00  9.000E+00
      25     1     1     2     0     0 -1.675782914E+02 -4.011111088E+01  2.360906355E+02  3.178917632E+02  1.250000000E+02  0.00000E+00  9.000E+00
      25     1     1     2     0     0  1.307064190E+02 -1.312379329E+02 -7.670417504E+02  7.989277877E+02  1.250000000E+02  0.00000E+00  9.000E+00
      21     1     1     2   512   502  3.687187233E+01  1.713490438E+02  8.853306982E+01  1.963622526E+02  2.336015456E-06  0.00000E+00  9.000E+00
#rwgt            1           1   2.9508146204102127E-002           6      285068           0
</event>
<event>
      5   9999  3.19816E-02  1.80560E+01 -1.00000E+00  1.70118E-01
      21    -1     0     0   502   501  0.000000000E+00  0.000000000E+00  1.284271571E+03  1.284271571E+03  0.000000000E+00  0.00000E+00  9.000E+00
      21    -1     0     0   501   511  0.000000000E+00  0.000000000E+00 -3.659896874E+01  3.659896874E+01  0.000000000E+00  0.00000E+00  9.000E+00
      25     1     1     2     0     0 -1.230872359E+02  6.764958192E+01  4.264407506E+02  4.660511209E+02  1.250000000E+02  0.00000E+00  9.000E+00
      25     1     1     2     0     0  1.261389973E+02 -4.985330322E+01  8.151635766E+02  8.357709346E+02  1.250000000E+02  0.00000E+00  9.000E+00
      21     1     1     2   502   511 -3.051761452E+00 -1.779627870E+01  6.068274899E+00  1.904848403E+01  5.840038640E-07  0.00000E+00  9.000E+00
#rwgt            1           1   2.5983441675622481E-002           6      285140           0
</event>
<event>
      5   9999  3.19816E-02  1.68467E+02 -1.00000E+00  1.14430E-01
      21    -1     0     0   512   501  0.000000000E+00  0.000000000E+00  9.324528432E+02  9.324528432E+02  0.000000000E+00  0.00000E+00  9.000E+00
      21    -1     0     0   501   502  0.000000000E+00  0.000000000E+00 -1.729447399E+03  1.729447399E+03  0.000000000E+00  0.00000E+00  9.000E+00
      25     1     1     2     0     0 -3.742046908E+02 -1.028299525E+02 -1.380275531E+03  1.439231979E+03  1.250000000E+02  0.00000E+00  9.000E+00
      25     1     1     2     0     0  3.920616701E+02  2.703482790E+02 -1.139432765E+02  5.053796745E+02  1.250000000E+02  0.00000E+00  9.000E+00
      21     1     1     2   512   502 -1.785697929E+01 -1.675183265E+02  6.972242518E+02  7.172885881E+02  1.321449896E-05  0.00000E+00  9.000E+00
#rwgt            1           1   2.9756754976677718E-002           6      285309           0
</event>
<event>
      5   9999  3.19816E-02  7.74489E+01 -1.00000E+00  1.29034E-01
      21    -1     0     0   511   501  0.000000000E+00  0.000000000E+00  1.630561955E+02  1.630561955E+02  0.000000000E+00  0.00000E+00  9.000E+00
      21    -1     0     0   501   502  0.000000000E+00  0.000000000E+00 -2.181427226E+03  2.181427226E+03  0.000000000E+00  0.00000E+00  9.000E+00
      25     1     1     2     0     0 -8.370498591E+01 -3.891936506E+01 -2.055125673E+03  2.060991939E+03  1.250000000E+02  0.00000E+00  9.000E+00
      25     1     1     2     0     0  1.188734219E+02  1.079230753E+02  3.104217459E+01  2.058322065E+02  1.250000000E+02  0.00000E+00  9.000E+00
      21     1     1     2   511   502 -3.516843595E+01 -6.900371026E+01  5.712467405E+00  7.765927633E+01  2.247656302E-06  0.00000E+00  9.000E+00
#rwgt            1           1   3.0171610929838267E-002           6      285397           0
</event>
<event>
      5   9999  3.19816E-02  9.43949E+01 -1.00000E+00  1.24965E-01
       1    -1     0     0   502     0  0.000000000E+00  0.000000000E+00  2.181028347E+03  2.181028347E+03  0.000000000E+00  0.00000E+00  9.000E+00
      21    -1     0     0   501   502  0.000000000E+00  0.000000000E+00 -2.255629491E+02  2.255629491E+02  0.000000000E+00  0.00000E+00  9.000E+00
      25     1     1     2     0     0 -3.187822266E+02 -3.534032688E+02  1.003134044E+03  1.117326670E+03  1.250000000E+02  0.00000E+00  9.000E+00
      25     1     1     2     0     0  4.120528383E+02  3.388777117E+02  2.894635211E+02  6.197094280E+02  1.250000000E+02  0.00000E+00  9.000E+00
       1     1     1     2   501     0 -9.327061170E+01  1.452555703E+01  6.628678328E+02  6.695551975E+02  1.321449896E-05  0.00000E+00  9.000E+00
#rwgt            1           1   2.9563216379698807E-002           6      285476           0
</event>
<event>
      5   9999  3.19816E-02  3.18022E+02 -1.00000E+00  1.04775E-01
      21    -1     0     0   502   501  0.000000000E+00  0.000000000E+00  2.144407680E+03  2.144407680E+03  0.000000000E+00  0.00000E+00  9.000E+00
      21    -1     0     0   501   511  0.000000000E+00  0.000000000E+00 -6.080405251E+02  6.080405251E+02  0.000000000E+00  0.00000E+00  9.000E+00
      25     1     1     2     0     0 -7.325372979E+02 -2.346352939E+02  1.500752596E+03  1.691019801E+03  1.250000000E+02  0.00000E+00  9.000E+00
      25     1     1     2     0     0  4.491642284E+02  3.789888482E+02  2.775440660E+02  6.618434556E+02  1.250000000E+02  0.00000E+00  9.000E+00
      21     1     1     2   502   511  2.833730694E+02 -1.443535543E+02 -2.419295064E+02  3.995849487E+02  8.529922400E-06  0.00000E+00  9.000E+00
#rwgt            2          11   3.9730552252596587E-003           6      285626           0
</event>
<event>
      5   9999  3.19816E-02  9.45250E+01 -1.00000E+00  1.24938E-01
       2    -1     0     0   502     0  0.000000000E+00  0.000000000E+00  9.317540937E+02  9.317540937E+02  0.000000000E+00  0.00000E+00  9.000E+00
      21    -1     0     0   501   502  0.000000000E+00  0.000000000E+00 -7.392170789E+02  7.392170789E+02  0.000000000E+00  0.00000E+00  9.000E+00
      25     1     1     2     0     0  6.841720108E+02  2.934507942E+02 -6.309896394E+01  7.575032596E+02  1.250000000E+02  0.00000E+00  9.000E+00
      25     1     1     2     0     0 -6.480716758E+02 -2.060909875E+02  5.736812950E+01  6.938202176E+02  1.250000000E+02  0.00000E+00  9.000E+00
       2     1     1     2   501     0 -3.610033503E+01 -8.735980675E+01  1.982678493E+02  2.196476954E+02  0.000000000E+00  0.00000E+00  9.000E+00
#rwgt            1           1   2.8522420184610191E-002           6      285661           0
</event>
<event>
      5   9999  3.19816E-02  4.09126E+01 -1.00000E+00  1.44235E-01
      21    -1     0     0   511   501  0.000000000E+00  0.000000000E+00  3.880538882E+02  3.880538882E+02  0.000000000E+00  0.00000E+00  9.000E+00
      21    -1     0     0   501   502  0.000000000E+00  0.000000000E+00 -7.262109381E+02  7.262109381E+02  0.000000000E+00  0.00000E+00  9.000E+00
      25     1     1     2     0     0 -4.647825551E+02  2.551993517E+00 -2.659762548E+02  5.499069960E+02  1.250000000E+02  0.00000E+00  9.000E+00
      25     1     1     2     0     0  4.729322388E+02 -4.264467351E+01 -1.158587060E+02  5.045113581E+02  1.250000000E+02  0.00000E+00  9.000E+00
      21     1     1     2   511   502 -8.149683717E+00  4.009267999E+01  4.367791083E+01  5.984647215E+01  9.536743164E-07  0.00000E+00  9.000E+00
#rwgt            1           1   2.8397512378556884E-002           6      285754           0
</event>
<event>
      5   9999  3.19816E-02  1.17168E+02 -1.00000E+00  1.20810E-01
      21    -1     0     0   502   501  0.000000000E+00  0.000000000E+00  2.130948708E+02  2.130948708E+02  0.000000000E+00  0.00000E+00  9.000E+00
       2    -1     0     0   501     0  0.000000000E+00  0.000000000E+00 -2.959200764E+03  2.959200764E+03  0.000000000E+00  0.00000E+00  9.000E+00
      25     1     1     2     0     0 -6.970930656E+02  2.102901672E+02 -8.523549439E+02  1.127960392E+03  1.250000000E+02  0.00000E+00  9.000E+00
      25     1     1     2     0     0  6.148379461E+02 -1.268490083E+02 -1.442981933E+03  1.578587416E+03  1.250000000E+02  0.00000E+00  9.000E+00
       2     1     1     2   502     0  8.225511956E+01 -8.344115891E+01 -4.507690164E+02  4.657478265E+02  5.394796609E-06  0.00000E+00  9.000E+00
#rwgt            1           1   3.3407079732345225E-002           6      285918           0
</event>
<event>
      5   9999  3.19816E-02  5.14344E+01 -1.00000E+00  1.38378E-01
      21    -1     0     0   502   501  0.000000000E+00  0.000000000E+00  4.380511347E+02  4.380511347E+02  0.000000000E+00  0.00000E+00  9.000E+00
      21    -1     0     0   501   511  0.000000000E+00  0.000000000E+00 -6.335461372E+02  6.335461372E+02  0.000000000E+00  0.00000E+00  9.000E+00
      25     1     1     2     0     0 -3.709163701E+02 -2.615846668E+02  1.055863998E+01  4.708948676E+02  1.250000000E+02  0.00000E+00  9.000E+00
      25     1     1     2     0     0  3.197729771E+02  2.561211790E+02 -4.389998027E+01  4.305868362E+02  1.250000000E+02  0.00000E+00  9.000E+00
      21     1     1     2   502   511  5.114339297E+01  5.463487797E+00 -1.621536622E+02  1.701155680E+02  0.000000000E+00  0.00000E+00  9.000E+00
#rwgt            1           1   3.1774109026197220E-002           6      286032           0
</event>
<event>
      5   9999  3.19816E-02  1.48581E+02 -1.00000E+00  1.16557E-01
      21    -1     0     0   502   512  0.000000000E+00  0.000000000E+00  6.005843212E+02  6.005843212E+02  0.000000000E+00  0.00000E+00  9.000E+00
      21    -1     0     0   501   502  0.000000000E+00  0.000000000E+00 -4.012633212E+02  4.012633212E+02  0.000000000E+00  0.00000E+00  9.000E+00
      25     1     1     2     0     0  1.075175159E+02  1.599667999E+02  3.657689718E+02  4.319274638E+02  1.250000000E+02  0.00000E+00  9.000E+00
      25     1     1     2     0     0 -2.311922282E+02 -2.423128917E+02 -2.106214356E+02  4.149117653E+02  1.250000000E+02  0.00000E+00  9.000E+00
      21     1     1     2   501   512  1.236747123E+02  8.234609178E+01  4.417346386E+01  1.550084133E+02  1.907348633E-06  0.00000E+00  9.000E+00
#rwgt            1           1   2.9115314418610400E-002           6      286185           0
</event>
<event>
      5   9999  3.19816E-02  6.07096E+01 -1.00000E+00  1.34431E-01
      21    -1     0     0   502   511  0.000000000E+00  0.000000000E+00  1.690392567E+03  1.690392567E+03  0.000000000E+00  0.00000E+00  9.000E+00
      21    -1     0     0   501   502  0.000000000E+00  0.000000000E+00 -7.249462502E+02  7.249462502E+02  0.000000000E+00  0.00000E+00  9.000E+00
      25     1     1     2     0     0 -5.724840541E+02  7.805597323E+02 -7.739899497E+01  9.790950374E+02  1.250000000E+02  0.00000E+00  9.000E+00
      25     1     1     2     0     0  5.160079741E+02 -7.582863648E+02  9.607494900E+02  1.334139057E+03  1.250000000E+02  0.00000E+00  9.000E+00
      21     1     1     2   501   511  5.647608006E+01 -2.227336744E+01  8.209582201E+01  1.021047232E+02  1.651812370E-06  0.00000E+00  9.000E+00
#rwgt            2          11   3.0053483392443035E-002           6      286237           0
</event>
<event>
      5   9999  3.19816E-02  2.72716E+01 -1.00000E+00  1.55973E-01
      21    -1     0     0   502   501  0.000000000E+00  0.000000000E+00  1.610159725E+03  1.610159725E+03  0.000000000E+00  0.00000E+00  9.000E+00
      21    -1     0     0   512   502  0.000000000E+00  0.000000000E+00 -3.946669540E+02  3.946669540E+02  0.000000000E+00  0.00000E+00  9.000E+00
      25     1     1     2     0     0  4.578716552E+02 -3.394636073E+02 -5.424474071E+01  5.860456341E+02  1.250000000E+02  0.00000E+00  9.000E+00
      25     1     1     2     0     0 -4.325047017E+02  3.494764641E+02  1.269438810E+03  1.391507819E+03  1.250000000E+02  0.00000E+00  9.000E+00
      21     1     1     2   512   501 -2.536695344E+01 -1.001285676E+01  2.987009675E-01  2.727322587E+01  1.221986075E-07  0.00000E+00  9.000E+00
#rwgt            1           1   2.8166651769821423E-002           6      286257           0
</event>
<event>
      5   9999  3.19816E-02  2.28728E+02 -1.00000E+00  1.09566E-01
      21    -1     0     0   511   501  0.000000000E+00  0.000000000E+00  8.190870618E+02  8.190870618E+02  0.000000000E+00  0.00000E+00  9.000E+00
      21    -1     0     0   501   502  0.000000000E+00  0.000000000E+00 -3.170572184E+02  3.170572184E+02  0.000000000E+00  0.00000E+00  9.000E+00
      25     1     1     2     0     0  8.580939922E+01 -1.839148211E+02 -9.281203422E+01  2.557869975E+02  1.250000000E+02  0.00000E+00  9.000E+00
      25     1     1     2     0     0 -3.026199615E+02  2.567835111E+02  4.303912992E+02  5.986470438E+02  1.250000000E+02  0.00000E+00  9.000E+00
      21     1     1     2   511   502  2.168105623E+02 -7.286869006E+01  1.644505785E+02  2.817102389E+02  4.264961200E-06  0.00000E+00  9.000E+00
#rwgt            2          11   3.6844957277311803E-003           6      286461           0
</event>
<event>
      5   9999  3.19816E-02  5.19613E+01 -1.00000E+00  1.38129E-01
      21    -1     0     0   502   501  0.000000000E+00  0.000000000E+00  6.385495806E+02  6.385495806E+02  0.000000000E+00  0.00000E+00  9.000E+00
       3    -1     0     0   501     0  0.000000000E+00  0.000000000E+00 -4.288813796E+02  4.288813796E+02  0.000000000E+00  0.00000E+00  9.000E+00
      25     1     1     2     0     0 -2.115785876E+01  5.489425569E+01  4.539181536E+02  4.744762634E+02  1.250000000E+02  0.00000E+00  9.000E+00
      25     1     1     2     0     0  4.353182993E+01 -1.017917872E+02  1.321754136E+02  2.129599214E+02  1.250000000E+02  0.00000E+00  9.000E+00
       3     1     1     2   502     0 -2.237397118E+01  4.689753148E+01 -3.764253662E+02  3.799947755E+02  0.000000000E+00  0.00000E+00  9.000E+00
#rwgt            2          14   4.9046881376658535E-004           6      286496           0
</event>
<event>
      5   9999  4.06297E-02  1.23943E+02 -1.00000E+00  1.19775E-01
       1    -1     0     0   502     0  0.000000000E+00  0.000000000E+00  4.064347469E+03  4.064347469E+03  0.000000000E+00  0.00000E+00  9.000E+00
      21    -1     0     0   501   502  0.000000000E+00  0.000000000E+00 -6.971164623E+01  6.971164623E+01  0.000000000E+00  0.00000E+00  9.000E+00
      25     1     1     2     0     0  3.070936945E+01 -2.417351070E+02  1.577050626E+03  1.600653805E+03  1.250000000E+02  0.00000E+00  9.000E+00
      25     1     1     2     0     0 -3.487230903E+01  3.656079725E+02  6.188232710E+02  7.303783322E+02  1.250000000E+02  0.00000E+00  9.000E+00
       1     1     1     2   501     0  4.162939578E+00 -1.238728655E+02  1.798761926E+03  1.803026978E+03  2.157918644E-05  0.00000E+00  9.000E+00
#rwgt            1           1  0.11724926892196287                6      286545           0
</event>
<event>
      5   9999  3.19816E-02  2.00949E+02 -1.00000E+00  1.11573E-01
      21    -1     0     0   502   501  0.000000000E+00  0.000000000E+00  3.819516668E+02  3.819516668E+02  0.000000000E+00  0.00000E+00  9.000E+00
       2    -1     0     0   501     0  0.000000000E+00  0.000000000E+00 -1.874744456E+03  1.874744456E+03  0.000000000E+00  0.00000E+00  9.000E+00
      25     1     1     2     0     0  4.826867511E+01  3.232334326E+02  9.829192426E+01  3.634501607E+02  1.250000000E+02  0.00000E+00  9.000E+00
      25     1     1     2     0     0 -1.325545234E+02 -1.408156367E+02  5.352105395E+01  2.364090701E+02  1.250000000E+02  0.00000E+00  9.000E+00
       2     1     1     2   502     0  8.428584824E+01 -1.824177959E+02 -1.644605767E+03  1.656836892E+03  2.157918644E-05  0.00000E+00  9.000E+00
#rwgt            1           1   2.9852568925953130E-002           6      286607           0
</event>
<event>
      5   9999  3.19816E-02  1.14718E+02 -1.00000E+00  1.21204E-01
      21    -1     0     0   502   511  0.000000000E+00  0.000000000E+00  2.445277803E+03  2.445277803E+03  0.000000000E+00  0.00000E+00  9.000E+00
      21    -1     0     0   501   502  0.000000000E+00  0.000000000E+00 -1.592039418E+02  1.592039418E+02  0.000000000E+00  0.00000E+00  9.000E+00
      25     1     1     2     0     0 -3.101197401E+02 -3.002325899E+02  1.741563163E+03  1.798605324E+03  1.250000000E+02  0.00000E+00  9.000E+00
      25     1     1     2     0     0  1.955997504E+02  3.069652276E+02  1.821346414E+02  4.257756932E+02  1.250000000E+02  0.00000E+00  9.000E+00
      21     1     1     2   501   511  1.145199897E+02 -6.732637699E+00  3.623760569E+02  3.801007275E+02  5.394796609E-06  0.00000E+00  9.000E+00
#rwgt            1           1   2.7173155453812787E-002           6      286664           0
</event>
<event>
      5   9999  3.19816E-02  7.58760E+01 -1.00000E+00  1.29472E-01
      21    -1     0     0   502   512  0.000000000E+00  0.000000000E+00  1.995697457E+02  1.995697457E+02  0.000000000E+00  0.00000E+00  9.000E+00
      21    -1     0     0   501   502  0.000000000E+00  0.000000000E+00 -6.572408588E+02  6.572408588E+02  0.000000000E+00  0.00000E+00  9.000E+00
      25     1     1     2     0     0  1.513551100E+00  2.518588794E+02 -2.559802198E+02  3.802447355E+02  1.250000000E+02  0.00000E+00  9.000E+00
      25     1     1     2     0     0 -1.560312785E+01 -3.264152462E+02 -1.946095266E+02  4.003601359E+02  1.250000000E+02  0.00000E+00  9.000E+00
      21     1     1     2   501   512  1.408957675E+01  7.455636681E+01 -7.081366735E+00  7.620573312E+01  4.539354507E-07  0.00000E+00  9.000E+00
#rwgt            1           1   3.1206008613123074E-002           6      286734           0
</event>
<event>
      5   9999  3.19816E-02  9.16485E+01 -1.00000E+00  1.25556E-01
      21    -1     0     0   511   501  0.000000000E+00  0.000000000E+00  2.578432426E+03  2.578432426E+03  0.000000000E+00  0.00000E+00  9.000E+00
      21    -1     0     0   501   502  0.000000000E+00  0.000000000E+00 -1.247533383E+02  1.247533383E+02  0.000000000E+00  0.00000E+00  9.000E+00
      25     1     1     2     0     0  3.140078126E+02  2.491845247E+02  4.707002570E+02  6.307753686E+02  1.250000000E+02  0.00000E+00  9.000E+00
      25     1     1     2     0     0 -2.313895700E+02 -2.888541431E+02  8.470417972E+02  9.327822121E+02  1.250000000E+02  0.00000E+00  9.000E+00
      21     1     1     2   511   502 -8.261824260E+01  3.966961841E+01  1.135937034E+03  1.139628184E+03  0.000000000E+00  0.00000E+00  9.000E+00
#rwgt            1           1   2.3485206013289447E-002           6      286833           0
</event>
<event>
      5   9999  3.25303E-02  5.52682E+01 -1.00000E+00  1.36638E-01
      21    -1     0     0   502   512  0.000000000E+00  0.000000000E+00  9.693696640E+02  9.693696640E+02  0.000000000E+00  0.00000E+00  9.000E+00
      21    -1     0     0   501   502  0.000000000E+00  0.000000000E+00 -6.898702562E+01  6.898702562E+01  0.000000000E+00  0.00000E+00  9.000E+00
      25     1     1     2     0     0  2.807801420E+01 -4.941756515E+01  7.076127406E+02  7.208129170E+02  1.250000000E+02  0.00000E+00  9.000E+00
      25     1     1     2     0     0 -4.280374699E+01  1.026878373E+02  6.715903900E+01  1.803116447E+02  1.250000000E+02  0.00000E+00  9.000E+00
      21     1     1     2   501   512  1.472573279E+01 -5.327027215E+01  1.256108587E+02  1.372321279E+02  1.907348633E-06  0.00000E+00  9.000E+00
#rwgt            1           1   2.8017997289341061E-002           6      286912           0
</event>
<event>
      5   9999  3.19816E-02  1.22242E+01 -1.00000E+00  1.86187E-01
      21    -1     0     0   511   501  0.000000000E+00  0.000000000E+00  4.481260876E+01  4.481260876E+01  0.000000000E+00  0.00000E+00  9.000E+00
      21    -1     0     0   501   502  0.000000000E+00  0.000000000E+00 -1.004642282E+03  1.004642282E+03  0.000000000E+00  0.00000E+00  9.000E+00
      25     1     1     2     0     0  8.279316061E+01  3.942155580E+01 -7.984746947E+02  8.133852744E+02  1.250000000E+02  0.00000E+00  9.000E+00
      25     1     1     2     0     0 -9.012207494E+01 -2.963796795E+01 -1.349440586E+02  2.069668971E+02  1.250000000E+02  0.00000E+00  9.000E+00
      21     1     1     2   511   502  7.328914330E+00 -9.783587849E+00 -2.641091955E+01  2.910271891E+01  3.371747881E-07  0.00000E+00  9.000E+00
#rwgt            1           1   3.0915582108654437E-002           6      286978           0
</event>
<event>
      5   9999  3.19816E-02  9.42897E+01 -1.00000E+00  1.24987E-01
      21    -1     0     0   512   501  0.000000000E+00  0.000000000E+00  3.911575408E+03  3.911575408E+03  0.000000000E+00  0.00000E+00  9.000E+00
      21    -1     0     0   501   502  0.000000000E+00  0.000000000E+00 -6.647725786E+01  6.647725786E+01  0.000000000E+00  0.00000E+00  9.000E+00
      25     1     1     2     0     0 -1.531023591E+02  3.578626670E+02  1.160784339E+03  1.230671078E+03  1.250000000E+02  0.00000E+00  9.000E+00
      25     1     1     2     0     0  1.434061758E+02 -4.516525015E+02  2.305024298E+03  2.356547757E+03  1.250000000E+02  0.00000E+00  9.000E+00
      21     1     1     2   512   502  9.696183297E+00  9.378983446E+01  3.792895126E+02  3.908338309E+02  5.394796609E-06  0.00000E+00  9.000E+00
#rwgt            1           1   2.1659615394223307E-002           6      287132           0
</event>
<event>
      5   9999  3.19816E-02  1.26522E+02 -1.00000E+00  1.19401E-01
      21    -1     0     0   502   501  0.000000000E+00  0.000000000E+00  3.342640488E+02  3.342640488E+02  0.000000000E+00  0.00000E+00  9.000E+00
       2    -1     0     0   501     0  0.000000000E+00  0.000000000E+00 -1.859364080E+03  1.859364080E+03  0.000000000E+00  0.00000E+00  9.000E+00
      25     1     1     2     0     0  1.209217704E+02 -6.847345001E+01 -1.542559083E+02  2.423439150E+02  1.250000000E+02  0.00000E+00  9.000E+00
      25     1     1     2     0     0 -2.298088439E+02  1.329044621E+02  2.128782764E+02  3.625160153E+02  1.250000000E+02  0.00000E+00  9.000E+00
       2     1     1     2   502     0  1.088870735E+02 -6.443101214E+01 -1.583722400E+03  1.588768199E+03  3.051757812E-05  0.00000E+00  9.000E+00
#rwgt            1           1   2.6809353419952678E-002           6      287194           0
</event>
<event>
      5   9999  3.19816E-02  2.11677E+01 -1.00000E+00  1.64361E-01
      21    -1     0     0   511   501  0.000000000E+00  0.000000000E+00  2.550971418E+02  2.550971418E+02  0.000000000E+00  0.00000E+00  9.000E+00
      21    -1     0     0   501   502  0.000000000E+00  0.000000000E+00 -3.834165703E+02  3.834165703E+02  0.000000000E+00  0.00000E+00  9.000E+00
      25     1     1     2     0     0  9.241397772E+01  2.581612817E+02 -1.187970910E+02  3.239218107E+02  1.250000000E+02  0.00000E+00  9.000E+00
      25     1     1     2     0     0 -7.252534661E+01 -2.509145000E+02 -2.135223137E+01  2.903427802E+02  1.250000000E+02  0.00000E+00  9.000E+00
      21     1     1     2   511   502 -1.988863111E+01 -7.246781653E+00  1.182989389E+01  2.424912124E+01  3.371747881E-07  0.00000E+00  9.000E+00
#rwgt            1           1   2.7372323858662735E-002           6      287251           0
</event>
<event>
      5   9999  3.19816E-02  7.80194E+01 -1.00000E+00  1.28879E-01
      21    -1     0     0   502   512  0.000000000E+00  0.000000000E+00  1.156410871E+03  1.156410871E+03  0.000000000E+00  0.00000E+00  9.000E+00
      21    -1     0     0   501   502  0.000000000E+00  0.000000000E+00 -3.257373674E+02  3.257373674E+02  0.000000000E+00  0.00000E+00  9.000E+00
      25     1     1     2     0     0 -4.115412269E+02 -2.843922019E+02  7.744938302E+02  9.304358113E+02  1.250000000E+02  0.00000E+00  9.000E+00
      25     1     1     2     0     0  3.831808249E+02  2.117099078E+02 -5.076597394E-01  4.552734204E+02  1.250000000E+02  0.00000E+00  9.000E+00
      21     1     1     2   501   512  2.836040207E+01  7.268229413E+01  5.668733316E+01  9.643900677E+01  2.236564522E-06  0.00000E+00  9.000E+00
#rwgt            1           1   2.8690639922398700E-002           6      287407           0
</event>
<event>
      5   9999  3.19816E-02  7.35684E+01 -1.00000E+00  1.30136E-01
      21    -1     0     0   511   501  0.000000000E+00  0.000000000E+00  8.191993969E+01  8.191993969E+01  0.000000000E+00  0.00000E+00  9.000E+00
      21    -1     0     0   501   502  0.000000000E+00  0.000000000E+00 -4.638055632E+02  4.638055632E+02  0.000000000E+00  0.00000E+00  9.000E+00
      25     1     1     2     0     0  4.421393505E+01  6.181720332E+01 -2.508993188E+02  2.904336531E+02  1.250000000E+02  0.00000E+00  9.000E+00
      25     1     1     2     0     0 -7.373822176E+01  5.567006182E+00 -8.033559626E+01  1.659732657E+02  1.250000000E+02  0.00000E+00  9.000E+00
      21     1     1     2   511   502  2.952428671E+01 -6.738420951E+01 -5.065070851E+01  8.931858412E+01  1.507891493E-06  0.00000E+00  9.000E+00
#rwgt            1           1   6.6591622528309233E-002           6      287517           0
</event>
<event>
      5   9999  3.19816E-02  4.24572E+01 -1.00000E+00  1.43252E-01
      21    -1     0     0   512   501  0.000000000E+00  0.000000000E+00  1.615556504E+02  1.615556504E+02  0.000000000E+00  0.00000E+00  9.000E+00
      21    -1     0     0   501   502  0.000000000E+00  0.000000000E+00 -1.856980220E+02  1.856980220E+02  0.000000000E+00  0.00000E+00  9.000E+00
      25     1     1     2     0     0  8.202580276E+01  2.673495716E+01 -4.638059756E+01  1.588053843E+02  1.250000000E+02  0.00000E+00  9.000E+00
      25     1     1     2     0     0 -4.163949669E+01 -3.983319957E+01 -5.466794635E+00  1.377512879E+02  1.250000000E+02  0.00000E+00  9.000E+00
      21     1     1     2   512   502 -4.038630607E+01  1.309824241E+01  2.770502057E+01  5.069700028E+01  7.539457465E-07  0.00000E+00  9.000E+00
#rwgt            1           1   3.6760705076743325E-002           6      287620           0
</event>
<event>
      5   9999  3.19816E-02  4.28318E+01 -1.00000E+00  1.43022E-01
      21    -1     0     0   502   501  0.000000000E+00  0.000000000E+00  2.606146685E+03  2.606146685E+03  0.000000000E+00  0.00000E+00  9.000E+00
      21    -1     0     0   501   511  0.000000000E+00  0.000000000E+00 -6.615637094E+01  6.615637094E+01  0.000000000E+00  0.00000E+00  9.000E+00
      25     1     1     2     0     0  2.638579633E+02 -1.673686847E+02  5.253005363E+02  6.238581208E+02  1.250000000E+02  0.00000E+00  9.000E+00
      25     1     1     2     0     0 -2.246565835E+02  1.846260337E+02  1.896551535E+03  1.922781859E+03  1.250000000E+02  0.00000E+00  9.000E+00
      21     1     1     2   502   511 -3.920137985E+01 -1.725734899E+01  1.181382429E+02  1.256630762E+02  1.907348633E-06  0.00000E+00  9.000E+00
#rwgt            1           1   7.5385473112969961E-002           6      287700           0
</event>
<event>
      5   9999  3.19816E-02  1.99279E+02 -1.00000E+00  1.11705E-01
      21    -1     0     0   512   501  0.000000000E+00  0.000000000E+00  8.034821871E+02  8.034821871E+02  0.000000000E+00  0.00000E+00  9.000E+00
      21    -1     0     0   501   502  0.000000000E+00  0.000000000E+00 -2.869267473E+02  2.869267473E+02  0.000000000E+00  0.00000E+00  9.000E+00
      25     1     1     2     0     0  2.487299250E+02 -1.952617562E+02  1.197340295E+02  3.604926724E+02  1.250000000E+02  0.00000E+00  9.000E+00
      25     1     1     2     0     0 -1.266982043E+02  3.528070336E+02  1.763314536E+02  4.327158646E+02  1.250000000E+02  0.00000E+00  9.000E+00
      21     1     1     2   512   502 -1.220317208E+02 -1.575452773E+02  2.204899567E+02  2.972003975E+02  2.697398305E-06  0.00000E+00  9.000E+00
#rwgt            1           1   2.8656039204467663E-002           6      287845           0
</event>
<event>
      5   9999  3.19816E-02  4.47957E+01 -1.00000E+00  1.41855E-01
      21    -1     0     0   502   501  0.000000000E+00  0.000000000E+00  4.509267979E+02  4.509267979E+02  0.000000000E+00  0.00000E+00  9.000E+00
      21    -1     0     0   501   511  0.000000000E+00  0.000000000E+00 -1.781043828E+02  1.781043828E+02  0.000000000E+00  0.00000E+00  9.000E+00
      25     1     1     2     0     0 -8.466642892E+01 -4.946427150E+01 -7.640777087E+01  1.762902884E+02  1.250000000E+02  0.00000E+00  9.000E+00
      25     1     1     2     0     0  7.381284974E+01  6.003300990E+00  3.742279455E+02  4.014423142E+02  1.250000000E+02  0.00000E+00  9.000E+00
      21     1     1     2   502   511  1.085357919E+01  4.346097051E+01 -2.499775951E+01  5.129857814E+01  1.011524364E-06  0.00000E+00  9.000E+00
#rwgt            1           1   2.5472805681468154E-002           6      287883           0
</event>
<event>
      5   9999  3.19816E-02  1.26238E+02 -1.00000E+00  1.19442E-01
      21    -1     0     0   502   501  0.000000000E+00  0.000000000E+00  6.245590262E+02  6.245590262E+02  0.000000000E+00  0.00000E+00  9.000E+00
      21    -1     0     0   501   512  0.000000000E+00  0.000000000E+00 -3.581296912E+02  3.581296912E+02  0.000000000E+00  0.00000E+00  9.000E+00
      25     1     1     2     0     0 -2.237405181E+02 -3.040128944E+02  3.266154964E+02  5.145739421E+02  1.250000000E+02  0.00000E+00  9.000E+00
      25     1     1     2     0     0  9.770484212E+01  2.968740219E+02 -5.978360559E+01  3.418764405E+02  1.250000000E+02  0.00000E+00  9.000E+00
      21     1     1     2   502   512  1.260356760E+02  7.138872420E+00 -4.025557880E-01  1.262383348E+02  2.312730305E-06  0.00000E+00  9.000E+00
#rwgt            1           1   2.6629612364928917E-002           6      288034           0
</event>
<event>
      5   9999  3.19816E-02  1.86552E+02 -1.00000E+00  1.12760E-01
      21    -1     0     0   502   501  0.000000000E+00  0.000000000E+00  3.053420604E+02  3.053420604E+02  0.000000000E+00  0.00000E+00  9.000E+00
      21    -1     0     0   501   511  0.000000000E+00  0.000000000E+00 -1.049450265E+03  1.049450265E+03  0.000000000E+00  0.00000E+00  9.000E+00
      25     1     1     2     0     0 -2.621202230E+02 -3.284084558E+02 -1.243586983E+02  4.556854299E+02  1.250000000E+02  0.00000E+00  9.000E+00
      25     1     1     2     0     0  8.121452203E+01  2.828600574E+02 -8.223676951E+01  3.301416316E+02  1.250000000E+02  0.00000E+00  9.000E+00
      21     1     1     2   502   511  1.809057010E+02  4.554839849E+01 -5.375127371E+02  5.689652641E+02  7.629394531E-06  0.00000E+00  9.000E+00
#rwgt            1           1   2.7456069953844885E-002           6      288121           0
</event>
<event>
      5   9999  3.19816E-02  1.78732E+01 -1.00000E+00  1.70501E-01
      21    -1     0     0   512   501  0.000000000E+00  0.000000000E+00  6.855368510E+01  6.855368510E+01  0.000000000E+00  0.00000E+00  9.000E+00
      21    -1     0     0   501   502  0.000000000E+00  0.000000000E+00 -8.801706653E+02  8.801706653E+02  0.000000000E+00  0.00000E+00  9.000E+00
      25     1     1     2     0     0 -4.842076593E+01  1.743500832E+02 -2.499498308E+02  3.329300827E+02  1.250000000E+02  0.00000E+00  9.000E+00
      25     1     1     2     0     0  6.292902381E+01 -1.847886021E+02 -5.403800459E+02  5.879987105E+02  1.250000000E+02  0.00000E+00  9.000E+00
      21     1     1     2   512   502 -1.450825788E+01  1.043851895E+01 -2.128710354E+01  2.779555723E+01  3.371747881E-07  0.00000E+00  9.000E+00
#rwgt            1           1   2.9340432542416590E-002           6      288266           0
</event>
<event>
      5   9999  3.19816E-02  1.34887E+02 -1.00000E+00  1.18251E-01
      21    -1     0     0   502   501  0.000000000E+00  0.000000000E+00  3.671429134E+02  3.671429134E+02  0.000000000E+00  0.00000E+00  9.000E+00
      21    -1     0     0   511   502  0.000000000E+00  0.000000000E+00 -8.978674060E+02  8.978674060E+02  0.000000000E+00  0.00000E+00  9.000E+00
      25     1     1     2     0     0 -1.849245387E+02 -2.515817779E+02  1.810474883E+02  3.819602977E+02  1.250000000E+02  0.00000E+00  9.000E+00
      25     1     1     2     0     0  3.023731600E+02  1.852468507E+02 -5.990171964E+02  7.072429039E+02  1.250000000E+02  0.00000E+00  9.000E+00
      21     1     1     2   511   501 -1.174486213E+02  6.633492717E+01 -1.127547846E+02  1.758071178E+02  1.907348633E-06  0.00000E+00  9.000E+00
#rwgt            1           1   2.6786253840612395E-002           6      288424           0
</event>
<event>
      5   9999  3.19816E-02  6.23836E+01 -1.00000E+00  1.33805E-01
      -1    -1     0     0     0   501  0.000000000E+00  0.000000000E+00  1.947472373E+03  1.947472373E+03  0.000000000E+00  0.00000E+00  9.000E+00
      21    -1     0     0   501   502  0.000000000E+00  0.000000000E+00 -1.966691503E+02  1.966691503E+02  0.000000000E+00  0.00000E+00  9.000E+00
      25     1     1     2     0     0 -2.590860449E+01 -3.642083103E+02  6.211018266E+01  3.908984828E+02  1.250000000E+02  0.00000E+00  9.000E+00
      25     1     1     2     0     0 -2.996244348E+01  3.364569680E+02  1.021467671E+03  1.083107678E+03  1.250000000E+02  0.00000E+00  9.000E+00
      -1     1     1     2     0   502  5.587104797E+01  2.775134231E+01  6.672253687E+02  6.701353622E+02  7.629394531E-06  0.00000E+00  9.000E+00
#rwgt            1           1   2.7760559224155101E-002           6      288505           0
</event>
<event>
      5   9999  3.19816E-02  4.44430E+01 -1.00000E+00  1.42059E-01
      21    -1     0     0   502   501  0.000000000E+00  0.000000000E+00  7.018726674E+02  7.018726674E+02  0.000000000E+00  0.00000E+00  9.000E+00
      21    -1     0     0   501   511  0.000000000E+00  0.000000000E+00 -6.459448435E+02  6.459448435E+02  0.000000000E+00  0.00000E+00  9.000E+00
      25     1     1     2     0     0  4.703386783E+02  4.322339055E+02  9.672943070E+01  6.580472658E+02  1.250000000E+02  0.00000E+00  9.000E+00
      25     1     1     2     0     0 -4.872677197E+02 -3.911414329E+02 -1.300498039E+01  6.373504379E+02  1.250000000E+02  0.00000E+00  9.000E+00
      21     1     1     2   502   511  1.692904150E+01 -4.109247256E+01 -2.779662635E+01  5.241980717E+01  3.371747881E-07  0.00000E+00  9.000E+00
#rwgt            1           1   3.0754214167973564E-002           6      288605           0
</event>
<event>
      5   9999  3.19816E-02  6.20728E+01 -1.00000E+00  1.33920E-01
      21    -1     0     0   502   501  0.000000000E+00  0.000000000E+00  2.573428969E+02  2.573428969E+02  0.000000000E+00  0.00000E+00  9.000E+00
      21    -1     0     0   512   502  0.000000000E+00  0.000000000E+00 -3.405499035E+02  3.405499035E+02  0.000000000E+00  0.00000E+00  9.000E+00
      25     1     1     2     0     0  1.430827146E+02 -1.382839777E+02  1.787721791E+00  2.349964205E+02  1.250000000E+02  0.00000E+00  9.000E+00
      25     1     1     2     0     0 -8.970018844E+01  1.699595337E+02  3.099690069E+01  2.313399549E+02  1.250000000E+02  0.00000E+00  9.000E+00
      21     1     1     2   512   501 -5.338252613E+01 -3.167555604E+01 -1.159916291E+02  1.315564250E+02  0.000000000E+00  0.00000E+00  9.000E+00
#rwgt            1           1   2.7677348546201644E-002           6      288733           0
</event>
<event>
      5   9999  3.19816E-02  1.34240E+02 -1.00000E+00  1.18337E-01
       2    -1     0     0   502     0  0.000000000E+00  0.000000000E+00  3.394597641E+03  3.394597641E+03  0.000000000E+00  0.00000E+00  9.000E+00
      21    -1     0     0   501   502  0.000000000E+00  0.000000000E+00 -2.423758186E+03  2.423758186E+03  0.000000000E+00  0.00000E+00  9.000E+00
      25     1     1     2     0     0  1.802451168E+02  2.641812153E+02 -1.579202310E+03  1.616101776E+03  1.250000000E+02  0.00000E+00  9.000E+00
      25     1     1     2     0     0 -3.140867750E+02 -2.745213750E+02 -7.672652109E+02  8.822320508E+02  1.250000000E+02  0.00000E+00  9.000E+00
       2     1     1     2   501     0  1.338416582E+02  1.034015971E+01  3.317306976E+03  3.320022000E+03  0.000000000E+00  0.00000E+00  9.000E+00
#rwgt            1           1   9.3182373209339558E-002           6      288803           0
</event>
<event>
      5   9999  3.19816E-02  4.36203E+01 -1.00000E+00  1.42544E-01
      21    -1     0     0   502   501  0.000000000E+00  0.000000000E+00  1.063551313E+03  1.063551313E+03  0.000000000E+00  0.00000E+00  9.000E+00
      21    -1     0     0   511   502  0.000000000E+00  0.000000000E+00 -1.873840707E+02  1.873840707E+02  0.000000000E+00  0.00000E+00  9.000E+00
      25     1     1     2     0     0 -1.134590538E+02 -3.839872357E+02  4.857344475E+02  6.417804201E+02  1.250000000E+02  0.00000E+00  9.000E+00
      25     1     1     2     0     0  1.546151419E+02  3.695335702E+02  3.753400222E+02  5.629973658E+02  1.250000000E+02  0.00000E+00  9.000E+00
      21     1     1     2   511   501 -4.115608811E+01  1.445366550E+01  1.509277231E+01  4.615759754E+01  7.907449699E-07  0.00000E+00  9.000E+00
#rwgt            1           1   3.1505193985380764E-002           6      288856           0
</event>
<event>
      5   9999  3.19816E-02  1.52538E+01 -1.00000E+00  1.76700E-01
      21    -1     0     0   512   501  0.000000000E+00  0.000000000E+00  1.022997042E+02  1.022997042E+02  0.000000000E+00  0.00000E+00  9.000E+00
      21    -1     0     0   501   502  0.000000000E+00  0.000000000E+00 -1.357831352E+03  1.357831352E+03  0.000000000E+00  0.00000E+00  9.000E+00
      25     1     1     2     0     0 -2.905638110E+02  5.861431588E+01 -5.317723849E+02  6.215061027E+02  1.250000000E+02  0.00000E+00  9.000E+00
      25     1     1     2     0     0  2.907082418E+02 -7.386740247E+01 -7.448209100E+02  8.126197530E+02  1.250000000E+02  0.00000E+00  9.000E+00
      21     1     1     2   512   502 -1.444307809E-01  1.525308658E+01  2.106164675E+01  2.600520091E+01  7.907449699E-07  0.00000E+00  9.000E+00
#rwgt            1           1   2.8348115508835224E-002           6      289038           0
</event>
<event>
      5   9999  3.19816E-02  2.11976E+01 -1.00000E+00  1.64312E-01
      21    -1     0     0   511   501  0.000000000E+00  0.000000000E+00  5.611495408E+02  5.611495408E+02  0.000000000E+00  0.00000E+00  9.000E+00
      21    -1     0     0   501   502  0.000000000E+00  0.000000000E+00 -3.932740585E+02  3.932740585E+02  0.000000000E+00  0.00000E+00  9.000E+00
      25     1     1     2     0     0 -3.166055236E+02  2.399647258E+02  9.887555801E+01  4.280461461E+02  1.250000000E+02  0.00000E+00  9.000E+00
      25     1     1     2     0     0  3.362109189E+02 -2.319044550E+02 -2.707667854E+01  4.279901924E+02  1.250000000E+02  0.00000E+00  9.000E+00
      21     1     1     2   511   502 -1.960539523E+01 -8.060270794E+00  9.607660283E+01  9.838726085E+01  0.000000000E+00  0.00000E+00  9.000E+00
#rwgt            1           1   2.9206738508107646E-002           6      289158           0
</event>
<event>
      5   9999  3.19816E-02  3.40517E+01 -1.00000E+00  1.49314E-01
      21    -1     0     0   502   501  0.000000000E+00  0.000000000E+00  5.514630147E+02  5.514630147E+02  0.000000000E+00  0.00000E+00  9.000E+00
      21    -1     0     0   501   512  0.000000000E+00  0.000000000E+00 -1.564846783E+02  1.564846783E+02  0.000000000E+00  0.00000E+00  9.000E+00
      25     1     1     2     0     0 -1.604323439E+02  1.711670639E+02  1.731154771E+02  3.172233742E+02  1.250000000E+02  0.00000E+00  9.000E+00
      25     1     1     2     0     0  1.288121192E+02 -1.838036369E+02  2.404953828E+02  3.519081814E+02  1.250000000E+02  0.00000E+00  9.000E+00
      21     1     1     2   502   512  3.162022476E+01  1.263657300E+01 -1.863252351E+01  3.881613741E+01  4.129530925E-07  0.00000E+00  9.000E+00
#rwgt            1           1   2.6061231144474530E-002           6      289355           0
</event>
<event>
      5   9999  3.19816E-02  1.95601E+01 -1.00000E+00  1.67170E-01
      21    -1     0     0   511   501  0.000000000E+00  0.000000000E+00  6.448295986E+02  6.448295986E+02  0.000000000E+00  0.00000E+00  9.000E+00
      21    -1     0     0   501   502  0.000000000E+00  0.000000000E+00 -2.507437460E+02  2.507437460E+02  0.000000000E+00  0.00000E+00  9.000E+00
      25     1     1     2     0     0  1.048053997E+02  1.701494777E+02 -1.593088845E+02  2.844983959E+02  1.250000000E+02  0.00000E+00  9.000E+00
      25     1     1     2     0     0 -9.799905661E+01 -1.518117333E+02  3.994302648E+02  4.558729581E+02  1.250000000E+02  0.00000E+00  9.000E+00
      21     1     1     2   511   502 -6.806343132E+00 -1.833774441E+01  1.539644722E+02  1.552019906E+02  1.907348633E-06  0.00000E+00  9.000E+00
#rwgt            1           1   2.8295322473380978E-002           6      289437           0
</event>
<event>
      5   9999  3.19816E-02  3.05547E+01 -1.00000E+00  1.52489E-01
      21    -1     0     0   502   501  0.000000000E+00  0.000000000E+00  6.257737432E+01  6.257737432E+01  0.000000000E+00  0.00000E+00  9.000E+00
      21    -1     0     0   512   502  0.000000000E+00  0.000000000E+00 -1.042924847E+03  1.042924847E+03  0.000000000E+00  0.00000E+00  9.000E+00
      25     1     1     2     0     0 -4.351807564E+01  1.192105200E+02 -1.170274400E+02  2.131323361E+02  1.250000000E+02  0.00000E+00  9.000E+00
      25     1     1     2     0     0  7.351231996E+01 -1.250356624E+02 -6.768178391E+02  7.033813798E+02  1.250000000E+02  0.00000E+00  9.000E+00
      21     1     1     2   512   501 -2.999424431E+01  5.825142340E+00 -1.865021935E+02  1.889885053E+02  0.000000000E+00  0.00000E+00  9.000E+00
#rwgt            1           1   2.9304077808930518E-002           6      289614           0
</event>
<event>
      5   9999  3.19816E-02  1.88274E+01 -1.00000E+00  1.68564E-01
      21    -1     0     0   502   501  0.000000000E+00  0.000000000E+00  1.845853784E+02  1.845853784E+02  0.000000000E+00  0.00000E+00  9.000E+00
      21    -1     0     0   511   502  0.000000000E+00  0.000000000E+00 -1.004384981E+03  1.004384981E+03  0.000000000E+00  0.00000E+00  9.000E+00
      25     1     1     2     0     0 -5.876598016E+01 -3.209171320E+02 -7.912287383E+01  3.582271279E+02  1.250000000E+02  0.00000E+00  9.000E+00
      25     1     1     2     0     0  7.753027903E+01  3.193775625E+02 -6.591639753E+02  7.470844115E+02  1.250000000E+02  0.00000E+00  9.000E+00
      21     1     1     2   511   501 -1.876429887E+01  1.539569470E+00 -8.151275376E+01  8.365882028E+01  1.348699152E-06  0.00000E+00  9.000E+00
#rwgt            1           1   2.8382859337283319E-002           6      289753           0
</event>
<event>
      5   9999  3.19816E-02  4.21667E+01 -1.00000E+00  1.43434E-01
      21    -1     0     0   502   512  0.000000000E+00  0.000000000E+00  3.405293846E+02  3.405293846E+02  0.000000000E+00  0.00000E+00  9.000E+00
      21    -1     0     0   501   502  0.000000000E+00  0.000000000E+00 -5.201249188E+02  5.201249188E+02  0.000000000E+00  0.00000E+00  9.000E+00
      25     1     1     2     0     0 -3.154501319E+01  1.857596459E+02 -3.790722757E+02  4.413870457E+02  1.250000000E+02  0.00000E+00  9.000E+00
      25     1     1     2     0     0  3.199261710E+01 -2.279239551E+02  5.349714458E+01  2.673196614E+02  1.250000000E+02  0.00000E+00  9.000E+00
      21     1     1     2   501   512 -4.476039069E-01  4.216430921E+01  1.459795969E+02  1.519475964E+02  1.907348633E-06  0.00000E+00  9.000E+00
#rwgt            1           1   2.8413058850414497E-002           6      289951           0
</event>
<event>
      5   9999  3.19816E-02  7.10725E+00 -1.00000E+00  2.14625E-01
      21    -1     0     0   502   501  0.000000000E+00  0.000000000E+00  3.274503242E+02  3.274503242E+02  0.000000000E+00  0.00000E+00  9.000E+00
      21    -1     0     0   511   502  0.000000000E+00  0.000000000E+00 -6.655652915E+02  6.655652915E+02  0.000000000E+00  0.00000E+00  9.000E+00
      25     1     1     2     0     0  2.201677581E+02  1.369206554E+02  1.993671068E+02  3.501333330E+02  1.250000000E+02  0.00000E+00  9.000E+00
      25     1     1     2     0     0 -2.240866591E+02 -1.428498400E+02 -3.570490967E+02  4.623093824E+02  1.250000000E+02  0.00000E+00  9.000E+00
      21     1     1     2   511   501  3.918901017E+00  5.929184550E+00 -1.804329774E+02  1.805729003E+02  0.000000000E+00  0.00000E+00  9.000E+00
#rwgt            1           1   2.9063750735939472E-002           6      290049           0
</event>
<event>
      5   9999  3.19816E-02  4.64221E+01 -1.00000E+00  1.40941E-01
      21    -1     0     0   502   501  0.000000000E+00  0.000000000E+00  5.167160591E+02  5.167160591E+02  0.000000000E+00  0.00000E+00  9.000E+00
      21    -1     0     0   501   512  0.000000000E+00  0.000000000E+00 -4.298728179E+02  4.298728179E+02  0.000000000E+00  0.00000E+00  9.000E+00
      25     1     1     2     0     0 -1.708432002E+02 -9.453252113E+00 -2.359246900E+01  2.132096800E+02  1.250000000E+02  0.00000E+00  9.000E+00
      25     1     1     2     0     0  1.474661163E+02  4.955967961E+01  3.963304615E+02  4.437400726E+02  1.250000000E+02  0.00000E+00  9.000E+00
      21     1     1     2   502   512  2.337708389E+01 -4.010642750E+01 -2.858947513E+02  2.896391245E+02  6.607249480E-06  0.00000E+00  9.000E+00
#rwgt            1           1   2.8159572474269326E-002           6      290322           0
</event>
<event>
      5   9999  3.19816E-02  1.26689E+01 -1.00000E+00  1.84585E-01
       1    -1     0     0   502     0  0.000000000E+00  0.000000000E+00  3.075715509E+03  3.075715509E+03  0.000000000E+00  0.00000E+00  9.000E+00
      21    -1     0     0   501   502  0.000000000E+00  0.000000000E+00 -4.762850208E+02  4.762850208E+02  0.000000000E+00  0.00000E+00  9.000E+00
      25     1     1     2     0     0 -1.759422626E+01  2.881687875E+02 -1.865215944E+02  3.657404983E+02  1.250000000E+02  0.00000E+00  9.000E+00
      25     1     1     2     0     0  3.025262088E+01 -2.876524668E+02 -7.612153641E+01  3.241583734E+02  1.250000000E+02  0.00000E+00  9.000E+00
       1     1     1     2   501     0 -1.265839462E+01 -5.163207248E-01  2.862073619E+03  2.862101659E+03  3.051757812E-05  0.00000E+00  9.000E+00
#rwgt            1           1   2.9468643149826251E-002           6      290438           0
</event>
<event>
      5   9999  3.19816E-02  2.56623E+01 -1.00000E+00  1.57905E-01
      21    -1     0     0   502   501  0.000000000E+00  0.000000000E+00  3.630273131E+02  3.630273131E+02  0.000000000E+00  0.00000E+00  9.000E+00
      21    -1     0     0   511   502  0.000000000E+00  0.000000000E+00 -1.812740008E+02  1.812740008E+02  0.000000000E+00  0.00000E+00  9.000E+00
      25     1     1     2     0     0 -5.411721535E+01  9.924642799E+01  2.692908956E+02  3.176808350E+02  1.250000000E+02  0.00000E+00  9.000E+00
      25     1     1     2     0     0  7.664330063E+01 -8.695293803E+01 -4.395785819E+01  1.760463072E+02  1.250000000E+02  0.00000E+00  9.000E+00
      21     1     1     2   511   501 -2.252608529E+01 -1.229348995E+01 -4.357972507E+01  5.057417177E+01  9.536743164E-07  0.00000E+00  9.000E+00
#rwgt            1           1   2.8491316548687771E-002           6      290627           0
</event>
<event>
      5   9999  3.19816E-02  2.25164E+02 -1.00000E+00  1.09806E-01
      21    -1     0     0   502   501  0.000000000E+00  0.000000000E+00  2.162313541E+02  2.162313541E+02  0.000000000E+00  0.00000E+00  9.000E+00
       1    -1     0     0   501     0  0.000000000E+00  0.000000000E+00 -1.942178609E+03  1.942178609E+03  0.000000000E+00  0.00000E+00  9.000E+00
      25     1     1     2     0     0 -1.361008016E+02 -3.514706985E+02 -2.793753047E+02  4.855209995E+02  1.250000000E+02  0.00000E+00  9.000E+00
      25     1     1     2     0     0  2.204849646E+02  5.602246910E+02 -1.043547090E+03  1.211231132E+03  1.250000000E+02  0.00000E+00  9.000E+00
       1     1     1     2   502     0 -8.438416303E+01 -2.087539925E+02 -4.030248602E+02  4.616578325E+02  5.394796609E-06  0.00000E+00  9.000E+00
#rwgt            2          12   4.6365924210936608E-004           6      290778           0
</event>
<event>
      5   9999  3.19816E-02  1.27849E+02 -1.00000E+00  1.19212E-01
      21    -1     0     0   511   501  0.000000000E+00  0.000000000E+00  1.052951836E+03  1.052951836E+03  0.000000000E+00  0.00000E+00  9.000E+00
      21    -1     0     0   501   502  0.000000000E+00  0.000000000E+00 -1.191798686E+02  1.191798686E+02  0.000000000E+00  0.00000E+00  9.000E+00
      25     1     1     2     0     0 -1.129963074E+00 -1.337459942E+01 -3.513712566E+01  1.305364866E+02  1.250000000E+02  0.00000E+00  9.000E+00
      25     1     1     2     0     0 -3.679846406E+01 -1.087184377E+02  2.007413607E+02  2.628610271E+02  1.250000000E+02  0.00000E+00  9.000E+00
      21     1     1     2   511   502  3.792842713E+01  1.220930371E+02  7.681677323E+02  7.787341910E+02  0.000000000E+00  0.00000E+00  9.000E+00
#rwgt            1           1   2.6091871121555987E-002           6      290827           0
</event>
<event>
      5   9999  3.19816E-02  8.29967E+01 -1.00000E+00  1.27581E-01
      21    -1     0     0   512   501  0.000000000E+00  0.000000000E+00  9.272947826E+02  9.272947826E+02  0.000000000E+00  0.00000E+00  9.000E+00
      21    -1     0     0   501   502  0.000000000E+00  0.000000000E+00 -2.687509037E+02  2.687509037E+02  0.000000000E+00  0.00000E+00  9.000E+00
      25     1     1     2     0     0  1.713207601E+02  2.175179391E+02  5.334606534E+02  6.138974877E+02  1.250000000E+02  0.00000E+00  9.000E+00
      25     1     1     2     0     0 -2.203442155E+02 -1.505466784E+02 -1.239158256E+02  3.196811028E+02  1.250000000E+02  0.00000E+00  9.000E+00
      21     1     1     2   512   502  4.902345545E+01 -6.697126074E+01  2.489990510E+02  2.624670958E+02  3.814697266E-06  0.00000E+00  9.000E+00
#rwgt            1           1   2.4924514325940787E-002           6      290891           0
</event>
<event>
      5   9999  3.19816E-02  6.72250E+01 -1.00000E+00  1.32117E-01
      21    -1     0     0   502   501  0.000000000E+00  0.000000000E+00  6.218509822E+02  6.218509822E+02  0.000000000E+00  0.00000E+00  9.000E+00
      21    -1     0     0   501   511  0.000000000E+00  0.000000000E+00 -1.099563995E+03  1.099563995E+03  0.000000000E+00  0.00000E+00  9.000E+00
      25     1     1     2     0     0 -5.566040784E+01 -3.887435486E+02  1.063379750E+02  4.256200095E+02  1.250000000E+02  0.00000E+00  9.000E+00
      25     1     1     2     0     0  4.656189679E+01  3.221370880E+02  2.688311669E+02  4.402675437E+02  1.250000000E+02  0.00000E+00  9.000E+00
      21     1     1     2   502   511  9.098511046E+00  6.660646052E+01 -8.528821544E+02  8.555274237E+02  1.525878906E-05  0.00000E+00  9.000E+00
#rwgt            1           1   2.9317119410347828E-002           6      290995           0
</event>
<event>
      5   9999  3.19816E-02  2.71629E+01 -1.00000E+00  1.56098E-01
      21    -1     0     0   502   501  0.000000000E+00  0.000000000E+00  3.956072506E+02  3.956072506E+02  0.000000000E+00  0.00000E+00  9.000E+00
      21    -1     0     0   512   502  0.000000000E+00  0.000000000E+00 -2.120386017E+02  2.120386017E+02  0.000000000E+00  0.00000E+00  9.000E+00
      25     1     1     2     0     0  1.365075760E+02 -8.992404784E+01 -6.243262747E+01  2.150429856E+02  1.250000000E+02  0.00000E+00  9.000E+00
      25     1     1     2     0     0 -1.632095949E+02  8.494163118E+01  2.744488107E+02  3.532698717E+02  1.250000000E+02  0.00000E+00  9.000E+00
      21     1     1     2   512   501  2.670201881E+01  4.982416662E+00 -2.844753436E+01  3.933299500E+01  6.743495762E-07  0.00000E+00  9.000E+00
#rwgt            1           1   2.4564136503953064E-002           6      291107           0
</event>
<event>
      5   9999  3.19816E-02  7.06412E+01 -1.00000E+00  1.31020E-01
      21    -1     0     0   511   501  0.000000000E+00  0.000000000E+00  1.172078844E+03  1.172078844E+03  0.000000000E+00  0.00000E+00  9.000E+00
      21    -1     0     0   501   502  0.000000000E+00  0.000000000E+00 -3.690364307E+02  3.690364307E+02  0.000000000E+00  0.00000E+00  9.000E+00
      25     1     1     2     0     0 -5.470295616E+02 -3.185204034E+01  1.354644253E+02  5.781275848E+02  1.250000000E+02  0.00000E+00  9.000E+00
      25     1     1     2     0     0  5.640905585E+02 -3.669798893E+01  4.471417973E+02  7.315091848E+02  1.250000000E+02  0.00000E+00  9.000E+00
      21     1     1     2   511   502 -1.706099695E+01  6.855002927E+01  2.204361904E+02  2.314785048E+02  0.000000000E+00  0.00000E+00  9.000E+00
#rwgt            1           1   2.8421077767070042E-002           6      291271           0
</event>
<event>
      5   9999  3.19816E-02  8.73353E+01 -1.00000E+00  1.26532E-01
      21    -1     0     0   512   501  0.000000000E+00  0.000000000E+00  1.634316163E+02  1.634316163E+02  0.000000000E+00  0.00000E+00  9.000E+00
      21    -1     0     0   501   502  0.000000000E+00  0.000000000E+00 -2.376883176E+03  2.376883176E+03  0.000000000E+00  0.00000E+00  9.000E+00
      25     1     1     2     0     0 -8.090205444E+01  1.080099301E+02  8.460739049E+01  2.024714744E+02  1.250000000E+02  0.00000E+00  9.000E+00
      25     1     1     2     0     0  9.936117589E+01 -1.933722060E+02 -2.159799217E+03  2.174309801E+03  1.250000000E+02  0.00000E+00  9.000E+00
      21     1     1     2   512   502 -1.845912145E+01  8.536227591E+01 -1.382597334E+02  1.635335170E+02  3.303624740E-06  0.00000E+00  9.000E+00
#rwgt            1           1   3.1646536197076316E-002           6      291403           0
</event>
<event>
      5   9999  3.19816E-02  1.74663E+02 -1.00000E+00  1.13832E-01
      21    -1     0     0   502   511  0.000000000E+00  0.000000000E+00  9.442889720E+02  9.442889720E+02  0.000000000E+00  0.00000E+00  9.000E+00
      21    -1     0     0   501   502  0.000000000E+00  0.000000000E+00 -6.701961155E+02  6.701961155E+02  0.000000000E+00  0.00000E+00  9.000E+00
      25     1     1     2     0     0  3.688064469E+02 -6.191488724E+01 -4.003474321E+02  5.619205593E+02  1.250000000E+02  0.00000E+00  9.000E+00
      25     1     1     2     0     0 -4.924570794E+02 -6.144518749E+01  2.043341523E+02  5.510598261E+02  1.250000000E+02  0.00000E+00  9.000E+00
      21     1     1     2   501   511  1.236506325E+02  1.233600747E+02  4.701061363E+02  5.015047022E+02  7.629394531E-06  0.00000E+00  9.000E+00
#rwgt            1           1   3.3752167310081009E-002           6      291505           0
</event>
<event>
      5   9999  3.19816E-02  1.36198E+02 -1.00000E+00  1.18080E-01
      21    -1     0     0   502   512  0.000000000E+00  0.000000000E+00  2.559839776E+03  2.559839776E+03  0.000000000E+00  0.00000E+00  9.000E+00
      21    -1     0     0   501   502  0.000000000E+00  0.000000000E+00 -4.182964171E+02  4.182964171E+02  0.000000000E+00  0.00000E+00  9.000E+00
      25     1     1     2     0     0 -2.001087358E+02  7.202395816E+02  1.401226972E+03  1.593063271E+03  1.250000000E+02  0.00000E+00  9.000E+00
      25     1     1     2     0     0  1.776731738E+02 -5.859026639E+02 -7.530475211E+00  6.249251125E+02  1.250000000E+02  0.00000E+00  9.000E+00
      21     1     1     2   501   512  2.243556200E+01 -1.343369177E+02  7.478468626E+02  7.601478092E+02  1.078959322E-05  0.00000E+00  9.000E+00
#rwgt            1           1   2.6508172310110389E-002           6      291561           0
</event>
<event>
      5   9999  3.19816E-02  9.25660E+00 -1.00000E+00  1.99717E-01
      21    -1     0     0   511   501  0.000000000E+00  0.000000000E+00  4.921473643E+02  4.921473643E+02  0.000000000E+00  0.00000E+00  9.000E+00
      21    -1     0     0   501   502  0.000000000E+00  0.000000000E+00 -3.028533145E+02  3.028533145E+02  0.000000000E+00  0.00000E+00  9.000E+00
      25     1     1     2     0     0 -2.474575386E+02  1.932071016E+02 -9.254398722E+01  3.503621085E+02  1.250000000E+02  0.00000E+00  9.000E+00
      25     1     1     2     0     0  2.383420839E+02 -1.948174330E+02  2.633268767E+02  4.239420068E+02  1.250000000E+02  0.00000E+00  9.000E+00
      21     1     1     2   511   502  9.115454687E+00  1.610331410E+00  1.851116034E+01  2.069656344E+01  0.000000000E+00  0.00000E+00  9.000E+00
#rwgt            1           1   2.9062609138322277E-002           6      291621           0
</event>
<event>
      5   9999  3.19816E-02  3.02163E+02 -1.00000E+00  1.05491E-01
      21    -1     0     0   512   501  0.000000000E+00  0.000000000E+00  1.581103716E+03  1.581103716E+03  0.000000000E+00  0.00000E+00  9.000E+00
      21    -1     0     0   501   502  0.000000000E+00  0.000000000E+00 -5.618846681E+02  5.618846681E+02  0.000000000E+00  0.00000E+00  9.000E+00
      25     1     1     2     0     0 -1.255586633E+02 -5.056960945E+02 -3.616296809E+02  6.464476344E+02  1.250000000E+02  0.00000E+00  9.000E+00
      25     1     1     2     0     0  1.289332566E+02  2.035519344E+02  7.343956198E+02  7.829553634E+02  1.250000000E+02  0.00000E+00  9.000E+00
      21     1     1     2   512   502 -3.374593320E+00  3.021441601E+02  6.464531093E+02  7.135853865E+02  7.629394531E-06  0.00000E+00  9.000E+00
#rwgt            2          11   2.4100200188127727E-003           6      292027           0
</event>
<event>
      5   9999  3.19816E-02  5.60318E+00 -1.00000E+00  2.30188E-01
      21    -1     0     0   502   511  0.000000000E+00  0.000000000E+00  2.786722549E+02  2.786722549E+02  0.000000000E+00  0.00000E+00  9.000E+00
      21    -1     0     0   501   502  0.000000000E+00  0.000000000E+00 -1.261770612E+02  1.261770612E+02  0.000000000E+00  0.00000E+00  9.000E+00
      25     1     1     2     0     0  3.289930719E+00  3.035624565E+01  2.147465093E+02  2.503465370E+02  1.250000000E+02  0.00000E+00  9.000E+00
      25     1     1     2     0     0 -4.218807571E+00 -2.483059215E+01 -6.959304335E+01  1.452671619E+02  1.250000000E+02  0.00000E+00  9.000E+00
      21     1     1     2   501   511  9.288768515E-01 -5.525653498E+00  7.341727740E+00  9.235617196E+00  0.000000000E+00  0.00000E+00  9.000E+00
#rwgt            1           1   2.9647244061223307E-002           6      292047           0
</event>
<event>
      5   9999  3.19816E-02  1.31533E+01 -1.00000E+00  1.82933E-01
      21    -1     0     0   502   501  0.000000000E+00  0.000000000E+00  4.668409231E+02  4.668409231E+02  0.000000000E+00  0.00000E+00  9.000E+00
      21    -1     0     0   512   502  0.000000000E+00  0.000000000E+00 -4.569017766E+02  4.569017766E+02  0.000000000E+00  0.00000E+00  9.000E+00
      25     1     1     2     0     0 -9.068895007E+01  3.253964194E+02 -2.274958788E+02  4.260125471E+02  1.250000000E+02  0.00000E+00  9.000E+00
      25     1     1     2     0     0  9.334761795E+01 -3.382781847E+02  2.716675284E+02  4.610576471E+02  1.250000000E+02  0.00000E+00  9.000E+00
      21     1     1     2   512   501 -2.658667881E+00  1.288176532E+01 -3.423250308E+01  3.667250550E+01  6.743495762E-07  0.00000E+00  9.000E+00
#rwgt            1           1   2.7597505090881068E-002           6      292301           0
</event>
<event>
      5   9999  3.19816E-02  2.49858E+01 -1.00000E+00  1.58769E-01
      21    -1     0     0   502   511  0.000000000E+00  0.000000000E+00  6.300173473E+02  6.300173473E+02  0.000000000E+00  0.00000E+00  9.000E+00
      21    -1     0     0   501   502  0.000000000E+00  0.000000000E+00 -1.161477886E+02  1.161477886E+02  0.000000000E+00  0.00000E+00  9.000E+00
      25     1     1     2     0     0  1.299582225E+02  1.778753099E+02  3.035586449E+02  3.953499922E+02  1.250000000E+02  0.00000E+00  9.000E+00
      25     1     1     2     0     0 -1.068941011E+02 -1.874845998E+02  1.649116551E+02  2.989944448E+02  1.250000000E+02  0.00000E+00  9.000E+00
      21     1     1     2   501   511 -2.306412145E+01  9.609289945E+00  4.539925870E+01  5.182069898E+01  6.743495762E-07  0.00000E+00  9.000E+00
#rwgt            1           1   2.6310883797011308E-002           6      292502           0
</event>
<event>
      5   9999  3.19816E-02  1.10018E+02 -1.00000E+00  1.21991E-01
       2    -1     0     0   502     0  0.000000000E+00  0.000000000E+00  2.223111404E+03  2.223111404E+03  0.000000000E+00  0.00000E+00  9.000E+00
      21    -1     0     0   501   502  0.000000000E+00  0.000000000E+00 -9.130989624E+01  9.130989624E+01  0.000000000E+00  0.00000E+00  9.000E+00
      25     1     1     2     0     0 -1.066754761E+01  1.159135965E+02  5.715552168E+02  5.965317463E+02  1.250000000E+02  0.00000E+00  9.000E+00
      25     1     1     2     0     0 -5.111987854E+01 -2.069426242E+02  1.222603115E+02  2.757010618E+02  1.250000000E+02  0.00000E+00  9.000E+00
       2     1     1     2   501     0  6.178742615E+01  9.102902772E+01  1.437985979E+03  1.442188492E+03  1.525878906E-05  0.00000E+00  9.000E+00
#rwgt            1           1   3.1803177991724142E-002           6      292636           0
</event>
<event>
      5   9999  3.19816E-02  9.87812E+00 -1.00000E+00  1.96375E-01
      21    -1     0     0   502   511  0.000000000E+00  0.000000000E+00  2.654330022E+02  2.654330022E+02  0.000000000E+00  0.00000E+00  9.000E+00
      21    -1     0     0   501   502  0.000000000E+00  0.000000000E+00 -1.117745954E+02  1.117745954E+02  0.000000000E+00  0.00000E+00  9.000E+00
      25     1     1     2     0     0 -1.760884099E+01 -3.518599879E+01  1.355423004E+02  1.885333949E+02  1.250000000E+02  0.00000E+00  9.000E+00
      25     1     1     2     0     0  1.623134537E+01  2.540439286E+01 -3.610807933E+01  1.335576023E+02  1.250000000E+02  0.00000E+00  9.000E+00
      21     1     1     2   501   511  1.377495612E+00  9.781605934E+00  5.422418572E+01  5.511660027E+01  6.743495762E-07  0.00000E+00  9.000E+00
#rwgt            1           1   5.5957095347578222E-002           6      292712           0
</event>
<event>
      5   9999  3.19816E-02  2.10682E+02 -1.00000E+00  1.10832E-01
      21    -1     0     0   502   501  0.000000000E+00  0.000000000E+00  7.708171750E+02  7.708171750E+02  0.000000000E+00  0.00000E+00  9.000E+00
       2    -1     0     0   501     0  0.000000000E+00  0.000000000E+00 -5.223764846E+02  5.223764846E+02  0.000000000E+00  0.00000E+00  9.000E+00
      25     1     1     2     0     0 -2.338259623E+02  1.738567459E+02 -5.223831377E+01  3.213325228E+02  1.250000000E+02  0.00000E+00  9.000E+00
      25     1     1     2     0     0  3.047166994E+02 -3.722534541E+02  4.831323036E+02  6.931570700E+02  1.250000000E+02  0.00000E+00  9.000E+00
       2     1     1     2   502     0 -7.089073704E+01  1.983967082E+02 -1.824532994E+02  2.787040669E+02  4.672030912E-06  0.00000E+00  9.000E+00
#rwgt            2          13   3.8331255674320120E-004           6      292922           0
</event>
<event>
      5   9999  3.19816E-02  1.90749E+02 -1.00000E+00  1.12402E-01
      21    -1     0     0   502   501  0.000000000E+00  0.000000000E+00  8.338751710E+02  8.338751710E+02  0.000000000E+00  0.00000E+00  9.000E+00
       2    -1     0     0   501     0  0.000000000E+00  0.000000000E+00 -1.708865365E+03  1.708865365E+03  0.000000000E+00  0.00000E+00  9.000E+00
      25     1     1     2     0     0 -6.278828880E+02  1.009900496E+02  5.596243428E+01  6.505326320E+02  1.250000000E+02  0.00000E+00  9.000E+00
      25     1     1     2     0     0  7.865769596E+02 -2.068262421E+02  1.133437178E+02  8.306336173E+02  1.250000000E+02  0.00000E+00  9.000E+00
       2     1     1     2   502     0 -1.586940716E+02  1.058361924E+02 -1.044296346E+03  1.061574287E+03  0.000000000E+00  0.00000E+00  9.000E+00
#rwgt            1           1   3.4582852521046134E-002           6      292941           0
</event>
<event>
      5   9999  3.19816E-02  9.76337E+01 -1.00000E+00  1.24298E-01
      21    -1     0     0   502   511  0.000000000E+00  0.000000000E+00  5.994505248E+02  5.994505248E+02  0.000000000E+00  0.00000E+00  9.000E+00
      21    -1     0     0   501   502  0.000000000E+00  0.000000000E+00 -3.167960213E+02  3.167960213E+02  0.000000000E+00  0.00000E+00  9.000E+00
      25     1     1     2     0     0  8.725947936E+01 -2.000009240E+02 -1.598222154E+02  2.979643047E+02  1.250000000E+02  0.00000E+00  9.000E+00
      25     1     1     2     0     0 -8.084152522E+01  2.974234471E+02  3.187839404E+02  4.606997500E+02  1.250000000E+02  0.00000E+00  9.000E+00
      21     1     1     2   501   511 -6.417954137E+00 -9.742252302E+01  1.236927786E+02  1.575824914E+02  2.336015456E-06  0.00000E+00  9.000E+00
#rwgt            1           1   3.0236935924871720E-002           6      292993           0
</event>
<event>
      5   9999  3.19816E-02  2.21865E+02 -1.00000E+00  1.10032E-01
      21    -1     0     0   502   501  0.000000000E+00  0.000000000E+00  1.489750130E+03  1.489750130E+03  0.000000000E+00  0.00000E+00  9.000E+00
      21    -1     0     0   501   512  0.000000000E+00  0.000000000E+00 -7.096531658E+02  7.096531658E+02  0.000000000E+00  0.00000E+00  9.000E+00
      25     1     1     2     0     0 -5.282781677E+02 -7.845094820E+01 -1.138290864E+02  5.601914268E+02  1.250000000E+02  0.00000E+00  9.000E+00
      25     1     1     2     0     0  6.163275203E+02  2.820958449E+02  1.124694027E+03  1.319090343E+03  1.250000000E+02  0.00000E+00  9.000E+00
      21     1     1     2   502   512 -8.804935256E+01 -2.036448967E+02 -2.307679766E+02  3.201215261E+02  6.031565972E-06  0.00000E+00  9.000E+00
#rwgt            1           1   3.2969866886207184E-002           6      293045           0
</event>
<event>
      5   9999  3.19816E-02  4.55736E+01 -1.00000E+00  1.41412E-01
      21    -1     0     0   502   501  0.000000000E+00  0.000000000E+00  3.101044495E+02  3.101044495E+02  0.000000000E+00  0.00000E+00  9.000E+00
      21    -1     0     0   501   511  0.000000000E+00  0.000000000E+00 -4.770566715E+02  4.770566715E+02  0.000000000E+00  0.00000E+00  9.000E+00
      25     1     1     2     0     0 -7.478296546E+01  4.031684220E+01 -1.963995489E+02  2.478219573E+02  1.250000000E+02  0.00000E+00  9.000E+00
      25     1     1     2     0     0  1.014079313E+02 -7.730417090E+01  2.538466133E+02  3.103588349E+02  1.250000000E+02  0.00000E+00  9.000E+00
      21     1     1     2   502   511 -2.662496582E+01  3.698732871E+01 -2.243992863E+02  2.289803288E+02  0.000000000E+00  0.00000E+00  9.000E+00
#rwgt            1           1   2.6918034622219842E-002           6      293105           0
</event>
<event>
      5   9999  3.19816E-02  3.10680E+01 -1.00000E+00  1.51992E-01
      21    -1     0     0   502   501  0.000000000E+00  0.000000000E+00  4.496573342E+02  4.496573342E+02  0.000000000E+00  0.00000E+00  9.000E+00
      21    -1     0     0   512   502  0.000000000E+00  0.000000000E+00 -1.833122508E+03  1.833122508E+03  0.000000000E+00  0.00000E+00  9.000E+00
      25     1     1     2     0     0  2.158787922E+02 -3.731238090E+02 -1.231260752E+02  4.654138590E+02  1.250000000E+02  0.00000E+00  9.000E+00
      25     1     1     2     0     0 -2.177882976E+02  3.421145174E+02  1.165754042E+02  4.401010230E+02  1.250000000E+02  0.00000E+00  9.000E+00
      21     1     1     2   512   501  1.909505338E+00  3.100929161E+01 -1.376914503E+03  1.377264960E+03  2.157918644E-05  0.00000E+00  9.000E+00
#rwgt            1           1   3.0497511282987007E-002           6      293211           0
</event>
<event>
      5   9999  3.19816E-02  8.59162E+01 -1.00000E+00  1.26867E-01
      21    -1     0     0   502   501  0.000000000E+00  0.000000000E+00  2.862025301E+02  2.862025301E+02  0.000000000E+00  0.00000E+00  9.000E+00
      21    -1     0     0   511   502  0.000000000E+00  0.000000000E+00 -3.853910380E+02  3.853910380E+02  0.000000000E+00  0.00000E+00  9.000E+00
      25     1     1     2     0     0 -6.070355217E+01  2.615368022E+02 -2.365663410E+01  2.971044538E+02  1.250000000E+02  0.00000E+00  9.000E+00
      25     1     1     2     0     0 -2.434900615E+01 -2.493855167E+02 -4.684994800E+01  2.839118308E+02  1.250000000E+02  0.00000E+00  9.000E+00
      21     1     1     2   511   501  8.505255833E+01 -1.215128547E+01 -2.868192588E+01  9.057728351E+01  1.507891493E-06  0.00000E+00  9.000E+00
#rwgt            2          11   3.3639201326470481E-003           6      293373           0
</event>
<event>
      5   9999  3.19816E-02  2.88563E+01 -1.00000E+00  1.54222E-01
      21    -1     0     0   502   512  0.000000000E+00  0.000000000E+00  9.696847909E+02  9.696847909E+02  0.000000000E+00  0.00000E+00  9.000E+00
      21    -1     0     0   501   502  0.000000000E+00  0.000000000E+00 -3.900626622E+02  3.900626622E+02  0.000000000E+00  0.00000E+00  9.000E+00
      25     1     1     2     0     0 -2.373391874E+02 -4.720626140E+02  1.221826284E+02  5.565308581E+02  1.250000000E+02  0.00000E+00  9.000E+00
      25     1     1     2     0     0  2.415134868E+02  4.435097979E+02  2.213605081E+02  5.653805618E+02  1.250000000E+02  0.00000E+00  9.000E+00
      21     1     1     2   501   512 -4.174299349E+00  2.855281603E+01  2.360789922E+02  2.378360331E+02  3.814697266E-06  0.00000E+00  9.000E+00
#rwgt            1           1   3.0584709056701864E-002           6      293408           0
</event>
<event>
      5   9999  3.19816E-02  1.42205E+01 -1.00000E+00  1.79595E-01
      21    -1     0     0   511   501  0.000000000E+00  0.000000000E+00  5.275652095E+01  5.275652095E+01  0.000000000E+00  0.00000E+00  9.000E+00
      21    -1     0     0   501   502  0.000000000E+00  0.000000000E+00 -1.354469489E+03  1.354469489E+03  0.000000000E+00  0.00000E+00  9.000E+00
      25     1     1     2     0     0  1.869774157E+02  1.201565525E+02 -4.479905904E+02  5.154791171E+02  1.250000000E+02  0.00000E+00  9.000E+00
      25     1     1     2     0     0 -1.743456893E+02 -1.136249461E+02 -8.191375773E+02  8.543526311E+02  1.250000000E+02  0.00000E+00  9.000E+00
      21     1     1     2   511   502 -1.263172636E+01 -6.531606409E+00 -3.458480016E+01  3.739426153E+01  8.259061849E-07  0.00000E+00  9.000E+00
#rwgt            1           1   2.9329622852048619E-002           6      293521           0
</event>
<event>
      5   9999  3.19816E-02  5.17160E+01 -1.00000E+00  1.38245E-01
      21    -1     0     0   512   501  0.000000000E+00  0.000000000E+00  1.569643230E+03  1.569643230E+03  0.000000000E+00  0.00000E+00  9.000E+00
      21    -1     0     0   501   502  0.000000000E+00  0.000000000E+00 -7.013231336E+01  7.013231336E+01  0.000000000E+00  0.00000E+00  9.000E+00
      25     1     1     2     0     0  2.035539258E+01  2.256610499E+02  9.325356476E+02  9.677732097E+02  1.250000000E+02  0.00000E+00  9.000E+00
      25     1     1     2     0     0 -2.158616275E+01 -2.773623620E+02  4.446897008E+02  5.392307227E+02  1.250000000E+02  0.00000E+00  9.000E+00
      21     1     1     2   512   502  1.230770167E+00  5.170131210E+01  1.222855680E+02  1.327716107E+02  2.336015456E-06  0.00000E+00  9.000E+00
#rwgt            1           1   1.4964830193118929E-002           6      293722           0
</event>
<event>
      5   9999  3.19816E-02  2.46380E+02 -1.00000E+00  1.08447E-01
      21    -1     0     0   502   501  0.000000000E+00  0.000000000E+00  4.842132758E+02  4.842132758E+02  0.000000000E+00  0.00000E+00  9.000E+00
      21    -1     0     0   501   511  0.000000000E+00  0.000000000E+00 -5.883683901E+02  5.883683901E+02  0.000000000E+00  0.00000E+00  9.000E+00
      25     1     1     2     0     0 -2.219118412E+02  8.260014614E+00  2.673623968E+02  3.693517894E+02  1.250000000E+02  0.00000E+00  9.000E+00
      25     1     1     2     0     0  1.345100094E+02 -2.386160857E+02 -6.162841893E+01  3.073331108E+02  1.250000000E+02  0.00000E+00  9.000E+00
      21     1     1     2   502   511  8.740183188E+01  2.303560711E+02 -3.098890921E+02  3.958967657E+02  0.000000000E+00  0.00000E+00  9.000E+00
#rwgt            2          11   3.3886629165855945E-003           6      294162           0
</event>
<event>
      5   9999  3.19816E-02  1.79034E+02 -1.00000E+00  1.13427E-01
      21    -1     0     0   502   501  0.000000000E+00  0.000000000E+00  1.747866837E+02  1.747866837E+02  0.000000000E+00  0.00000E+00  9.000E+00
       2    -1     0     0   501     0  0.000000000E+00  0.000000000E+00 -2.720157457E+03  2.720157457E+03  0.000000000E+00  0.00000E+00  9.000E+00
      25     1     1     2     0     0 -1.229688901E+02  3.487096463E+02 -9.470777992E+01  4.016395510E+02  1.250000000E+02  0.00000E+00  9.000E+00
      25     1     1     2     0     0  4.944058232E+01 -1.854715657E+02 -7.760744228E+02  8.091727767E+02  1.250000000E+02  0.00000E+00  9.000E+00
       2     1     1     2   502     0  7.352830774E+01 -1.632380806E+02 -1.674588570E+03  1.684131813E+03  3.051757812E-05  0.00000E+00  9.000E+00
#rwgt            1           1   2.5625753891478569E-002           6      294182           0
</event>
<event>
      5   9999  3.19816E-02  9.36203E+01 -1.00000E+00  1.25129E-01
      21    -1     0     0   502   511  0.000000000E+00  0.000000000E+00  1.084497210E+03  1.084497210E+03  0.000000000E+00  0.00000E+00  9.000E+00
      21    -1     0     0   501   502  0.000000000E+00  0.000000000E+00 -2.539146134E+02  2.539146134E+02  0.000000000E+00  0.00000E+00  9.000E+00
      25     1     1     2     0     0  1.028069601E+02 -2.389977821E+02  7.803816585E+02  8.320515271E+02  1.250000000E+02  0.00000E+00  9.000E+00
      25     1     1     2     0     0 -1.336059825E+01  2.113553248E+02 -1.481015665E+02  2.870690734E+02  1.250000000E+02  0.00000E+00  9.000E+00
      21     1     1     2   501   511 -8.944636182E+01  2.764245731E+01  1.983025051E+02  2.192912233E+02  2.697398305E-06  0.00000E+00  9.000E+00
#rwgt            1           1   2.7859382489107704E-002           6      294231           0
</event>
<event>
      5   9999  3.19816E-02  2.05992E+01 -1.00000E+00  1.65318E-01
      21    -1     0     0   502   512  0.000000000E+00  0.000000000E+00  3.383450093E+01  3.383450093E+01  0.000000000E+00  0.00000E+00  9.000E+00
      21    -1     0     0   501   502  0.000000000E+00  0.000000000E+00 -2.155576660E+03  2.155576660E+03  0.000000000E+00  0.00000E+00  9.000E+00
      25     1     1     2     0     0 -2.022694393E+02  9.834973900E+01 -9.341807725E+02  9.689707493E+02  1.250000000E+02  0.00000E+00  9.000E+00
      25     1     1     2     0     0  2.137291916E+02 -8.123244832E+01 -1.111680461E+03  1.141813174E+03  1.250000000E+02  0.00000E+00  9.000E+00
      21     1     1     2   501   512 -1.145975226E+01 -1.711729068E+01 -7.588092524E+01  7.862723686E+01  0.000000000E+00  0.00000E+00  9.000E+00
#rwgt            1           1   9.0947667556314726E-002           6      294326           0
</event>
<event>
      5   9999  3.19816E-02  2.26666E+01 -1.00000E+00  1.62006E-01
      21    -1     0     0   502   501  0.000000000E+00  0.000000000E+00  1.127766915E+03  1.127766915E+03  0.000000000E+00  0.00000E+00  9.000E+00
      21    -1     0     0   511   502  0.000000000E+00  0.000000000E+00 -1.062684437E+02  1.062684437E+02  0.000000000E+00  0.00000E+00  9.000E+00
      25     1     1     2     0     0 -2.713311090E+02  1.078887728E+02  6.663600568E+02  7.381878374E+02  1.250000000E+02  0.00000E+00  9.000E+00
      25     1     1     2     0     0  2.664491270E+02 -8.575415250E+01  3.598236243E+02  4.727017585E+02  1.250000000E+02  0.00000E+00  9.000E+00
      21     1     1     2   511   501  4.881981940E+00 -2.213462030E+01 -4.685209453E+00  2.314576313E+01  4.915124924E-07  0.00000E+00  9.000E+00
#rwgt            1           1   2.9709691532309995E-002           6      294446           0
</event>
<event>
      5   9999  3.19816E-02  1.99601E+02 -1.00000E+00  1.11680E-01
      21    -1     0     0   502   501  0.000000000E+00  0.000000000E+00  2.251198319E+02  2.251198319E+02  0.000000000E+00  0.00000E+00  9.000E+00
       1    -1     0     0   501     0  0.000000000E+00  0.000000000E+00 -1.575785415E+03  1.575785415E+03  0.000000000E+00  0.00000E+00  9.000E+00
      25     1     1     2     0     0  2.590238681E+02 -3.541633783E+02 -3.069062151E+02  5.498558790E+02  1.250000000E+02  0.00000E+00  9.000E+00
      25     1     1     2     0     0 -4.087702709E+02  2.221920984E+02 -6.442538313E+02  8.044566253E+02  1.250000000E+02  0.00000E+00  9.000E+00
       1     1     1     2   502     0  1.497464028E+02  1.319712799E+02 -3.995055371E+02  4.465927430E+02  0.000000000E+00  0.00000E+00  9.000E+00
#rwgt            1           1   3.1500865603268313E-002           6      294613           0
</event>
<event>
      5   9999  3.19816E-02  3.33468E+01 -1.00000E+00  1.49917E-01
      21    -1     0     0   511   501  0.000000000E+00  0.000000000E+00  6.025228314E+02  6.025228314E+02  0.000000000E+00  0.00000E+00  9.000E+00
      21    -1     0     0   501   502  0.000000000E+00  0.000000000E+00 -2.046881507E+02  2.046881507E+02  0.000000000E+00  0.00000E+00  9.000E+00
      25     1     1     2     0     0 -1.098486156E+02 -1.723941686E+02  4.115190385E+02  4.761925942E+02  1.250000000E+02  0.00000E+00  9.000E+00
      25     1     1     2     0     0  8.770924211E+01  1.973312004E+02 -7.558092415E+01  2.607105481E+02  1.250000000E+02  0.00000E+00  9.000E+00
      21     1     1     2   511   502  2.213937350E+01 -2.493703175E+01  6.189656631E+01  7.030783976E+01  1.168007728E-06  0.00000E+00  9.000E+00
#rwgt            1           1   2.9780019131591281E-002           6      294668           0
</event>
<event>
      5   9999  3.19816E-02  1.20915E+02 -1.00000E+00  1.20228E-01
      21    -1     0     0   502   501  0.000000000E+00  0.000000000E+00  3.099441317E+02  3.099441317E+02  0.000000000E+00  0.00000E+00  9.000E+00
      21    -1     0     0   501   512  0.000000000E+00  0.000000000E+00 -1.039217486E+03  1.039217486E+03  0.000000000E+00  0.00000E+00  9.000E+00
      25     1     1     2     0     0  1.528471628E+02  8.299802132E+01  2.066005382E+02  2.975898337E+02  1.250000000E+02  0.00000E+00  9.000E+00
      25     1     1     2     0     0 -2.715281808E+02 -1.061358440E+02 -4.479367446E+02  5.488758489E+02  1.250000000E+02  0.00000E+00  9.000E+00
      21     1     1     2   502   512  1.186810180E+02  2.313782268E+01 -4.879371476E+02  5.026959348E+02  5.394796609E-06  0.00000E+00  9.000E+00
#rwgt            1           1   2.9736745372284160E-002           6      294784           0
</event>
<event>
      5   9999  3.19816E-02  1.11231E+02 -1.00000E+00  1.21784E-01
      21    -1     0     0   502   501  0.000000000E+00  0.000000000E+00  6.487748347E+02  6.487748347E+02  0.000000000E+00  0.00000E+00  9.000E+00
      21    -1     0     0   501   511  0.000000000E+00  0.000000000E+00 -4.957354007E+02  4.957354007E+02  0.000000000E+00  0.00000E+00  9.000E+00
      25     1     1     2     0     0  2.487659994E+02 -2.687985466E+02  1.004320159E+02  3.998109190E+02  1.250000000E+02  0.00000E+00  9.000E+00
      25     1     1     2     0     0 -2.674594018E+02  1.591493334E+02  3.147391190E+02  4.599442955E+02  1.250000000E+02  0.00000E+00  9.000E+00
      21     1     1     2   502   511  1.869340248E+01  1.096492132E+02 -2.621317010E+02  2.847550209E+02  0.000000000E+00  0.00000E+00  9.000E+00
#rwgt            1           1   2.5293738042229633E-002           6      294828           0
</event>
<event>
      5   9999  3.19816E-02  7.09860E+01 -1.00000E+00  1.30914E-01
      21    -1     0     0   512   501  0.000000000E+00  0.000000000E+00  1.593513324E+03  1.593513324E+03  0.000000000E+00  0.00000E+00  9.000E+00
      21    -1     0     0   501   502  0.000000000E+00  0.000000000E+00 -8.681503323E+02  8.681503323E+02  0.000000000E+00  0.00000E+00  9.000E+00
      25     1     1     2     0     0  1.306533041E+02 -7.678743581E+02  1.017411075E+02  7.954103147E+02  1.250000000E+02  0.00000E+00  9.000E+00
      25     1     1     2     0     0 -8.536614431E+01  7.132109470E+02 -2.642812562E+02  7.755171280E+02  1.250000000E+02  0.00000E+00  9.000E+00
      21     1     1     2   512   502 -4.528715975E+01  5.466341116E+01  8.879031409E+02  8.907362140E+02  1.525878906E-05  0.00000E+00  9.000E+00
#rwgt            1           1   2.2237944239829409E-002           6      294882           0
</event>
<event>
      5   9999  3.19816E-02  1.39769E+01 -1.00000E+00  1.80324E-01
      21    -1     0     0   502   501  0.000000000E+00  0.000000000E+00  4.117423857E+02  4.117423857E+02  0.000000000E+00  0.00000E+00  9.000E+00
      21    -1     0     0   501   511  0.000000000E+00  0.000000000E+00 -3.550183564E+02  3.550183564E+02  0.000000000E+00  0.00000E+00  9.000E+00
      25     1     1     2     0     0  2.718808078E+02  1.931971732E+02  8.081895604E+01  3.652410506E+02  1.250000000E+02  0.00000E+00  9.000E+00
      25     1     1     2     0     0 -2.832572748E+02 -1.850774473E+02  1.395682037E+01  3.609821852E+02  1.250000000E+02  0.00000E+00  9.000E+00
      21     1     1     2   502   511  1.137646697E+01 -8.119725950E+00 -3.805174713E+01  4.053750621E+01  4.768371582E-07  0.00000E+00  9.000E+00
#rwgt            1           1   2.8036036013952281E-002           6      294993           0
</event>
<event>
      5   9999  3.19816E-02  1.56816E+02 -1.00000E+00  1.15634E-01
      21    -1     0     0   502   501  0.000000000E+00  0.000000000E+00  5.125677685E+02  5.125677685E+02  0.000000000E+00  0.00000E+00  9.000E+00
      21    -1     0     0   512   502  0.000000000E+00  0.000000000E+00 -1.090896022E+03  1.090896022E+03  0.000000000E+00  0.00000E+00  9.000E+00
      25     1     1     2     0     0  1.192787812E+02  3.380455810E+02  2.704058136E+02  4.660971428E+02  1.250000000E+02  0.00000E+00  9.000E+00
      25     1     1     2     0     0 -6.589658030E+01 -1.905948372E+02  3.499681919E+01  2.398302079E+02  1.250000000E+02  0.00000E+00  9.000E+00
      21     1     1     2   512   501 -5.338220090E+01 -1.474507438E+02 -8.837308860E+02  8.975364394E+02  1.078959322E-05  0.00000E+00  9.000E+00
#rwgt            1           1   2.7926838508788309E-002           6      295183           0
</event>
<event>
      5   9999  3.19816E-02  4.72055E+01 -1.00000E+00  1.40516E-01
      21    -1     0     0   502   511  0.000000000E+00  0.000000000E+00  1.136638269E+03  1.136638269E+03  0.000000000E+00  0.00000E+00  9.000E+00
      21    -1     0     0   501   502  0.000000000E+00  0.000000000E+00 -2.238158672E+02  2.238158672E+02  0.000000000E+00  0.00000E+00  9.000E+00
      25     1     1     2     0     0 -3.220874704E+02 -1.898033239E+02  1.608140525E+02  4.257367729E+02  1.250000000E+02  0.00000E+00  9.000E+00
      25     1     1     2     0     0  3.227064459E+02  1.426019136E+02  2.984774420E+02  4.787363986E+02  1.250000000E+02  0.00000E+00  9.000E+00
      21     1     1     2   501   511 -6.189755004E-01  4.720141033E+01  4.535309078E+02  4.559809652E+02  5.394796609E-06  0.00000E+00  9.000E+00
#rwgt            1           1   2.6657995006650705E-002           6      295247           0
</event>
<event>
      5   9999  3.19816E-02  2.72111E+02 -1.00000E+00  1.06987E-01
      21    -1     0     0   502   501  0.000000000E+00  0.000000000E+00  8.981066686E+02  8.981066686E+02  0.000000000E+00  0.00000E+00  9.000E+00
       2    -1     0     0   501     0  0.000000000E+00  0.000000000E+00 -2.342029902E+03  2.342029902E+03  0.000000000E+00  0.00000E+00  9.000E+00
      25     1     1     2     0     0 -3.268630923E+02 -4.345663323E+02  6.585580741E+02  8.631402640E+02  1.250000000E+02  0.00000E+00  9.000E+00
      25     1     1     2     0     0  1.916071414E+02  1.984518099E+02 -5.048236885E+01  3.070340161E+02  1.250000000E+02  0.00000E+00  9.000E+00
       2     1     1     2   502     0  1.352559509E+02  2.361145224E+02 -2.051998939E+03  2.069962290E+03  4.315837288E-05  0.00000E+00  9.000E+00
#rwgt            1           1   3.0756308565803643E-002           6      295352           0
</event>
<event>
      5   9999  3.19816E-02  8.46015E+01 -1.00000E+00  1.27185E-01
      21    -1     0     0   502   501  0.000000000E+00  0.000000000E+00  6.737555225E+02  6.737555225E+02  0.000000000E+00  0.00000E+00  9.000E+00
      21    -1     0     0   511   502  0.000000000E+00  0.000000000E+00 -1.543140817E+02  1.543140817E+02  0.000000000E+00  0.00000E+00  9.000E+00
      25     1     1     2     0     0 -2.307312223E+01  1.942179306E+02  3.684054764E+02  4.354314740E+02  1.250000000E+02  0.00000E+00  9.000E+00
      25     1     1     2     0     0 -5.276918760E+01 -2.317060575E+02  1.509611017E+02  3.080365863E+02  1.250000000E+02  0.00000E+00  9.000E+00
      21     1     1     2   511   501  7.584230983E+01  3.748812694E+01  7.486272753E-02  8.460154388E+01  2.111259800E-06  0.00000E+00  9.000E+00
#rwgt            1           1   2.9830753311431119E-002           6      295400           0
</event>
<event>
      5   9999  3.19816E-02  2.96745E+02 -1.00000E+00  1.05746E-01
      21    -1     0     0   502   501  0.000000000E+00  0.000000000E+00  1.861277119E+02  1.861277119E+02  0.000000000E+00  0.00000E+00  9.000E+00
       2    -1     0     0   501     0  0.000000000E+00  0.000000000E+00 -1.916860939E+03  1.916860939E+03  0.000000000E+00  0.00000E+00  9.000E+00
      25     1     1     2     0     0  2.809753288E+02 -3.151306872E+02 -5.759273520E+02  7.249633095E+02  1.250000000E+02  0.00000E+00  9.000E+00
      25     1     1     2     0     0 -1.064837497E+01  4.375274228E+02 -7.029851441E+02  8.374704451E+02  1.250000000E+02  0.00000E+00  9.000E+00
       2     1     1     2   502     0 -2.703269538E+02 -1.223967356E+02 -4.518207311E+02  5.405548962E+02  7.629394531E-06  0.00000E+00  9.000E+00
#rwgt            1           1   2.2993082772216480E-002           6      295446           0
</event>
<event>
      5   9999  3.19816E-02  1.44622E+01 -1.00000E+00  1.78891E-01
       1    -1     0     0   502     0  0.000000000E+00  0.000000000E+00  1.575384137E+03  1.575384137E+03  0.000000000E+00  0.00000E+00  9.000E+00
      21    -1     0     0   501   502  0.000000000E+00  0.000000000E+00 -2.309392970E+02  2.309392970E+02  0.000000000E+00  0.00000E+00  9.000E+00
      25     1     1     2     0     0 -1.052272478E+02  1.109579271E+02 -1.065621126E+02  2.244212983E+02  1.250000000E+02  0.00000E+00  9.000E+00
      25     1     1     2     0     0  1.020448541E+02 -9.685023809E+01  6.996049726E+01  2.007799593E+02  1.250000000E+02  0.00000E+00  9.000E+00
       1     1     1     2   501     0  3.182393721E+00 -1.410768901E+01  1.381046456E+03  1.381122177E+03  1.525878906E-05  0.00000E+00  9.000E+00
#rwgt            1           1   2.9731773981769679E-002           6      295511           0
</event>
<event>
      5   9999  3.19816E-02  1.47695E+02 -1.00000E+00  1.16661E-01
      -2    -1     0     0     0   501  0.000000000E+00  0.000000000E+00  7.400875247E+02  7.400875247E+02  0.000000000E+00  0.00000E+00  9.000E+00
      21    -1     0     0   501   502  0.000000000E+00  0.000000000E+00 -2.354460834E+02  2.354460834E+02  0.000000000E+00  0.00000E+00  9.000E+00
      25     1     1     2     0     0  4.671132033E+00 -2.139763168E+01 -1.320135305E+02  1.831181322E+02  1.250000000E+02  0.00000E+00  9.000E+00
      25     1     1     2     0     0  6.654101885E+01 -1.079960367E+02  4.650052178E+01  1.840601795E+02  1.250000000E+02  0.00000E+00  9.000E+00
      -2     1     1     2     0   502 -7.121215088E+01  1.293936684E+02  5.901544500E+02  6.083552964E+02  0.000000000E+00  0.00000E+00  9.000E+00
#rwgt            2           4   4.8180386346728497E-004           6      295677           0
</event>
<event>
      5   9999  3.19816E-02  1.67559E+01 -1.00000E+00  1.72971E-01
      21    -1     0     0   502   501  0.000000000E+00  0.000000000E+00  1.424444496E+02  1.424444496E+02  0.000000000E+00  0.00000E+00  9.000E+00
      21    -1     0     0   501   511  0.000000000E+00  0.000000000E+00 -9.284968500E+02  9.284968500E+02  0.000000000E+00  0.00000E+00  9.000E+00
      25     1     1     2     0     0  4.773506156E+01 -3.272725859E+02 -3.416178435E+02  4.916439083E+02  1.250000000E+02  0.00000E+00  9.000E+00
      25     1     1     2     0     0 -5.120375858E+01  3.108796170E+02 -3.649983195E+02  4.981131742E+02  1.250000000E+02  0.00000E+00  9.000E+00
      21     1     1     2   502   511  3.468697024E+00  1.639296890E+01 -7.943623737E+01  8.118421703E+01  9.536743164E-07  0.00000E+00  9.000E+00
#rwgt            1           1   2.8518251781032743E-002           6      295696           0
</event>
<event>
      5   9999  3.19816E-02  4.45463E+01 -1.00000E+00  1.41999E-01
      21    -1     0     0   502   501  0.000000000E+00  0.000000000E+00  4.818029821E+02  4.818029821E+02  0.000000000E+00  0.00000E+00  9.000E+00
      21    -1     0     0   512   502  0.000000000E+00  0.000000000E+00 -2.894291241E+02  2.894291241E+02  0.000000000E+00  0.00000E+00  9.000E+00
      25     1     1     2     0     0  2.571658486E+02  1.134334645E+02 -6.323846004E+01  3.140470147E+02  1.250000000E+02  0.00000E+00  9.000E+00
      25     1     1     2     0     0 -2.420933066E+02 -1.553522831E+02  2.662239074E+02  4.113923551E+02  1.250000000E+02  0.00000E+00  9.000E+00
      21     1     1     2   512   501 -1.507254203E+01  4.191881859E+01 -1.061158933E+01  4.579273636E+01  9.078709013E-07  0.00000E+00  9.000E+00
#rwgt            1           1   3.0131243588105219E-002           6      295815           0
</event>
<event>
      5   9999  3.19816E-02  4.40082E+01 -1.00000E+00  1.42314E-01
      21    -1     0     0   511   501  0.000000000E+00  0.000000000E+00  3.726928974E+02  3.726928974E+02  0.000000000E+00  0.00000E+00  9.000E+00
      21    -1     0     0   501   502  0.000000000E+00  0.000000000E+00 -2.977185661E+02  2.977185661E+02  0.000000000E+00  0.00000E+00  9.000E+00
      25     1     1     2     0     0 -4.279104426E+01  6.556625666E+01 -8.227980494E+01  1.688933799E+02  1.250000000E+02  0.00000E+00  9.000E+00
      25     1     1     2     0     0  1.210306433E+01 -3.402308772E+01 -1.457257410E+02  1.953587629E+02  1.250000000E+02  0.00000E+00  9.000E+00
      21     1     1     2   511   502  3.068797993E+01 -3.154316893E+01  3.029798772E+02  3.061593206E+02  5.394796609E-06  0.00000E+00  9.000E+00
#rwgt            1           1   2.3022058823181226E-002           6      295935           0
</event>
<event>
      5   9999  3.19816E-02  4.39657E+01 -1.00000E+00  1.42339E-01
      21    -1     0     0   502   501  0.000000000E+00  0.000000000E+00  8.596710121E+02  8.596710121E+02  0.000000000E+00  0.00000E+00  9.000E+00
      21    -1     0     0   501   512  0.000000000E+00  0.000000000E+00 -5.933347167E+01  5.933347167E+01  0.000000000E+00  0.00000E+00  9.000E+00
      25     1     1     2     0     0  6.523184655E+01  5.775920051E+01  5.514221203E+02  5.720862469E+02  1.250000000E+02  0.00000E+00  9.000E+00
      25     1     1     2     0     0 -1.087467662E+02 -5.147934909E+01  2.483486051E+02  3.029488607E+02  1.250000000E+02  0.00000E+00  9.000E+00
      21     1     1     2   502   512  4.351491961E+01 -6.279851422E+00  5.668149375E-01  4.396937618E+01  2.808582310E-07  0.00000E+00  9.000E+00
#rwgt            1           1   2.7453118241677555E-002           6      295990           0
</event>
<event>
      5   9999  3.19816E-02  2.07311E+02 -1.00000E+00  1.11083E-01
      21    -1     0     0   502   501  0.000000000E+00  0.000000000E+00  3.387932183E+02  3.387932183E+02  0.000000000E+00  0.00000E+00  9.000E+00
       2    -1     0     0   501     0  0.000000000E+00  0.000000000E+00 -6.499033093E+02  6.499033093E+02  0.000000000E+00  0.00000E+00  9.000E+00
      25     1     1     2     0     0 -2.680824290E+02  1.674653237E+02 -1.947375820E+02  3.917404105E+02  1.250000000E+02  0.00000E+00  9.000E+00
      25     1     1     2     0     0  6.854119527E+01 -2.236905171E+02  1.125220879E+02  2.881346268E+02  1.250000000E+02  0.00000E+00  9.000E+00
       2     1     1     2   502     0  1.995412338E+02  5.622519344E+01 -2.288945968E+02  3.088214902E+02  6.031565972E-06  0.00000E+00  9.000E+00
#rwgt            2          13   4.2060155313112851E-004           6      296155           0
</event>
<event>
      5   9999  3.19816E-02  1.20712E+01 -1.00000E+00  1.86758E-01
      21    -1     0     0   502   501  0.000000000E+00  0.000000000E+00  4.473745593E+01  4.473745593E+01  0.000000000E+00  0.00000E+00  9.000E+00
      21    -1     0     0   501   511  0.000000000E+00  0.000000000E+00 -7.340733509E+02  7.340733509E+02  0.000000000E+00  0.00000E+00  9.000E+00
      25     1     1     2     0     0  1.521600668E+01  7.229133209E+01 -1.262375515E+02  1.924018788E+02  1.250000000E+02  0.00000E+00  9.000E+00
      25     1     1     2     0     0 -2.030469111E+01 -8.323749977E+01 -5.260665186E+02  5.474593536E+02  1.250000000E+02  0.00000E+00  9.000E+00
      21     1     1     2   502   511  5.088684433E+00  1.094616768E+01 -3.703182487E+01  3.894957445E+01  4.768371582E-07  0.00000E+00  9.000E+00
#rwgt            1           1   2.5823807308628606E-002           6      296174           0
</event>
<event>
      5   9999  3.19816E-02  3.19505E+01 -1.00000E+00  1.51164E-01
      21    -1     0     0   512   501  0.000000000E+00  0.000000000E+00  4.018793133E+02  4.018793133E+02  0.000000000E+00  0.00000E+00  9.000E+00
      21    -1     0     0   501   502  0.000000000E+00  0.000000000E+00 -1.347172631E+02  1.347172631E+02  0.000000000E+00  0.00000E+00  9.000E+00
      25     1     1     2     0     0 -1.183398859E+02  4.906690976E+01  2.825061483E+02  3.344347680E+02  1.250000000E+02  0.00000E+00  9.000E+00
      25     1     1     2     0     0  9.600805108E+01 -2.621686209E+01 -3.642935680E+01  1.638809561E+02  1.250000000E+02  0.00000E+00  9.000E+00
      21     1     1     2   512   502  2.233183480E+01 -2.285004767E+01  2.108525870E+01  3.828085237E+01  3.371747881E-07  0.00000E+00  9.000E+00
#rwgt            1           1   3.0072766053949346E-002           6      296328           0
</event>
<event>
      5   9999  3.19816E-02  6.54416E+01 -1.00000E+00  1.32719E-01
      21    -1     0     0   511   501  0.000000000E+00  0.000000000E+00  1.200594297E+03  1.200594297E+03  0.000000000E+00  0.00000E+00  9.000E+00
      21    -1     0     0   501   502  0.000000000E+00  0.000000000E+00 -2.758310320E+02  2.758310320E+02  0.000000000E+00  0.00000E+00  9.000E+00
      25     1     1     2     0     0 -1.142980426E+02  1.976246995E+02 -5.234954143E+00  2.603304999E+02  1.250000000E+02  0.00000E+00  9.000E+00
      25     1     1     2     0     0  1.782932713E+02 -2.113073531E+02  2.035749384E+01  3.041031331E+02  1.250000000E+02  0.00000E+00  9.000E+00
      21     1     1     2   511   502 -6.399522862E+01  1.368265353E+01  9.096407255E+02  9.119916961E+02  1.078959322E-05  0.00000E+00  9.000E+00
#rwgt            1           1   2.6186041787603531E-002           6      296442           0
</event>
<event>
      5   9999  3.19816E-02  1.17124E+02 -1.00000E+00  1.20817E-01
      21    -1     0     0   502   512  0.000000000E+00  0.000000000E+00  1.854620408E+02  1.854620408E+02  0.000000000E+00  0.00000E+00  9.000E+00
      21    -1     0     0   501   502  0.000000000E+00  0.000000000E+00 -8.289104310E+02  8.289104310E+02  0.000000000E+00  0.00000E+00  9.000E+00
      25     1     1     2     0     0  1.970962823E+02 -2.817843310E+02 -4.676399185E+02  5.937688499E+02  1.250000000E+02  0.00000E+00  9.000E+00
      25     1     1     2     0     0 -1.172423304E+02  1.961023813E+02 -9.052690331E+01  2.757209245E+02  1.250000000E+02  0.00000E+00  9.000E+00
      21     1     1     2   501   512 -7.985395189E+01  8.568194964E+01 -8.528156840E+01  1.448826975E+02  1.348699152E-06  0.00000E+00  9.000E+00
#rwgt            2          11   3.6489311723252585E-003           6      296579           0
</event>
<event>
      5   9999  3.19816E-02  3.35135E+01 -1.00000E+00  1.49772E-01
      21    -1     0     0   511   501  0.000000000E+00  0.000000000E+00  1.542031388E+02  1.542031388E+02  0.000000000E+00  0.00000E+00  9.000E+00
      21    -1     0     0   501   502  0.000000000E+00  0.000000000E+00 -5.346226874E+02  5.346226874E+02  0.000000000E+00  0.00000E+00  9.000E+00
      25     1     1     2     0     0  4.880814824E+01  2.309094552E+02 -1.882035322E+02  3.267215655E+02  1.250000000E+02  0.00000E+00  9.000E+00
      25     1     1     2     0     0 -2.982645910E+01 -2.032897145E+02 -2.141696818E+02  3.220403364E+02  1.250000000E+02  0.00000E+00  9.000E+00
      21     1     1     2   511   502 -1.898168914E+01 -2.761974070E+01  2.195366540E+01  4.006392421E+01  6.307962682E-07  0.00000E+00  9.000E+00
#rwgt            1           1   2.7401540566919552E-002           6      296614           0
</event>
<event>
      5   9999  3.19816E-02  2.30936E+01 -1.00000E+00  1.61375E-01
      21    -1     0     0   502   512  0.000000000E+00  0.000000000E+00  7.277031989E+02  7.277031989E+02  0.000000000E+00  0.00000E+00  9.000E+00
      21    -1     0     0   501   502  0.000000000E+00  0.000000000E+00 -1.966768604E+02  1.966768604E+02  0.000000000E+00  0.00000E+00  9.000E+00
      25     1     1     2     0     0 -1.557993548E+02 -2.843324548E+02  2.731835759E+02  4.420097849E+02  1.250000000E+02  0.00000E+00  9.000E+00
      25     1     1     2     0     0  1.752081543E+02  2.968469613E+02  1.947267375E+02  4.151620384E+02  1.250000000E+02  0.00000E+00  9.000E+00
      21     1     1     2   501   512 -1.940879949E+01 -1.251450651E+01  6.311602507E+01  6.720823604E+01  0.000000000E+00  0.00000E+00  9.000E+00
#rwgt            2          11   1.8515784238064270E-003           6      296756           0
</event>
<event>
      5   9999  3.19816E-02  1.61156E+01 -1.00000E+00  1.74498E-01
      21    -1     0     0   502   511  0.000000000E+00  0.000000000E+00  1.192612918E+03  1.192612918E+03  0.000000000E+00  0.00000E+00  9.000E+00
      21    -1     0     0   501   502  0.000000000E+00  0.000000000E+00 -5.558673890E+02  5.558673890E+02  0.000000000E+00  0.00000E+00  9.000E+00
      25     1     1     2     0     0 -4.599757638E+02  1.862915322E+02  7.383500227E+02  8.983696312E+02  1.250000000E+02  0.00000E+00  9.000E+00
      25     1     1     2     0     0  4.438720001E+02 -1.869088120E+02 -3.454472465E+02  6.057359628E+02  1.250000000E+02  0.00000E+00  9.000E+00
      21     1     1     2   501   511  1.610376367E+01  6.172798385E-01  2.438427525E+02  2.443747127E+02  3.814697266E-06  0.00000E+00  9.000E+00
#rwgt            1           1   3.1800329690411959E-002           6      296806           0
</event>
<event>
      5   9999  3.19816E-02  4.51630E+01 -1.00000E+00  1.41644E-01
      21    -1     0     0   502   501  0.000000000E+00  0.000000000E+00  2.727138746E+02  2.727138746E+02  0.000000000E+00  0.00000E+00  9.000E+00
      21    -1     0     0   512   502  0.000000000E+00  0.000000000E+00 -5.040712547E+02  5.040712547E+02  0.000000000E+00  0.00000E+00  9.000E+00
      25     1     1     2     0     0 -1.080493825E+02  1.822045383E+02 -2.393950631E+02  3.432319319E+02  1.250000000E+02  0.00000E+00  9.000E+00
      25     1     1     2     0     0  9.955476682E+01 -2.265614414E+02  1.280015329E+02  3.053696625E+02  1.250000000E+02  0.00000E+00  9.000E+00
      21     1     1     2   512   501  8.494615640E+00  4.435690311E+01 -1.199638499E+02  1.281835350E+02  1.348699152E-06  0.00000E+00  9.000E+00
#rwgt            1           1   2.8434430678381653E-002           6      297136           0
</event>
<event>
      5   9999  3.19816E-02  4.32428E+02 -1.00000E+00  1.00677E-01
       3    -1     0     0   502     0  0.000000000E+00  0.000000000E+00  2.617939772E+03  2.617939772E+03  0.000000000E+00  0.00000E+00  9.000E+00
      21    -1     0     0   501   502  0.000000000E+00  0.000000000E+00 -1.144759590E+03  1.144759590E+03  0.000000000E+00  0.00000E+00  9.000E+00
      25     1     1     2     0     0 -4.514716877E+01 -3.247816497E+02 -7.312967695E+02  8.111358406E+02  1.250000000E+02  0.00000E+00  9.000E+00
      25     1     1     2     0     0  4.660170137E+01  7.572076531E+02  6.812001957E+01  7.718811343E+02  1.250000000E+02  0.00000E+00  9.000E+00
       3     1     1     2   501     0 -1.454532606E+00 -4.324260034E+02  2.136356932E+03  2.179682387E+03  3.051757812E-05  0.00000E+00  9.000E+00
#rwgt            2          19   5.6127911021391700E-005           6      297308           0
</event>
<event>
      5   9999  3.19816E-02  4.36162E+00 -1.00000E+00  2.54917E-01
      21    -1     0     0   502   501  0.000000000E+00  0.000000000E+00  2.094569565E+02  2.094569565E+02  0.000000000E+00  0.00000E+00  9.000E+00
      21    -1     0     0   511   502  0.000000000E+00  0.000000000E+00 -1.022621638E+03  1.022621638E+03  0.000000000E+00  0.00000E+00  9.000E+00
      25     1     1     2     0     0 -3.001230428E+02 -7.922875061E+01  3.936310829E+00  3.346513563E+02  1.250000000E+02  0.00000E+00  9.000E+00
      25     1     1     2     0     0  2.965967436E+02  7.666185117E+01 -6.417434289E+02  7.220154405E+02  1.250000000E+02  0.00000E+00  9.000E+00
      21     1     1     2   511   501  3.526299156E+00  2.566899440E+00 -1.753575635E+02  1.754117979E+02  1.907348633E-06  0.00000E+00  9.000E+00
#rwgt            1           1   2.6562772047970470E-002           6      297327           0
</event>
<event>
      5   9999  3.19816E-02  7.57376E+01 -1.00000E+00  1.29511E-01
      21    -1     0     0   502   501  0.000000000E+00  0.000000000E+00  8.370628870E+02  8.370628870E+02  0.000000000E+00  0.00000E+00  9.000E+00
      21    -1     0     0   512   502  0.000000000E+00  0.000000000E+00 -3.436192763E+02  3.436192763E+02  0.000000000E+00  0.00000E+00  9.000E+00
      25     1     1     2     0     0  1.019357696E+02  1.262290575E+02  7.065650083E+02  7.356519470E+02  1.250000000E+02  0.00000E+00  9.000E+00
      25     1     1     2     0     0 -1.271133077E+02 -1.976592681E+02 -5.802809422E+01  2.724320814E+02  1.250000000E+02  0.00000E+00  9.000E+00
      21     1     1     2   512   501  2.517753814E+01  7.143021062E+01 -1.550933034E+02  1.725981349E+02  4.264961200E-06  0.00000E+00  9.000E+00
#rwgt            1           1   2.8770160835200797E-002           6      297683           0
</event>
<event>
      5   9999  3.19816E-02  6.00321E+01 -1.00000E+00  1.34691E-01
       2    -1     0     0   502     0  0.000000000E+00  0.000000000E+00  3.455223093E+03  3.455223093E+03  0.000000000E+00  0.00000E+00  9.000E+00
      21    -1     0     0   501   502  0.000000000E+00  0.000000000E+00 -7.140552764E+02  7.140552764E+02  0.000000000E+00  0.00000E+00  9.000E+00
      25     1     1     2     0     0  2.676982402E+02 -2.812730419E+02  1.799507774E+02  4.458521662E+02  1.250000000E+02  0.00000E+00  9.000E+00
      25     1     1     2     0     0 -2.138169143E+02  3.077428543E+02 -5.136433758E+02  6.479798258E+02  1.250000000E+02  0.00000E+00  9.000E+00
       2     1     1     2   501     0 -5.388132588E+01 -2.646981241E+01  3.074860415E+03  3.075446378E+03  4.315837288E-05  0.00000E+00  9.000E+00
#rwgt            1           1   2.3009096638853796E-002           6      297804           0
</event>
<event>
      5   9999  3.19816E-02  2.08554E+01 -1.00000E+00  1.64882E-01
      21    -1     0     0   502   501  0.000000000E+00  0.000000000E+00  1.676443668E+03  1.676443668E+03  0.000000000E+00  0.00000E+00  9.000E+00
      -3    -1     0     0     0   502  0.000000000E+00  0.000000000E+00 -1.020643874E+02  1.020643874E+02  0.000000000E+00  0.00000E+00  9.000E+00
      25     1     1     2     0     0  2.674143222E+01 -2.926369256E+02  1.093738207E+03  1.139403238E+03  1.250000000E+02  0.00000E+00  9.000E+00
      25     1     1     2     0     0 -4.048360280E+01  3.083244505E+02  5.055894380E+02  6.065876431E+02  1.250000000E+02  0.00000E+00  9.000E+00
      -3     1     1     2     0   501  1.374217058E+01 -1.568752490E+01 -2.494836458E+01  3.251717370E+01  1.390207266E-06  0.00000E+00  9.000E+00
#rwgt            1           1   2.4814140074348470E-002           6      297920           0
</event>
<event>
      5   9999  3.19816E-02  9.41620E+01 -1.00000E+00  1.25014E-01
      21    -1     0     0   502   501  0.000000000E+00  0.000000000E+00  1.973363004E+02  1.973363004E+02  0.000000000E+00  0.00000E+00  9.000E+00
       2    -1     0     0   501     0  0.000000000E+00  0.000000000E+00 -6.565148883E+02  6.565148883E+02  0.000000000E+00  0.00000E+00  9.000E+00
      25     1     1     2     0     0 -1.043811419E+02 -1.702121362E+02 -3.038799659E+01  2.375205768E+02  1.250000000E+02  0.00000E+00  9.000E+00
      25     1     1     2     0     0  1.985011384E+02  1.730242800E+02 -1.621523711E+02  3.335543357E+02  1.250000000E+02  0.00000E+00  9.000E+00
       2     1     1     2   502     0 -9.411999650E+01 -2.812143812E+00 -2.666382202E+02  2.827762762E+02  0.000000000E+00  0.00000E+00  9.000E+00
#rwgt            1           1   2.7026578777457209E-002           6      298120           0
</event>
<event>
      5   9999  3.19816E-02  1.14734E+02 -1.00000E+00  1.21201E-01
      21    -1     0     0   511   501  0.000000000E+00  0.000000000E+00  8.350243550E+02  8.350243550E+02  0.000000000E+00  0.00000E+00  9.000E+00
      21    -1     0     0   501   502  0.000000000E+00  0.000000000E+00 -5.838534602E+02  5.838534602E+02  0.000000000E+00  0.00000E+00  9.000E+00
      25     1     1     2     0     0 -2.943595739E+01  3.519922106E+02  3.278344970E+02  4.978608735E+02  1.250000000E+02  0.00000E+00  9.000E+00
      25     1     1     2     0     0 -7.938718709E+01 -3.883430512E+02 -4.006682566E+02  5.772977592E+02  1.250000000E+02  0.00000E+00  9.000E+00
      21     1     1     2   511   502  1.088231445E+02  3.635084055E+01  3.240046544E+02  3.437191826E+02  5.394796609E-06  0.00000E+00  9.000E+00
#rwgt            1           1   3.0733045609527408E-002           6      298180           0
</event>
<event>
      5   9999  3.19816E-02  2.97291E+01 -1.00000E+00  1.53314E-01
       1    -1     0     0   502     0  0.000000000E+00  0.000000000E+00  1.179935684E+03  1.179935684E+03  0.000000000E+00  0.00000E+00  9.000E+00
      21    -1     0     0   501   502  0.000000000E+00  0.000000000E+00 -4.809404625E+02  4.809404625E+02  0.000000000E+00  0.00000E+00  9.000E+00
      25     1     1     2     0     0  2.109626167E+02  4.474578168E+01 -2.417370714E+02  3.472307912E+02  1.250000000E+02  0.00000E+00  9.000E+00
      25     1     1     2     0     0 -1.812342142E+02 -4.494912732E+01 -1.184737194E+02  2.540222168E+02  1.250000000E+02  0.00000E+00  9.000E+00
       1     1     1     2   501     0 -2.972840255E+01  2.033456336E-01  1.059206012E+03  1.059623139E+03  1.525878906E-05  0.00000E+00  9.000E+00
#rwgt            1           1   2.7600259854273088E-002           6      298276           0
</event>
<event>
      5   9999  3.19816E-02  2.18409E+02 -1.00000E+00  1.10273E-01
      21    -1     0     0   502   501  0.000000000E+00  0.000000000E+00  3.565184833E+02  3.565184833E+02  0.000000000E+00  0.00000E+00  9.000E+00
      21    -1     0     0   511   502  0.000000000E+00  0.000000000E+00 -5.109134955E+02  5.109134955E+02  0.000000000E+00  0.00000E+00  9.000E+00
      25     1     1     2     0     0  2.580991137E+00 -4.421469456E+01 -2.611822333E+01  1.351619855E+02  1.250000000E+02  0.00000E+00  9.000E+00
      25     1     1     2     0     0  2.042625862E+02  1.143461487E+02  2.039419932E+02  3.346872905E+02  1.250000000E+02  0.00000E+00  9.000E+00
      21     1     1     2   511   501 -2.068435773E+02 -7.013145417E+01 -3.322187821E+02  3.975827027E+02  5.394796609E-06  0.00000E+00  9.000E+00
#rwgt            1           1   3.1542667327629614E-002           6      298377           0
</event>
<event>
      5   9999  3.19816E-02  3.82741E+02 -1.00000E+00  1.02265E-01
      21    -1     0     0   502   501  0.000000000E+00  0.000000000E+00  5.117555841E+02  5.117555841E+02  0.000000000E+00  0.00000E+00  9.000E+00
      21    -1     0     0   512   502  0.000000000E+00  0.000000000E+00 -5.390369911E+02  5.390369911E+02  0.000000000E+00  0.00000E+00  9.000E+00
      25     1     1     2     0     0 -7.924381767E+00  4.118581573E+02  1.476365212E+02  4.550950230E+02  1.250000000E+02  0.00000E+00  9.000E+00
      25     1     1     2     0     0 -8.710787385E+01 -4.110245903E+01 -1.407157248E+02  2.114310976E+02  1.250000000E+02  0.00000E+00  9.000E+00
      21     1     1     2   512   501  9.503225561E+01 -3.707556983E+02 -3.420220344E+01  3.842664546E+02  3.504023184E-06  0.00000E+00  9.000E+00
#rwgt            2          11   3.2936401986644274E-003           6      298475           0
</event>
<event>
      5   9999  3.30682E-02  2.37687E+02 -1.00000E+00  1.08985E-01
      21    -1     0     0   511   501  0.000000000E+00  0.000000000E+00  9.568019378E+02  9.568019378E+02  0.000000000E+00  0.00000E+00  9.000E+00
      21    -1     0     0   501   502  0.000000000E+00  0.000000000E+00 -2.674735937E+03  2.674735937E+03  0.000000000E+00  0.00000E+00  9.000E+00
      25     1     1     2     0     0 -1.441286739E+02 -6.719265894E+02 -1.670128732E+03  1.810307542E+03  1.250000000E+02  0.00000E+00  9.000E+00
      25     1     1     2     0     0  6.254156052E+01  4.486805539E+02 -8.572478235E+02  9.776116392E+02  1.250000000E+02  0.00000E+00  9.000E+00
      21     1     1     2   511   502  8.158711336E+01  2.232460355E+02  8.094425557E+02  8.436186938E+02  1.525878906E-05  0.00000E+00  9.000E+00
#rwgt            1           1   9.8373605214163801E-002           6      298495           0
</event>
<event>
      5   9999  3.19816E-02  1.68275E+01 -1.00000E+00  1.72805E-01
      21    -1     0     0   502   501  0.000000000E+00  0.000000000E+00  8.658024036E+02  8.658024036E+02  0.000000000E+00  0.00000E+00  9.000E+00
      21    -1     0     0   501   512  0.000000000E+00  0.000000000E+00 -5.237145242E+01  5.237145242E+01  0.000000000E+00  0.00000E+00  9.000E+00
      25     1     1     2     0     0 -1.544617627E+02 -5.458420295E+01  4.594127875E+02  5.035106559E+02  1.250000000E+02  0.00000E+00  9.000E+00
      25     1     1     2     0     0  1.436742115E+02  4.166928469E+01  3.430651568E+02  3.945849847E+02  1.250000000E+02  0.00000E+00  9.000E+00
      21     1     1     2   502   512  1.078755113E+01  1.291491826E+01  1.095300694E+01  2.007821541E+01  2.064765462E-07  0.00000E+00  9.000E+00
#rwgt            1           1   3.7070462302679380E-002           6      298574           0
</event>
<event>
      5   9999  3.19816E-02  5.51730E+01 -1.00000E+00  1.36679E-01
       2    -1     0     0   502     0  0.000000000E+00  0.000000000E+00  1.658940483E+03  1.658940483E+03  0.000000000E+00  0.00000E+00  9.000E+00
      21    -1     0     0   501   502  0.000000000E+00  0.000000000E+00 -8.008208524E+02  8.008208524E+02  0.000000000E+00  0.00000E+00  9.000E+00
      25     1     1     2     0     0  4.301276810E+01 -6.233518263E+02 -5.703845859E+02  8.552082632E+02  1.250000000E+02  0.00000E+00  9.000E+00
      25     1     1     2     0     0 -8.635910197E+01  6.574861398E+02  1.338500515E+03  1.498984506E+03  1.250000000E+02  0.00000E+00  9.000E+00
       2     1     1     2   501     0  4.334633387E+01 -3.413431347E+01  9.000370119E+01  1.055685666E+02  0.000000000E+00  0.00000E+00  9.000E+00
#rwgt            1           1   2.8455409612122545E-002           6      298695           0
</event>
<event>
      5   9999  3.19816E-02  1.18464E+02 -1.00000E+00  1.20606E-01
      21    -1     0     0   502   501  0.000000000E+00  0.000000000E+00  1.341782284E+03  1.341782284E+03  0.000000000E+00  0.00000E+00  9.000E+00
      -2    -1     0     0     0   502  0.000000000E+00  0.000000000E+00 -1.306709170E+02  1.306709170E+02  0.000000000E+00  0.00000E+00  9.000E+00
      25     1     1     2     0     0  2.599022826E+02  2.153525197E+01  7.368388818E+02  7.915614325E+02  1.250000000E+02  0.00000E+00  9.000E+00
      25     1     1     2     0     0 -3.223309477E+02 -1.222146127E+02  3.913080582E+02  5.362654639E+02  1.250000000E+02  0.00000E+00  9.000E+00
      -2     1     1     2     0   501  6.242866504E+01  1.006793607E+02  8.296442737E+01  1.446263050E+02  1.348699152E-06  0.00000E+00  9.000E+00
#rwgt            2           9   2.8563248226159351E-005           6      298883           0
</event>
<event>
      5   9999  3.19816E-02  1.85752E+01 -1.00000E+00  1.69062E-01
      21    -1     0     0   502   501  0.000000000E+00  0.000000000E+00  1.877370217E+02  1.877370217E+02  0.000000000E+00  0.00000E+00  9.000E+00
      21    -1     0     0   501   511  0.000000000E+00  0.000000000E+00 -2.512546935E+03  2.512546935E+03  0.000000000E+00  0.00000E+00  9.000E+00
      25     1     1     2     0     0  2.048042663E+01  6.708610174E+02 -1.028043872E+03  1.234087986E+03  1.250000000E+02  0.00000E+00  9.000E+00
      25     1     1     2     0     0 -2.176774012E+01 -6.523305023E+02 -1.246095267E+03  1.412227791E+03  1.250000000E+02  0.00000E+00  9.000E+00
      21     1     1     2   502   511  1.287313490E+00 -1.853051510E+01 -5.067077398E+01  5.396818045E+01  0.000000000E+00  0.00000E+00  9.000E+00
#rwgt            1           1   2.8028759594549261E-002           6      298917           0
</event>
<event>
      5   9999  3.19816E-02  8.03701E+01 -1.00000E+00  1.28253E-01
      21    -1     0     0   502   501  0.000000000E+00  0.000000000E+00  2.435001926E+02  2.435001926E+02  0.000000000E+00  0.00000E+00  9.000E+00
       1    -1     0     0   501     0  0.000000000E+00  0.000000000E+00 -2.093352316E+03  2.093352316E+03  0.000000000E+00  0.00000E+00  9.000E+00
      25     1     1     2     0     0  2.393012358E+02 -2.727074254E+02 -2.754465873E+02  4.723666413E+02  1.250000000E+02  0.00000E+00  9.000E+00
      25     1     1     2     0     0 -1.917366368E+02  3.374913358E+02 -1.449614868E+02  4.327842098E+02  1.250000000E+02  0.00000E+00  9.000E+00
       1     1     1     2   502     0 -4.756459898E+01 -6.478391032E+01 -1.429444049E+03  1.431701657E+03  0.000000000E+00  0.00000E+00  9.000E+00
#rwgt            1           1   2.8994622204598326E-002           6      299145           0
</event>
<event>
      5   9999  3.19816E-02  3.51854E+01 -1.00000E+00  1.48381E-01
      21    -1     0     0   502   511  0.000000000E+00  0.000000000E+00  7.024948632E+02  7.024948632E+02  0.000000000E+00  0.00000E+00  9.000E+00
      21    -1     0     0   501   502  0.000000000E+00  0.000000000E+00 -3.407301435E+02  3.407301435E+02  0.000000000E+00  0.00000E+00  9.000E+00
      25     1     1     2     0     0  8.142004805E+00  2.274425085E+02 -1.832350493E+02  3.177994182E+02  1.250000000E+02  0.00000E+00  9.000E+00
      25     1     1     2     0     0  2.219594392E+01 -2.096204898E+02  7.811456307E+01  2.572164354E+02  1.250000000E+02  0.00000E+00  9.000E+00
      21     1     1     2   501   511 -3.033794872E+01 -1.782201869E+01  4.668852059E+02  4.682091531E+02  5.394796609E-06  0.00000E+00  9.000E+00
#rwgt            2          11   2.3559377755641756E-003           6      299226           0
</event>
<event>
      5   9999  3.19816E-02  6.92252E+01 -1.00000E+00  1.31466E-01
      21    -1     0     0   502   501  0.000000000E+00  0.000000000E+00  2.334331682E+03  2.334331682E+03  0.000000000E+00  0.00000E+00  9.000E+00
      21    -1     0     0   501   512  0.000000000E+00  0.000000000E+00 -1.039859179E+03  1.039859179E+03  0.000000000E+00  0.00000E+00  9.000E+00
      25     1     1     2     0     0  8.536138119E+02  1.422825763E-01  1.993259346E+03  2.171949443E+03  1.250000000E+02  0.00000E+00  9.000E+00
      25     1     1     2     0     0 -8.657259556E+02 -6.829963750E+01 -5.430975307E+02  1.031855706E+03  1.250000000E+02  0.00000E+00  9.000E+00
      21     1     1     2   502   512  1.211214365E+01  6.815735492E+01 -1.556893117E+02  1.703857120E+02  1.907348633E-06  0.00000E+00  9.000E+00
#rwgt            1           1   4.1463354477339107E-002           6      299276           0
</event>
<event>
      5   9999  3.19816E-02  3.89258E+02 -1.00000E+00  1.02042E-01
      21    -1     0     0   511   501  0.000000000E+00  0.000000000E+00  1.365548633E+02  1.365548633E+02  0.000000000E+00  0.00000E+00  9.000E+00
      21    -1     0     0   501   502  0.000000000E+00  0.000000000E+00 -1.575796222E+03  1.575796222E+03  0.000000000E+00  0.00000E+00  9.000E+00
      25     1     1     2     0     0  7.797576644E+01 -2.437450010E+02 -3.246537636E+02  4.318760376E+02  1.250000000E+02  0.00000E+00  9.000E+00
      25     1     1     2     0     0 -4.612387759E+01 -1.442073898E+02 -6.243453504E+02  6.544885789E+02  1.250000000E+02  0.00000E+00  9.000E+00
      21     1     1     2   511   502 -3.185188885E+01  3.879523909E+02 -4.902422447E+02  6.259864686E+02  7.629394531E-06  0.00000E+00  9.000E+00
#rwgt            1           1   2.8921764215098511E-002           6      299497           0
</event>
<event>
      5   9999  3.19816E-02  1.43416E+02 -1.00000E+00  1.17171E-01
      -1    -1     0     0     0   501  0.000000000E+00  0.000000000E+00  8.660907376E+01  8.660907376E+01  0.000000000E+00  0.00000E+00  9.000E+00
      21    -1     0     0   501   502  0.000000000E+00  0.000000000E+00 -2.507711073E+03  2.507711073E+03  0.000000000E+00  0.00000E+00  9.000E+00
      25     1     1     2     0     0  1.022128059E+02  1.729501741E+02 -8.202495345E+02  8.536940431E+02  1.250000000E+02  0.00000E+00  9.000E+00
      25     1     1     2     0     0 -1.535479656E+02 -3.903683958E+01 -1.583335578E+03  1.596144544E+03  1.250000000E+02  0.00000E+00  9.000E+00
      -1     1     1     2     0   502  5.133515977E+01 -1.339133345E+02 -1.751688681E+01  1.444815598E+02  4.067116287E-06  0.00000E+00  9.000E+00
#rwgt            2           5   4.2046685821582516E-004           6      299645           0
</event>
<event>
      5   9999  3.19816E-02  1.55413E+02 -1.00000E+00  1.15787E-01
      21    -1     0     0   502   501  0.000000000E+00  0.000000000E+00  1.964024741E+02  1.964024741E+02  0.000000000E+00  0.00000E+00  9.000E+00
      21    -1     0     0   501   511  0.000000000E+00  0.000000000E+00 -9.100851987E+02  9.100851987E+02  0.000000000E+00  0.00000E+00  9.000E+00
      25     1     1     2     0     0  2.829477053E+02  1.503523993E+01 -2.057883265E+02  3.718323516E+02  1.250000000E+02  0.00000E+00  9.000E+00
      25     1     1     2     0     0 -3.048323755E+02  1.388287527E+02 -2.599698542E+02  4.420469713E+02  1.250000000E+02  0.00000E+00  9.000E+00
      21     1     1     2   502   511  2.188467017E+01 -1.538639926E+02 -2.479245438E+02  2.926083499E+02  2.697398305E-06  0.00000E+00  9.000E+00
#rwgt            1           1   3.0269485919200239E-002           6      299694           0
</event>
<event>
      5   9999  3.19816E-02  5.27471E+01 -1.00000E+00  1.37763E-01
      21    -1     0     0   502   501  0.000000000E+00  0.000000000E+00  2.143748206E+02  2.143748206E+02  0.000000000E+00  0.00000E+00  9.000E+00
      21    -1     0     0   512   502  0.000000000E+00  0.000000000E+00 -1.293898911E+03  1.293898911E+03  0.000000000E+00  0.00000E+00  9.000E+00
      25     1     1     2     0     0 -1.581785387E+02  3.604768759E+02 -1.408870137E+02  4.363922305E+02  1.250000000E+02  0.00000E+00  9.000E+00
      25     1     1     2     0     0  1.545781096E+02 -4.131010028E+02 -7.805151500E+02  9.051937527E+02  1.250000000E+02  0.00000E+00  9.000E+00
      21     1     1     2   512   501  3.600429146E+00  5.262412685E+01 -1.581219271E+02  1.666877489E+02  1.907348633E-06  0.00000E+00  9.000E+00
#rwgt            1           1   3.1472313133291942E-002           6      299747           0
</event>
<event>
      5   9999  3.19816E-02  4.81327E+01 -1.00000E+00  1.40025E-01
      21    -1     0     0   502   511  0.000000000E+00  0.000000000E+00  1.935593909E+02  1.935593909E+02  0.000000000E+00  0.00000E+00  9.000E+00
      21    -1     0     0   501   502  0.000000000E+00  0.000000000E+00 -2.303443989E+02  2.303443989E+02  0.000000000E+00  0.00000E+00  9.000E+00
      25     1     1     2     0     0  4.475842995E+01  6.289834458E+01  4.291017976E+01  1.530548997E+02  1.250000000E+02  0.00000E+00  9.000E+00
      25     1     1     2     0     0 -3.529828147E+01 -1.570445213E+01 -1.413656785E+02  1.926184144E+02  1.250000000E+02  0.00000E+00  9.000E+00
      21     1     1     2   501   511 -9.460148485E+00 -4.719389246E+01  6.167049078E+01  7.823047569E+01  0.000000000E+00  0.00000E+00  9.000E+00
#rwgt            1           1   2.0718087134484316E-002           6      299932           0
</event>
<event>
      5   9999  3.19816E-02  1.65701E+01 -1.00000E+00  1.73405E-01
      21    -1     0     0   502   501  0.000000000E+00  0.000000000E+00  3.681828406E+02  3.681828406E+02  0.000000000E+00  0.00000E+00  9.000E+00
      21    -1     0     0   512   502  0.000000000E+00  0.000000000E+00 -2.058653605E+02  2.058653605E+02  0.000000000E+00  0.00000E+00  9.000E+00
      25     1     1     2     0     0  1.448245909E+02  1.594369423E+02  5.453571564E+01  2.549381199E+02  1.250000000E+02  0.00000E+00  9.000E+00
      25     1     1     2     0     0 -1.570803821E+02 -1.705887218E+02  1.280665476E+02  2.929177343E+02  1.250000000E+02  0.00000E+00  9.000E+00
      21     1     1     2   512   501  1.225579121E+01  1.115177943E+01 -2.028478316E+01  2.619234679E+01  2.384185791E-07  0.00000E+00  9.000E+00
#rwgt            1           1   2.6003693387313304E-002           6      300008           0
</event>
<event>
      5   9999  3.19816E-02  3.89764E+01 -1.00000E+00  1.45542E-01
      -3    -1     0     0     0   501  0.000000000E+00  0.000000000E+00  2.526810146E+02  2.526810146E+02  0.000000000E+00  0.00000E+00  9.000E+00
      21    -1     0     0   501   502  0.000000000E+00  0.000000000E+00 -6.179142052E+02  6.179142052E+02  0.000000000E+00  0.00000E+00  9.000E+00
      25     1     1     2     0     0 -2.096991619E+02  1.088248860E+02 -4.412970544E+02  5.159308913E+02  1.250000000E+02  0.00000E+00  9.000E+00
      25     1     1     2     0     0  2.480444321E+02 -1.018391830E+02  3.476478815E+01  2.978772398E+02  1.250000000E+02  0.00000E+00  9.000E+00
      -3     1     1     2     0   502 -3.834527022E+01 -6.985703058E+00  4.129907571E+01  5.678708876E+01  6.743495762E-07  0.00000E+00  9.000E+00
#rwgt            1           1   2.8465041172479548E-002           6      300136           0
</event>
<event>
      5   9999  3.19816E-02  9.05367E+00 -1.00000E+00  2.00884E-01
      21    -1     0     0   502   501  0.000000000E+00  0.000000000E+00  2.459914484E+03  2.459914484E+03  0.000000000E+00  0.00000E+00  9.000E+00
      21    -1     0     0   501   511  0.000000000E+00  0.000000000E+00 -5.382327538E+01  5.382327538E+01  0.000000000E+00  0.00000E+00  9.000E+00
      25     1     1     2     0     0  1.937856905E+02 -2.510149070E+02  1.129116186E+03  1.179444674E+03  1.250000000E+02  0.00000E+00  9.000E+00
      25     1     1     2     0     0 -2.024064761E+02  2.482488510E+02  1.279500840E+03  1.324893683E+03  1.250000000E+02  0.00000E+00  9.000E+00
      21     1     1     2   502   511  8.620785547E+00  2.766056010E+00 -2.525816954E+00  9.399402139E+00  2.995096332E-07  0.00000E+00  9.000E+00
#rwgt            1           1   8.1504530277268200E-002           6      300283           0
</event>
<event>
      5   9999  3.19816E-02  4.18124E+01 -1.00000E+00  1.43657E-01
      21    -1     0     0   512   501  0.000000000E+00  0.000000000E+00  9.770158278E+02  9.770158278E+02  0.000000000E+00  0.00000E+00  9.000E+00
      21    -1     0     0   501   502  0.000000000E+00  0.000000000E+00 -1.237386747E+02  1.237386747E+02  0.000000000E+00  0.00000E+00  9.000E+00
      25     1     1     2     0     0  7.905449688E+01  5.871925545E+01  6.873734689E+02  7.055528685E+02  1.250000000E+02  0.00000E+00  9.000E+00
      25     1     1     2     0     0 -7.357337157E+01 -1.726762470E+01 -6.547707567E+01  1.600732935E+02  1.250000000E+02  0.00000E+00  9.000E+00
      21     1     1     2   512   502 -5.481125314E+00 -4.145163076E+01  2.313807599E+02  2.351283404E+02  3.814697266E-06  0.00000E+00  9.000E+00
#rwgt            1           1   2.6253430673025394E-002           6      300508           0
</event>
<event>
      5   9999  3.19816E-02  4.36009E+01 -1.00000E+00  1.42556E-01
      21    -1     0     0   511   501  0.000000000E+00  0.000000000E+00  1.195884210E+03  1.195884210E+03  0.000000000E+00  0.00000E+00  9.000E+00
      21    -1     0     0   501   502  0.000000000E+00  0.000000000E+00 -3.514668049E+02  3.514668049E+02  0.000000000E+00  0.00000E+00  9.000E+00
      25     1     1     2     0     0  1.795108197E+02  4.500474635E+02 -5.905505521E+01  5.038644196E+02  1.250000000E+02  0.00000E+00  9.000E+00
      25     1     1     2     0     0 -1.377110156E+02 -4.376453274E+02  7.919838820E+02  9.237755278E+02  1.250000000E+02  0.00000E+00  9.000E+00
      21     1     1     2   511   502 -4.179980418E+01 -1.240213607E+01  1.114885778E+02  1.197110671E+02  1.907348633E-06  0.00000E+00  9.000E+00
#rwgt            1           1   3.0094121003801114E-002           6      300611           0
</event>
<event>
      5   9999  3.19816E-02  6.24334E+00 -1.00000E+00  2.22823E-01
      21    -1     0     0   502   501  0.000000000E+00  0.000000000E+00  8.748576851E+01  8.748576851E+01  0.000000000E+00  0.00000E+00  9.000E+00
      21    -1     0     0   501   512  0.000000000E+00  0.000000000E+00 -5.301562000E+02  5.301562000E+02  0.000000000E+00  0.00000E+00  9.000E+00
      25     1     1     2     0     0  2.487106331E+01  7.987760864E+01 -1.378357304E+01  1.510430039E+02  1.250000000E+02  0.00000E+00  9.000E+00
      25     1     1     2     0     0 -3.015979723E+01 -8.319553304E+01 -2.933950621E+02  3.309634006E+02  1.250000000E+02  0.00000E+00  9.000E+00
      21     1     1     2   502   512  5.288733928E+00  3.317924400E+00 -1.354917963E+02  1.356355639E+02  0.000000000E+00  0.00000E+00  9.000E+00
#rwgt            1           1   2.8417646525628320E-002           6      300707           0
</event>
<event>
      5   9999  3.19816E-02  5.01622E+01 -1.00000E+00  1.38995E-01
      21    -1     0     0   502   501  0.000000000E+00  0.000000000E+00  9.136112900E+02  9.136112900E+02  0.000000000E+00  0.00000E+00  9.000E+00
      21    -1     0     0   501   511  0.000000000E+00  0.000000000E+00 -6.989641832E+01  6.989641832E+01  0.000000000E+00  0.00000E+00  9.000E+00
      25     1     1     2     0     0 -1.181817550E+02 -7.163205118E+01  6.189017718E+02  6.463454813E+02  1.250000000E+02  0.00000E+00  9.000E+00
      25     1     1     2     0     0  1.444376890E+02  2.889011833E+01  2.088995514E+02  2.845363027E+02  1.250000000E+02  0.00000E+00  9.000E+00
      21     1     1     2   502   511 -2.625593402E+01  4.274193286E+01  1.591354845E+01  5.262592441E+01  8.596304120E-07  0.00000E+00  9.000E+00
#rwgt            1           1   2.8959514598691470E-002           6      300895           0
</event>
<event>
      5   9999  3.19816E-02  1.49469E+02 -1.00000E+00  1.16455E-01
      21    -1     0     0   512   501  0.000000000E+00  0.000000000E+00  3.163485039E+02  3.163485039E+02  0.000000000E+00  0.00000E+00  9.000E+00
      21    -1     0     0   501   502  0.000000000E+00  0.000000000E+00 -1.904788691E+03  1.904788691E+03  0.000000000E+00  0.00000E+00  9.000E+00
      25     1     1     2     0     0  2.503039838E+02 -4.901356260E+02 -1.471444534E+03  1.575962890E+03  1.250000000E+02  0.00000E+00  9.000E+00
      25     1     1     2     0     0 -3.086074678E+02  3.525066689E+02 -8.427095713E+01  4.921647235E+02  1.250000000E+02  0.00000E+00  9.000E+00
      21     1     1     2   512   502  5.830348406E+01  1.376289571E+02 -3.272469615E+01  1.530095808E+02  2.861022949E-06  0.00000E+00  9.000E+00
#rwgt            2          11   6.1102677061917274E-003           6      301068           0
</event>
<event>
      5   9999  3.19816E-02  5.51342E+02 -1.00000E+00  9.76608E-02
      21    -1     0     0   502   501  0.000000000E+00  0.000000000E+00  4.092665403E+02  4.092665403E+02  0.000000000E+00  0.00000E+00  9.000E+00
      21    -1     0     0   501   511  0.000000000E+00  0.000000000E+00 -9.509675009E+02  9.509675009E+02  0.000000000E+00  0.00000E+00  9.000E+00
      25     1     1     2     0     0 -7.066463008E+01 -6.327304289E+00 -9.373826770E+01  1.715965838E+02  1.250000000E+02  0.00000E+00  9.000E+00
      25     1     1     2     0     0 -4.711845797E+02  1.081946110E+02 -3.648690082E+01  5.006768178E+02  1.250000000E+02  0.00000E+00  9.000E+00
      21     1     1     2   502   511  5.418492097E+02 -1.018673067E+02 -4.114757921E+02  6.879606397E+02  7.629394531E-06  0.00000E+00  9.000E+00
#rwgt            2          11   4.3381395888871513E-003           6      301148           0
</event>
<event>
      5   9999  3.19816E-02  3.32774E+01 -1.00000E+00  1.49977E-01
      21    -1     0     0   502   501  0.000000000E+00  0.000000000E+00  1.534201755E+03  1.534201755E+03  0.000000000E+00  0.00000E+00  9.000E+00
      21    -1     0     0   501   512  0.000000000E+00  0.000000000E+00 -1.109557671E+02  1.109557671E+02  0.000000000E+00  0.00000E+00  9.000E+00
      25     1     1     2     0     0 -1.562027768E+01 -1.089278320E+02 -2.352489632E+01  1.681894361E+02  1.250000000E+02  0.00000E+00  9.000E+00
      25     1     1     2     0     0  4.169869011E+01  1.295991735E+02  1.425591565E+03  1.437522535E+03  1.250000000E+02  0.00000E+00  9.000E+00
      21     1     1     2   502   512 -2.607841243E+01 -2.067134148E+01  2.117931836E+01  3.944555082E+01  0.000000000E+00  0.00000E+00  9.000E+00
#rwgt            1           1   3.1795841725431866E-002           6      301183           0
</event>
<event>
      5   9999  3.19816E-02  1.74140E+02 -1.00000E+00  1.13882E-01
       1    -1     0     0   502     0  0.000000000E+00  0.000000000E+00  1.195897766E+03  1.195897766E+03  0.000000000E+00  0.00000E+00  9.000E+00
      21    -1     0     0   501   502  0.000000000E+00  0.000000000E+00 -7.430358029E+02  7.430358029E+02  0.000000000E+00  0.00000E+00  9.000E+00
      25     1     1     2     0     0 -2.630167049E+02  2.048321400E+02 -1.519596777E+02  3.871055880E+02  1.250000000E+02  0.00000E+00  9.000E+00
      25     1     1     2     0     0  4.055089412E+02 -1.047282730E+02 -3.631910505E+02  5.682765628E+02  1.250000000E+02  0.00000E+00  9.000E+00
       1     1     1     2   501     0 -1.424922363E+02 -1.001038671E+02  9.680126918E+02  9.835514186E+02  1.078959322E-05  0.00000E+00  9.000E+00
#rwgt            1           1   2.7999558989247726E-002           6      301285           0
</event>
<event>
      5   9999  3.19816E-02  2.88891E+02 -1.00000E+00  1.06127E-01
      21    -1     0     0   502   501  0.000000000E+00  0.000000000E+00  8.880549285E+02  8.880549285E+02  0.000000000E+00  0.00000E+00  9.000E+00
      21    -1     0     0   501   511  0.000000000E+00  0.000000000E+00 -1.045277019E+03  1.045277019E+03  0.000000000E+00  0.00000E+00  9.000E+00
      25     1     1     2     0     0  4.373839918E+02 -2.055552956E+02  4.855925677E+02  6.964071206E+02  1.250000000E+02  0.00000E+00  9.000E+00
      25     1     1     2     0     0 -6.284332466E+02  4.222541332E+02 -4.496244030E+02  8.893896796E+02  1.250000000E+02  0.00000E+00  9.000E+00
      21     1     1     2   502   511  1.910492547E+02 -2.166988376E+02 -1.931902555E+02  3.475351475E+02  3.814697266E-06  0.00000E+00  9.000E+00
#rwgt            2          11   5.3162133073878168E-003           6      301374           0
</event>
<event>
      5   9999  3.19816E-02  1.01104E+02 -1.00000E+00  1.23614E-01
      21    -1     0     0   502   501  0.000000000E+00  0.000000000E+00  2.567396937E+02  2.567396937E+02  0.000000000E+00  0.00000E+00  9.000E+00
      21    -1     0     0   501   512  0.000000000E+00  0.000000000E+00 -1.735290669E+03  1.735290669E+03  0.000000000E+00  0.00000E+00  9.000E+00
      25     1     1     2     0     0 -3.495486222E+02 -1.072207907E+02  1.508675924E+01  3.866951610E+02  1.250000000E+02  0.00000E+00  9.000E+00
      25     1     1     2     0     0  4.305235519E+02  1.677607321E+02 -1.114376150E+03  1.212828676E+03  1.250000000E+02  0.00000E+00  9.000E+00
      21     1     1     2   502   512 -8.097492969E+01 -6.053994135E+01 -3.792615839E+02  3.925065258E+02  7.629394531E-06  0.00000E+00  9.000E+00
#rwgt            1           1   2.9527640764764947E-002           6      301394           0
</event>
<event>
      5   9999  3.19816E-02  2.40452E+01 -1.00000E+00  1.60028E-01
      21    -1     0     0   511   501  0.000000000E+00  0.000000000E+00  2.199531401E+02  2.199531401E+02  0.000000000E+00  0.00000E+00  9.000E+00
      21    -1     0     0   501   502  0.000000000E+00  0.000000000E+00 -1.689951249E+03  1.689951249E+03  0.000000000E+00  0.00000E+00  9.000E+00
      25     1     1     2     0     0 -5.152014559E+02  1.257588085E+02 -8.183264922E+02  9.831231184E+02  1.250000000E+02  0.00000E+00  9.000E+00
      25     1     1     2     0     0  5.385132720E+02 -1.316519639E+02 -6.822189727E+02  8.879056878E+02  1.250000000E+02  0.00000E+00  9.000E+00
      21     1     1     2   511   502 -2.331181608E+01  5.893155363E+00  3.054735560E+01  3.887558339E+01  5.840038640E-07  0.00000E+00  9.000E+00
#rwgt            1           1   3.2061955967827724E-002           6      301474           0
</event>
<event>
      5   9999  3.19816E-02  4.70487E+02 -1.00000E+00  9.96085E-02
      21    -1     0     0   512   501  0.000000000E+00  0.000000000E+00  1.146984575E+03  1.146984575E+03  0.000000000E+00  0.00000E+00  9.000E+00
      21    -1     0     0   501   502  0.000000000E+00  0.000000000E+00 -8.857680089E+02  8.857680089E+02  0.000000000E+00  0.00000E+00  9.000E+00
      25     1     1     2     0     0  6.016632992E+02 -4.641316598E+02  3.121159729E+02  8.309382070E+02  1.250000000E+02  0.00000E+00  9.000E+00
      25     1     1     2     0     0 -1.565414382E+02  6.165268816E+02 -2.448003428E+02  6.929378222E+02  1.250000000E+02  0.00000E+00  9.000E+00
      21     1     1     2   512   502 -4.451218610E+02 -1.523952218E+02  1.939009355E+02  5.088765543E+02  6.607249480E-06  0.00000E+00  9.000E+00
#rwgt            1           1   3.4036808132982974E-002           6      301703           0
</event>
<event>
      5   9999  3.19816E-02  5.43580E+01 -1.00000E+00  1.37036E-01
      21    -1     0     0   502   501  0.000000000E+00  0.000000000E+00  2.271836068E+02  2.271836068E+02  0.000000000E+00  0.00000E+00  9.000E+00
       2    -1     0     0   501     0  0.000000000E+00  0.000000000E+00 -1.643303937E+03  1.643303937E+03  0.000000000E+00  0.00000E+00  9.000E+00
      25     1     1     2     0     0  6.545883845E+01  2.769385565E+01  3.672909088E+00  1.438412299E+02  1.250000000E+02  0.00000E+00  9.000E+00
      25     1     1     2     0     0 -1.121777423E+02 -5.548112157E+01  1.017990162E+02  2.040834154E+02  1.250000000E+02  0.00000E+00  9.000E+00
       2     1     1     2   502     0  4.671890386E+01  2.778726593E+01 -1.521592255E+03  1.522562898E+03  2.157918644E-05  0.00000E+00  9.000E+00
#rwgt            1           1   2.7533989343639143E-002           6      301743           0
</event>
<event>
      5   9999  3.19816E-02  6.35198E+01 -1.00000E+00  1.33394E-01
      21    -1     0     0   502   501  0.000000000E+00  0.000000000E+00  7.722196133E+01  7.722196133E+01  0.000000000E+00  0.00000E+00  9.000E+00
      21    -1     0     0   501   511  0.000000000E+00  0.000000000E+00 -1.133528224E+03  1.133528224E+03  0.000000000E+00  0.00000E+00  9.000E+00
      25     1     1     2     0     0  4.503553393E+01 -6.260697680E+01 -1.963817388E+01  1.481839760E+02  1.250000000E+02  0.00000E+00  9.000E+00
      25     1     1     2     0     0 -5.657307228E+00  1.124479375E+02 -8.019180124E+02  8.193741773E+02  1.250000000E+02  0.00000E+00  9.000E+00
      21     1     1     2   502   511 -3.937822670E+01 -4.984096071E+01 -2.347500766E+02  2.431920322E+02  0.000000000E+00  0.00000E+00  9.000E+00
#rwgt            1           1   2.8522058884808681E-002           6      301800           0
</event>
<event>
      5   9999  3.19816E-02  2.25311E+01 -1.00000E+00  1.62209E-01
      21    -1     0     0   502   501  0.000000000E+00  0.000000000E+00  8.463177865E+02  8.463177865E+02  0.000000000E+00  0.00000E+00  9.000E+00
      21    -1     0     0   501   512  0.000000000E+00  0.000000000E+00 -8.363573346E+02  8.363573346E+02  0.000000000E+00  0.00000E+00  9.000E+00
      25     1     1     2     0     0  8.118340715E+01  3.441025901E+02 -2.396170993E+01  3.757612296E+02  1.250000000E+02  0.00000E+00  9.000E+00
      25     1     1     2     0     0 -8.341963326E+01 -3.665224149E+02  6.116625996E+02  7.287342805E+02  1.250000000E+02  0.00000E+00  9.000E+00
      21     1     1     2   502   512  2.236226110E+00  2.241982480E+01 -5.777404377E+02  5.781796111E+02  1.078959322E-05  0.00000E+00  9.000E+00
#rwgt            1           1   2.2265048526325500E-002           6      301915           0
</event>
<event>
      5   9999  3.19816E-02  5.16814E+02 -1.00000E+00  9.84456E-02
       2    -1     0     0   502     0  0.000000000E+00  0.000000000E+00  1.478008938E+03  1.478008938E+03  0.000000000E+00  0.00000E+00  9.000E+00
      21    -1     0     0   501   502  0.000000000E+00  0.000000000E+00 -8.414108184E+02  8.414108184E+02  0.000000000E+00  0.00000E+00  9.000E+00
      25     1     1     2     0     0  1.467609711E+02 -6.934090975E+02 -3.928798792E+02  8.199600957E+02  1.250000000E+02  0.00000E+00  9.000E+00
      25     1     1     2     0     0  6.085095766E+01  2.201292404E+02 -8.261241466E+01  2.731474558E+02  1.250000000E+02  0.00000E+00  9.000E+00
       2     1     1     2   501     0 -2.076119288E+02  4.732798571E+02  1.112090413E+03  1.226312205E+03  1.525878906E-05  0.00000E+00  9.000E+00
#rwgt            2          18   2.0541346877829126E-003           6      302107           0
</event>
<event>
      5   9999  3.19816E-02  3.46424E+02 -1.00000E+00  1.03601E-01
      21    -1     0     0   502   501  0.000000000E+00  0.000000000E+00  1.013914708E+03  1.013914708E+03  0.000000000E+00  0.00000E+00  9.000E+00
      21    -1     0     0   511   502  0.000000000E+00  0.000000000E+00 -2.278880652E+02  2.278880652E+02  0.000000000E+00  0.00000E+00  9.000E+00
      25     1     1     2     0     0  5.375979850E+01 -2.579170451E+02  3.965917359E+02  4.922614377E+02  1.250000000E+02  0.00000E+00  9.000E+00
      25     1     1     2     0     0  2.489222810E+02  8.941400413E+01  1.531443695E+02  3.302050333E+02  1.250000000E+02  0.00000E+00  9.000E+00
      21     1     1     2   511   501 -3.026820795E+02  1.685030410E+02  2.362905370E+02  4.193363017E+02  6.031565972E-06  0.00000E+00  9.000E+00
#rwgt            1           1   2.5364532957051301E-002           6      302141           0
</event>
<event>
      5   9999  3.19816E-02  1.86591E+02 -1.00000E+00  1.12756E-01
       2    -1     0     0   502     0  0.000000000E+00  0.000000000E+00  4.337564992E+02  4.337564992E+02  0.000000000E+00  0.00000E+00  9.000E+00
      21    -1     0     0   501   502  0.000000000E+00  0.000000000E+00 -1.719783736E+03  1.719783736E+03  0.000000000E+00  0.00000E+00  9.000E+00
      25     1     1     2     0     0 -3.954175685E+01  6.634715894E+02 -6.848525997E+02  9.624999656E+02  1.250000000E+02  0.00000E+00  9.000E+00
      25     1     1     2     0     0 -4.452284783E+01 -8.300532128E+02 -4.713133885E+02  9.637073883E+02  1.250000000E+02  0.00000E+00  9.000E+00
       2     1     1     2   501     0  8.406460468E+01  1.665816234E+02 -1.298612485E+02  2.273328812E+02  4.264961200E-06  0.00000E+00  9.000E+00
#rwgt            1           1   3.5830791745186205E-002           6      302186           0
</event>
<event>
      5   9999  3.19816E-02  6.05555E+01 -1.00000E+00  1.34490E-01
      -4    -1     0     0     0   501  0.000000000E+00  0.000000000E+00  2.090299208E+03  2.090299208E+03  0.000000000E+00  0.00000E+00  9.000E+00
      21    -1     0     0   501   502  0.000000000E+00  0.000000000E+00 -3.632451955E+02  3.632451955E+02  0.000000000E+00  0.00000E+00  9.000E+00
      25     1     1     2     0     0  3.843096542E+01  1.576959664E+02  1.997923506E+03  2.008399436E+03  1.250000000E+02  0.00000E+00  9.000E+00
      25     1     1     2     0     0 -6.569553982E+01 -1.036255532E+02 -3.215627246E+02  3.661717426E+02  1.250000000E+02  0.00000E+00  9.000E+00
      -4     1     1     2     0   502  2.726457441E+01 -5.407041323E+01  5.069323022E+01  7.897322454E+01  6.743495762E-07  0.00000E+00  9.000E+00
#rwgt            1           1   3.5074799250575689E-002           6      302250           0
</event>
<event>
      5   9999  3.19816E-02  1.21880E+02 -1.00000E+00  1.20082E-01
      21    -1     0     0   502   501  0.000000000E+00  0.000000000E+00  1.567958155E+02  1.567958155E+02  0.000000000E+00  0.00000E+00  9.000E+00
       2    -1     0     0   501     0  0.000000000E+00  0.000000000E+00 -1.683162074E+03  1.683162074E+03  0.000000000E+00  0.00000E+00  9.000E+00
      25     1     1     2     0     0 -3.806963802E+02  6.477979032E+01 -5.049752725E+02  6.478820734E+02  1.250000000E+02  0.00000E+00  9.000E+00
      25     1     1     2     0     0  4.094283065E+02  5.366510243E+01 -5.179830195E+02  6.741237942E+02  1.250000000E+02  0.00000E+00  9.000E+00
       2     1     1     2   502     0 -2.873192629E+01 -1.184448928E+02 -5.034079663E+02  5.179520217E+02  9.344061824E-06  0.00000E+00  9.000E+00
#rwgt            1           1   2.8087122442592441E-002           6      302371           0
</event>
<event>
      5   9999  3.19816E-02  1.39967E+01 -1.00000E+00  1.80264E-01
      21    -1     0     0   502   501  0.000000000E+00  0.000000000E+00  7.871096828E+02  7.871096828E+02  0.000000000E+00  0.00000E+00  9.000E+00
      21    -1     0     0   511   502  0.000000000E+00  0.000000000E+00 -5.424745862E+02  5.424745862E+02  0.000000000E+00  0.00000E+00  9.000E+00
      25     1     1     2     0     0 -5.867889241E+02  6.587974711E+01  2.225197819E+02  6.432739975E+02  1.250000000E+02  0.00000E+00  9.000E+00
      25     1     1     2     0     0  5.920042724E+02 -5.289096831E+01  9.265873083E+01  6.143916939E+02  1.250000000E+02  0.00000E+00  9.000E+00
      21     1     1     2   511   501 -5.215348317E+00 -1.298877880E+01 -7.054341620E+01  7.191857758E+01  1.651812370E-06  0.00000E+00  9.000E+00
#rwgt            1           1   2.7899242936435146E-002           6      302408           0
</event>
<event>
      5   9999  3.19816E-02  2.39440E+01 -1.00000E+00  1.60168E-01
      21    -1     0     0   502   512  0.000000000E+00  0.000000000E+00  2.350771591E+02  2.350771591E+02  0.000000000E+00  0.00000E+00  9.000E+00
      21    -1     0     0   501   502  0.000000000E+00  0.000000000E+00 -5.271917988E+02  5.271917988E+02  0.000000000E+00  0.00000E+00  9.000E+00
      25     1     1     2     0     0 -8.143793526E+01  1.361872351E+02 -1.405564311E+02  2.460898426E+02  1.250000000E+02  0.00000E+00  9.000E+00
      25     1     1     2     0     0  9.313129944E+01 -1.570816974E+02 -2.961043726E+02  3.696632225E+02  1.250000000E+02  0.00000E+00  9.000E+00
      21     1     1     2   501   512 -1.169336418E+01  2.089446231E+01  1.445461640E+02  1.465158929E+02  0.000000000E+00  0.00000E+00  9.000E+00
#rwgt            1           1   3.1738547175816867E-002           6      302682           0
</event>
<event>
      5   9999  3.19816E-02  2.81557E+01 -1.00000E+00  1.54979E-01
      21    -1     0     0   502   501  0.000000000E+00  0.000000000E+00  3.397173332E+02  3.397173332E+02  0.000000000E+00  0.00000E+00  9.000E+00
      21    -1     0     0   511   502  0.000000000E+00  0.000000000E+00 -6.283846348E+02  6.283846348E+02  0.000000000E+00  0.00000E+00  9.000E+00
      25     1     1     2     0     0  3.411041486E+02 -8.493172038E+01 -1.267326623E+02  3.940198028E+02  1.250000000E+02  0.00000E+00  9.000E+00
      25     1     1     2     0     0 -3.225325069E+02  1.060939363E+02  4.557473800E+01  3.646713563E+02  1.250000000E+02  0.00000E+00  9.000E+00
      21     1     1     2   511   501 -1.857164165E+01 -2.116221593E+01 -2.075093773E+02  2.094108090E+02  0.000000000E+00  0.00000E+00  9.000E+00
#rwgt            1           1   2.8078656293608589E-002           6      302812           0
</event>
<event>
      5   9999  3.19816E-02  5.35141E+01 -1.00000E+00  1.37413E-01
      21    -1     0     0   502   501  0.000000000E+00  0.000000000E+00  8.663086871E+02  8.663086871E+02  0.000000000E+00  0.00000E+00  9.000E+00
       1    -1     0     0   501     0  0.000000000E+00  0.000000000E+00 -2.284433418E+02  2.284433418E+02  0.000000000E+00  0.00000E+00  9.000E+00
      25     1     1     2     0     0  1.882731238E+02 -1.161071288E+02  1.876590250E+02  3.158615902E+02  1.250000000E+02  0.00000E+00  9.000E+00
      25     1     1     2     0     0 -1.754315423E+02  6.415659895E+01  5.888448973E+02  6.302821657E+02  1.250000000E+02  0.00000E+00  9.000E+00
       1     1     1     2   502     0 -1.284158151E+01  5.195052981E+01 -1.386385770E+02  1.486082730E+02  3.303624740E-06  0.00000E+00  9.000E+00
#rwgt            1           1   3.2858836813983251E-002           6      302996           0
</event>
<event>
      5   9999  3.19816E-02  2.14218E+02 -1.00000E+00  1.10573E-01
      21    -1     0     0   502   501  0.000000000E+00  0.000000000E+00  1.834641944E+03  1.834641944E+03  0.000000000E+00  0.00000E+00  9.000E+00
      21    -1     0     0   501   511  0.000000000E+00  0.000000000E+00 -1.863595441E+02  1.863595441E+02  0.000000000E+00  0.00000E+00  9.000E+00
      25     1     1     2     0     0 -4.495488145E+01  2.528535264E+02  1.469090711E+01  2.860011712E+02  1.250000000E+02  0.00000E+00  9.000E+00
      25     1     1     2     0     0  1.046493838E+02 -4.712107569E+01  1.428133174E+03  1.438179840E+03  1.250000000E+02  0.00000E+00  9.000E+00
      21     1     1     2   502   511 -5.969450239E+01 -2.057324507E+02  2.054583192E+02  2.968204774E+02  4.672030912E-06  0.00000E+00  9.000E+00
#rwgt            2          11   4.6429903373884319E-003           6      303214           0
</event>
<event>
      5   9999  3.19816E-02  8.96221E+02 -1.00000E+00  9.21482E-02
       2    -1     0     0   502     0  0.000000000E+00  0.000000000E+00  1.530029279E+03  1.530029279E+03  0.000000000E+00  0.00000E+00  9.000E+00
      21    -1     0     0   501   502  0.000000000E+00  0.000000000E+00 -1.103595794E+03  1.103595794E+03  0.000000000E+00  0.00000E+00  9.000E+00
      25     1     1     2     0     0 -2.822051942E+02  3.178001143E+02 -2.007998111E+02  4.863972126E+02  1.250000000E+02  0.00000E+00  9.000E+00
      25     1     1     2     0     0 -2.249548204E+02  4.211184048E+02 -5.030680454E+02  7.047324601E+02  1.250000000E+02  0.00000E+00  9.000E+00
       2     1     1     2   501     0  5.071600146E+02 -7.389185191E+02  1.130301341E+03  1.442495400E+03  0.000000000E+00  0.00000E+00  9.000E+00
#rwgt            2          18   1.0049796355191480E-002           6      303234           0
</event>
<event>
      5   9999  3.19816E-02  8.20559E+01 -1.00000E+00  1.27818E-01
      21    -1     0     0   502   501  0.000000000E+00  0.000000000E+00  1.624484114E+02  1.624484114E+02  0.000000000E+00  0.00000E+00  9.000E+00
       1    -1     0     0   501     0  0.000000000E+00  0.000000000E+00 -1.000139493E+03  1.000139493E+03  0.000000000E+00  0.00000E+00  9.000E+00
      25     1     1     2     0     0  1.260398838E+02 -7.225248898E+01 -7.150496046E+01  2.045591206E+02  1.250000000E+02  0.00000E+00  9.000E+00
      25     1     1     2     0     0 -4.474977946E+01  6.106781423E+01  3.692834389E+01  1.507332852E+02  1.250000000E+02  0.00000E+00  9.000E+00
       1     1     1     2   502     0 -8.129010429E+01  1.118467475E+01 -8.031144650E+02  8.072954985E+02  1.078959322E-05  0.00000E+00  9.000E+00
#rwgt            1           1   2.5577086919074149E-002           6      303253           0
</event>
<event>
      5   9999  3.19816E-02  4.39324E+01 -1.00000E+00  1.42359E-01
      21    -1     0     0   511   501  0.000000000E+00  0.000000000E+00  2.291891285E+02  2.291891285E+02  0.000000000E+00  0.00000E+00  9.000E+00
      21    -1     0     0   501   502  0.000000000E+00  0.000000000E+00 -4.513274368E+02  4.513274368E+02  0.000000000E+00  0.00000E+00  9.000E+00
      25     1     1     2     0     0  1.457168849E+02 -7.933698249E+01 -2.910893248E+02  3.576111888E+02  1.250000000E+02  0.00000E+00  9.000E+00
      25     1     1     2     0     0 -1.019961444E+02  8.364402175E+01 -5.623968632E+01  1.902299613E+02  1.250000000E+02  0.00000E+00  9.000E+00
      21     1     1     2   511   502 -4.372074049E+01 -4.307039260E+00  1.251907028E+02  1.326754153E+02  0.000000000E+00  0.00000E+00  9.000E+00
#rwgt            1           1   2.9270586398282554E-002           6      303341           0
</event>
<event>
      5   9999  3.19816E-02  4.14310E+02 -1.00000E+00  1.01228E-01
      21    -1     0     0   502   512  0.000000000E+00  0.000000000E+00  1.228160427E+03  1.228160427E+03  0.000000000E+00  0.00000E+00  9.000E+00
      21    -1     0     0   501   502  0.000000000E+00  0.000000000E+00 -2.576856794E+03  2.576856794E+03  0.000000000E+00  0.00000E+00  9.000E+00
      25     1     1     2     0     0  4.695304585E+00 -5.369777429E+02 -2.920974016E+02  6.239495447E+02  1.250000000E+02  0.00000E+00  9.000E+00
      25     1     1     2     0     0  4.052891749E+02  4.772630664E+02 -2.027395910E+03  2.125558403E+03  1.250000000E+02  0.00000E+00  9.000E+00
      21     1     1     2   501   512 -4.099844795E+02  5.971467653E+01  9.707969452E+02  1.055509273E+03  1.078959322E-05  0.00000E+00  9.000E+00
#rwgt            2          11   4.4836549169979881E-003           6      303443           0
</event>
<event>
      5   9999  3.19816E-02  1.30631E+02 -1.00000E+00  1.18824E-01
      21    -1     0     0   511   501  0.000000000E+00  0.000000000E+00  5.524045081E+02  5.524045081E+02  0.000000000E+00  0.00000E+00  9.000E+00
      21    -1     0     0   501   502  0.000000000E+00  0.000000000E+00 -3.996972447E+02  3.996972447E+02  0.000000000E+00  0.00000E+00  9.000E+00
      25     1     1     2     0     0  1.048686914E+02 -1.223855679E+02  9.043960674E+00  2.041628343E+02  1.250000000E+02  0.00000E+00  9.000E+00
      25     1     1     2     0     0 -1.689791901E+01  2.581653892E+01 -2.780735438E+02  3.064342166E+02  1.250000000E+02  0.00000E+00  9.000E+00
      21     1     1     2   511   502 -8.797077239E+01  9.656902902E+01  4.217368464E+02  4.415047019E+02  5.394796609E-06  0.00000E+00  9.000E+00
#rwgt            1           1   2.8780775283989847E-002           6      303523           0
</event>
<event>
      5   9999  3.19816E-02  1.33205E+02 -1.00000E+00  1.18475E-01
      21    -1     0     0   502   501  0.000000000E+00  0.000000000E+00  1.051483929E+03  1.051483929E+03  0.000000000E+00  0.00000E+00  9.000E+00
      21    -1     0     0   512   502  0.000000000E+00  0.000000000E+00 -1.018991317E+03  1.018991317E+03  0.000000000E+00  0.00000E+00  9.000E+00
      25     1     1     2     0     0  5.019052048E+01 -2.264990208E+02 -7.676801036E+02  8.116517950E+02  1.250000000E+02  0.00000E+00  9.000E+00
      25     1     1     2     0     0  8.087709024E+01  2.027307947E+02  9.930556576E+02  1.024414671E+03  1.250000000E+02  0.00000E+00  9.000E+00
      21     1     1     2   512   501 -1.310676107E+02  2.376822606E+01 -1.928829412E+02  2.344087800E+02  3.814697266E-06  0.00000E+00  9.000E+00
#rwgt            1           1   3.1433495136244341E-002           6      303583           0
</event>
<event>
      5   9999  3.19816E-02  1.35612E+02 -1.00000E+00  1.18156E-01
      21    -1     0     0   502   501  0.000000000E+00  0.000000000E+00  5.576756322E+02  5.576756322E+02  0.000000000E+00  0.00000E+00  9.000E+00
      21    -1     0     0   501   511  0.000000000E+00  0.000000000E+00 -1.206300188E+03  1.206300188E+03  0.000000000E+00  0.00000E+00  9.000E+00
      25     1     1     2     0     0  3.203885601E+02 -5.512883104E+02 -1.505528752E+01  6.499379142E+02  1.250000000E+02  0.00000E+00  9.000E+00
      25     1     1     2     0     0 -4.473181664E+02  5.035431430E+02 -2.885564677E+02  7.433297209E+02  1.250000000E+02  0.00000E+00  9.000E+00
      21     1     1     2   502   511  1.269296064E+02  4.774516738E+01 -3.450128008E+02  3.707081854E+02  0.000000000E+00  0.00000E+00  9.000E+00
#rwgt            1           1   3.5172250733506071E-002           6      303707           0
</event>
<event>
      5   9999  3.19816E-02  5.97983E+01 -1.00000E+00  1.34782E-01
      21    -1     0     0   502   501  0.000000000E+00  0.000000000E+00  1.739590594E+03  1.739590594E+03  0.000000000E+00  0.00000E+00  9.000E+00
      21    -1     0     0   512   502  0.000000000E+00  0.000000000E+00 -7.492234380E+01  7.492234380E+01  0.000000000E+00  0.00000E+00  9.000E+00
      25     1     1     2     0     0 -2.039591359E+02  9.380917513E+01  3.056762668E+02  3.993275229E+02  1.250000000E+02  0.00000E+00  9.000E+00
      25     1     1     2     0     0  1.590697833E+02 -1.333159031E+02  1.323823660E+03  1.345812175E+03  1.250000000E+02  0.00000E+00  9.000E+00
      21     1     1     2   512   501  4.488935256E+01  3.950672801E+01  3.516832343E+01  6.937324055E+01  1.581489940E-06  0.00000E+00  9.000E+00
#rwgt            2          11   2.8180689418378195E-003           6      303784           0
</event>
<event>
      5   9999  3.19816E-02  1.21149E+02 -1.00000E+00  1.20193E-01
      21    -1     0     0   511   501  0.000000000E+00  0.000000000E+00  1.031420829E+03  1.031420829E+03  0.000000000E+00  0.00000E+00  9.000E+00
      21    -1     0     0   501   502  0.000000000E+00  0.000000000E+00 -2.443855455E+02  2.443855455E+02  0.000000000E+00  0.00000E+00  9.000E+00
      25     1     1     2     0     0 -4.129975738E+02  1.431204553E+02  1.771752663E+02  4.879206243E+02  1.250000000E+02  0.00000E+00  9.000E+00
      25     1     1     2     0     0  3.133192287E+02 -7.426298922E+01  3.086349123E+02  4.632110100E+02  1.250000000E+02  0.00000E+00  9.000E+00
      21     1     1     2   511   502  9.967834503E+01 -6.885746607E+01  3.012251048E+02  3.246747401E+02  3.814697266E-06  0.00000E+00  9.000E+00
#rwgt            1           1   2.7045247699549718E-002           6      303804           0
</event>
<event>
      5   9999  3.19816E-02  2.34016E+02 -1.00000E+00  1.09220E-01
      21    -1     0     0   512   501  0.000000000E+00  0.000000000E+00  7.193825707E+02  7.193825707E+02  0.000000000E+00  0.00000E+00  9.000E+00
      21    -1     0     0   501   502  0.000000000E+00  0.000000000E+00 -8.824975280E+02  8.824975280E+02  0.000000000E+00  0.00000E+00  9.000E+00
      25     1     1     2     0     0  5.987482173E+02  5.455045981E+01 -2.945760461E+02  6.810838622E+02  1.250000000E+02  0.00000E+00  9.000E+00
      25     1     1     2     0     0 -6.357203016E+02  1.765267844E+02  1.427170063E+02  6.865093964E+02  1.250000000E+02  0.00000E+00  9.000E+00
      21     1     1     2   512   502  3.697208428E+01 -2.310772442E+02 -1.125591748E+01  2.342868402E+02  3.872008745E-06  0.00000E+00  9.000E+00
#rwgt            1           1   3.1261789477749900E-002           6      303920           0
</event>
<event>
      5   9999  3.19816E-02  1.60098E+02 -1.00000E+00  1.15283E-01
      21    -1     0     0   502   501  0.000000000E+00  0.000000000E+00  1.324549002E+03  1.324549002E+03  0.000000000E+00  0.00000E+00  9.000E+00
       2    -1     0     0   501     0  0.000000000E+00  0.000000000E+00 -1.813111370E+03  1.813111370E+03  0.000000000E+00  0.00000E+00  9.000E+00
      25     1     1     2     0     0  1.197074278E+03 -6.359343043E+02 -4.720250252E+02  1.440774754E+03  1.250000000E+02  0.00000E+00  9.000E+00
      25     1     1     2     0     0 -1.235890147E+03  4.806127051E+02  2.789375211E+02  1.360824812E+03  1.250000000E+02  0.00000E+00  9.000E+00
       2     1     1     2   502     0  3.881586899E+01  1.553215992E+02 -2.954748638E+02  3.360608070E+02  3.814697266E-06  0.00000E+00  9.000E+00
#rwgt            2          13   2.9977366823646825E-003           6      304274           0
</event>
<event>
      5   9999  3.19816E-02  1.24345E+02 -1.00000E+00  1.19716E-01
      21    -1     0     0   502   501  0.000000000E+00  0.000000000E+00  1.378262195E+03  1.378262195E+03  0.000000000E+00  0.00000E+00  9.000E+00
      21    -1     0     0   501   511  0.000000000E+00  0.000000000E+00 -2.929159609E+02  2.929159609E+02  0.000000000E+00  0.00000E+00  9.000E+00
      25     1     1     2     0     0  4.212701954E+02 -2.134675736E+02  1.036315594E+03  1.145692800E+03  1.250000000E+02  0.00000E+00  9.000E+00
      25     1     1     2     0     0 -2.972518082E+02  2.224717850E+02  7.391825888E+01  3.986743553E+02  1.250000000E+02  0.00000E+00  9.000E+00
      21     1     1     2   502   511 -1.240183871E+02 -9.004211396E+00 -2.488761891E+01  1.268110001E+02  2.286830675E-06  0.00000E+00  9.000E+00
#rwgt            1           1   2.9405374045512574E-002           6      304293           0
</event>
<event>
      5   9999  3.19816E-02  7.37757E+01 -1.00000E+00  1.30076E-01
      21    -1     0     0   502   501  0.000000000E+00  0.000000000E+00  1.068050067E+03  1.068050067E+03  0.000000000E+00  0.00000E+00  9.000E+00
      21    -1     0     0   501   512  0.000000000E+00  0.000000000E+00 -1.345523322E+03  1.345523322E+03  0.000000000E+00  0.00000E+00  9.000E+00
      25     1     1     2     0     0 -5.764513880E+02  8.137049055E+02 -2.279908520E+02  1.030541947E+03  1.250000000E+02  0.00000E+00  9.000E+00
      25     1     1     2     0     0  5.597963089E+02 -7.418337448E+02  3.317912108E+02  9.946856890E+02  1.250000000E+02  0.00000E+00  9.000E+00
      21     1     1     2   502   512  1.665507911E+01 -7.187116067E+01 -3.812736133E+02  3.883457527E+02  5.394796609E-06  0.00000E+00  9.000E+00
#rwgt            1           1   1.7843307824697483E-002           6      304344           0
</event>
<event>
      5   9999  3.19816E-02  6.75176E+01 -1.00000E+00  1.32020E-01
      21    -1     0     0   511   501  0.000000000E+00  0.000000000E+00  1.152607852E+03  1.152607852E+03  0.000000000E+00  0.00000E+00  9.000E+00
      21    -1     0     0   501   502  0.000000000E+00  0.000000000E+00 -1.950260813E+02  1.950260813E+02  0.000000000E+00  0.00000E+00  9.000E+00
      25     1     1     2     0     0  2.534309539E+02 -2.954418575E+02  4.225936374E+02  5.879825864E+02  1.250000000E+02  0.00000E+00  9.000E+00
      25     1     1     2     0     0 -2.279300517E+02  3.579584586E+02  3.543629365E+02  5.668195985E+02  1.250000000E+02  0.00000E+00  9.000E+00
      21     1     1     2   511   502 -2.550090220E+01 -6.251660110E+01  1.806251969E+02  1.928317483E+02  2.697398305E-06  0.00000E+00  9.000E+00
#rwgt            1           1   2.5635005850786041E-002           6      304500           0
</event>
<event>
      5   9999  3.19816E-02  1.15626E+02 -1.00000E+00  1.21057E-01
      21    -1     0     0   512   501  0.000000000E+00  0.000000000E+00  4.128085521E+02  4.128085521E+02  0.000000000E+00  0.00000E+00  9.000E+00
      21    -1     0     0   501   502  0.000000000E+00  0.000000000E+00 -2.354023098E+02  2.354023098E+02  0.000000000E+00  0.00000E+00  9.000E+00
      25     1     1     2     0     0  6.867884439E+01  2.154010868E+02 -6.252127848E+01  2.657975209E+02  1.250000000E+02  0.00000E+00  9.000E+00
      25     1     1     2     0     0 -4.896419470E+01 -1.014686678E+02  1.969678116E+02  2.590650530E+02  1.250000000E+02  0.00000E+00  9.000E+00
      21     1     1     2   512   502 -1.971464969E+01 -1.139324191E+02  4.295970920E+01  1.233482879E+02  1.430511475E-06  0.00000E+00  9.000E+00
#rwgt            1           1   2.6923108496902912E-002           6      304606           0
</event>
<event>
      5   9999  3.19816E-02  1.86073E+01 -1.00000E+00  1.68998E-01
      21    -1     0     0   502   511  0.000000000E+00  0.000000000E+00  6.864960509E+01  6.864960509E+01  0.000000000E+00  0.00000E+00  9.000E+00
      21    -1     0     0   501   502  0.000000000E+00  0.000000000E+00 -7.980927111E+02  7.980927111E+02  0.000000000E+00  0.00000E+00  9.000E+00
      25     1     1     2     0     0  1.299744847E+02 -7.544303429E+01 -1.792834734E+02  2.652406114E+02  1.250000000E+02  0.00000E+00  9.000E+00
      25     1     1     2     0     0 -1.342834090E+02  9.354457755E+01 -5.443626186E+02  5.820122700E+02  1.250000000E+02  0.00000E+00  9.000E+00
      21     1     1     2   501   511  4.308924325E+00 -1.810154326E+01 -5.797013969E+00  1.948943479E+01  4.380028980E-07  0.00000E+00  9.000E+00
#rwgt            1           1   2.7332434346460176E-002           6      304666           0
</event>
<event>
      5   9999  3.19816E-02  7.58947E+01 -1.00000E+00  1.29467E-01
      21    -1     0     0   502   512  0.000000000E+00  0.000000000E+00  4.581744948E+02  4.581744948E+02  0.000000000E+00  0.00000E+00  9.000E+00
      21    -1     0     0   501   502  0.000000000E+00  0.000000000E+00 -1.173892272E+03  1.173892272E+03  0.000000000E+00  0.00000E+00  9.000E+00
      25     1     1     2     0     0  3.672129651E+02 -3.157107622E+01 -9.818147295E+02  1.056137897E+03  1.250000000E+02  0.00000E+00  9.000E+00
      25     1     1     2     0     0 -4.048238996E+02  9.749091879E+01  2.220479244E+02  4.881773752E+02  1.250000000E+02  0.00000E+00  9.000E+00
      21     1     1     2   501   512  3.761093447E+01 -6.591984257E+01  4.404902748E+01  8.775149491E+01  2.023048729E-06  0.00000E+00  9.000E+00
#rwgt            1           1   3.0111176094600567E-002           6      304726           0
</event>
<event>
      5   9999  3.19816E-02  9.37599E+01 -1.00000E+00  1.25100E-01
      -1    -1     0     0     0   501  0.000000000E+00  0.000000000E+00  3.987687237E+02  3.987687237E+02  0.000000000E+00  0.00000E+00  9.000E+00
      21    -1     0     0   501   502  0.000000000E+00  0.000000000E+00 -8.282119524E+02  8.282119524E+02  0.000000000E+00  0.00000E+00  9.000E+00
      25     1     1     2     0     0  2.959616312E+02 -1.923894329E+02 -1.879311273E+02  4.189869803E+02  1.250000000E+02  0.00000E+00  9.000E+00
      25     1     1     2     0     0 -3.609084950E+02  1.247667580E+02 -4.354955651E+02  5.925395117E+02  1.250000000E+02  0.00000E+00  9.000E+00
      -1     1     1     2     0   502  6.494686378E+01  6.762267492E+01  1.939834637E+02  2.154541841E+02  3.814697266E-06  0.00000E+00  9.000E+00
#rwgt            1           1   2.8429116277690372E-002           6      304881           0
</event>
<event>
      5   9999  3.19816E-02  2.19322E+02 -1.00000E+00  1.10209E-01
      21    -1     0     0   502   501  0.000000000E+00  0.000000000E+00  6.386093920E+02  6.386093920E+02  0.000000000E+00  0.00000E+00  9.000E+00
      21    -1     0     0   511   502  0.000000000E+00  0.000000000E+00 -6.046719753E+02  6.046719753E+02  0.000000000E+00  0.00000E+00  9.000E+00
      25     1     1     2     0     0 -9.571414874E+01 -4.879442077E+02 -3.063752412E+01  5.136286655E+02  1.250000000E+02  0.00000E+00  9.000E+00
      25     1     1     2     0     0  2.500439964E+02  3.321091031E+02  1.934664342E+02  4.752606839E+02  1.250000000E+02  0.00000E+00  9.000E+00
      21     1     1     2   511   501 -1.543298476E+02  1.558351046E+02 -1.288914934E+02  2.543920179E+02  3.303624740E-06  0.00000E+00  9.000E+00
#rwgt            1           1   3.1444949299503935E-002           6      304999           0
</event>
<event>
      5   9999  3.19816E-02  1.79656E+02 -1.00000E+00  1.13371E-01
      21    -1     0     0   502   501  0.000000000E+00  0.000000000E+00  4.259293382E+02  4.259293382E+02  0.000000000E+00  0.00000E+00  9.000E+00
      21    -1     0     0   501   512  0.000000000E+00  0.000000000E+00 -3.150156404E+02  3.150156404E+02  0.000000000E+00  0.00000E+00  9.000E+00
      25     1     1     2     0     0 -7.951048867E+01 -9.012302708E+01  2.408794858E+02  2.968029726E+02  1.250000000E+02  0.00000E+00  9.000E+00
      25     1     1     2     0     0  1.150840677E+02 -8.597584971E+01  4.249294564E+01  1.951072520E+02  1.250000000E+02  0.00000E+00  9.000E+00
      21     1     1     2   502   512 -3.557357899E+01  1.760988768E+02 -1.724587336E+02  2.490347541E+02  2.697398305E-06  0.00000E+00  9.000E+00
#rwgt            1           1   2.7967759006496871E-002           6      305033           0
</event>
<event>
      5   9999  3.19816E-02  7.38238E+02 -1.00000E+00  9.42710E-02
      21    -1     0     0   502   501  0.000000000E+00  0.000000000E+00  6.496128289E+02  6.496128289E+02  0.000000000E+00  0.00000E+00  9.000E+00
      21    -1     0     0   501   511  0.000000000E+00  0.000000000E+00 -1.749395514E+03  1.749395514E+03  0.000000000E+00  0.00000E+00  9.000E+00
      25     1     1     2     0     0  9.460691979E+02  9.833087456E+01 -5.836764952E+02  1.122951085E+03  1.250000000E+02  0.00000E+00  9.000E+00
      25     1     1     2     0     0 -2.303421347E+02 -2.792451024E+02 -1.394095792E+01  3.832162268E+02  1.250000000E+02  0.00000E+00  9.000E+00
      21     1     1     2   502   511 -7.157270632E+02  1.809142278E+02 -5.021652322E+02  8.928410313E+02  5.394796609E-06  0.00000E+00  9.000E+00
#rwgt            2          11   1.2040933515789622E-003           6      305118           0
</event>
<event>
      5   9999  3.19816E-02  2.52625E+01 -1.00000E+00  1.58412E-01
      21    -1     0     0   502   501  0.000000000E+00  0.000000000E+00  2.179562758E+03  2.179562758E+03  0.000000000E+00  0.00000E+00  9.000E+00
      21    -1     0     0   512   502  0.000000000E+00  0.000000000E+00 -4.258791345E+02  4.258791345E+02  0.000000000E+00  0.00000E+00  9.000E+00
      25     1     1     2     0     0 -4.788882342E+02 -3.480773936E+02  1.336136231E+02  6.196526552E+02  1.250000000E+02  0.00000E+00  9.000E+00
      25     1     1     2     0     0  4.544026539E+02  3.418605736E+02  1.754720901E+03  1.848789026E+03  1.250000000E+02  0.00000E+00  9.000E+00
      21     1     1     2   512   501  2.448558029E+01  6.216819956E+00 -1.346509011E+02  1.370002104E+02  4.264961200E-06  0.00000E+00  9.000E+00
#rwgt            1           1   2.7521992226859342E-002           6      305138           0
</event>
<event>
      5   9999  3.19816E-02  1.93901E+01 -1.00000E+00  1.67487E-01
      21    -1     0     0   502   511  0.000000000E+00  0.000000000E+00  1.383136337E+02  1.383136337E+02  0.000000000E+00  0.00000E+00  9.000E+00
      21    -1     0     0   501   502  0.000000000E+00  0.000000000E+00 -4.594855397E+02  4.594855397E+02  0.000000000E+00  0.00000E+00  9.000E+00
      25     1     1     2     0     0  1.988513286E+02  2.746673045E+01 -7.663531553E+01  2.485844801E+02  1.250000000E+02  0.00000E+00  9.000E+00
      25     1     1     2     0     0 -1.827654308E+02 -1.663993777E+01 -2.438679500E+02  3.298130793E+02  1.250000000E+02  0.00000E+00  9.000E+00
      21     1     1     2   501   511 -1.608589780E+01 -1.082679268E+01 -6.686404431E-01  1.940161405E+01  4.476552870E-07  0.00000E+00  9.000E+00
#rwgt            1           1   2.8043071135522710E-002           6      305371           0
</event>
<event>
      5   9999  3.19816E-02  8.72828E+01 -1.00000E+00  1.26544E-01
      21    -1     0     0   502   501  0.000000000E+00  0.000000000E+00  6.712005568E+02  6.712005568E+02  0.000000000E+00  0.00000E+00  9.000E+00
       2    -1     0     0   501     0  0.000000000E+00  0.000000000E+00 -3.527981203E+03  3.527981203E+03  0.000000000E+00  0.00000E+00  9.000E+00
      25     1     1     2     0     0  4.086287268E+02  3.528046945E+02 -4.513187704E+02  7.146763053E+02  1.250000000E+02  0.00000E+00  9.000E+00
      25     1     1     2     0     0 -3.361053441E+02 -3.042387607E+02  4.362478864E+02  6.414555669E+02  1.250000000E+02  0.00000E+00  9.000E+00
       2     1     1     2   502     0 -7.252338271E+01 -4.856593377E+01 -2.841709763E+03  2.843049888E+03  4.315837288E-05  0.00000E+00  9.000E+00
#rwgt            1           1   2.3059916878163115E-002           6      305503           0
</event>
<event>
      5   9999  3.19816E-02  7.17303E+01 -1.00000E+00  1.30686E-01
      21    -1     0     0   502   511  0.000000000E+00  0.000000000E+00  1.064895853E+03  1.064895853E+03  0.000000000E+00  0.00000E+00  9.000E+00
      21    -1     0     0   501   502  0.000000000E+00  0.000000000E+00 -1.194638582E+03  1.194638582E+03  0.000000000E+00  0.00000E+00  9.000E+00
      25     1     1     2     0     0  8.304137862E+02  2.959140094E+02 -7.502144283E+02  1.164301870E+03  1.250000000E+02  0.00000E+00  9.000E+00
      25     1     1     2     0     0 -7.788912172E+02 -2.460074196E+02  5.981896759E+02  1.020121104E+03  1.250000000E+02  0.00000E+00  9.000E+00
      21     1     1     2   501   511 -5.152256899E+01 -4.990658981E+01  2.228202321E+01  7.511145971E+01  1.118282261E-06  0.00000E+00  9.000E+00
#rwgt            1           1   3.5077364238314458E-002           6      305594           0
</event>
<event>
      5   9999  3.19816E-02  1.19143E+02 -1.00000E+00  1.20501E-01
      21    -1     0     0   502   501  0.000000000E+00  0.000000000E+00  7.876233581E+01  7.876233581E+01  0.000000000E+00  0.00000E+00  9.000E+00
      21    -1     0     0   501   512  0.000000000E+00  0.000000000E+00 -1.566204801E+03  1.566204801E+03  0.000000000E+00  0.00000E+00  9.000E+00
      25     1     1     2     0     0 -1.415640912E+02 -2.158662792E+02 -4.135460126E+02  5.032732329E+02  1.250000000E+02  0.00000E+00  9.000E+00
      25     1     1     2     0     0  2.052095261E+02  1.151471853E+02 -7.932825020E+02  8.368344829E+02  1.250000000E+02  0.00000E+00  9.000E+00
      21     1     1     2   502   512 -6.364543490E+01  1.007190939E+02 -2.806139505E+02  3.048594208E+02  5.394796609E-06  0.00000E+00  9.000E+00
#rwgt            1           1   2.8207842871699747E-002           6      305732           0
</event>
<event>
      5   9999  3.19816E-02  2.18247E+02 -1.00000E+00  1.10285E-01
       1    -1     0     0   502     0  0.000000000E+00  0.000000000E+00  4.940740621E+02  4.940740621E+02  0.000000000E+00  0.00000E+00  9.000E+00
      21    -1     0     0   501   502  0.000000000E+00  0.000000000E+00 -1.289733695E+03  1.289733695E+03  0.000000000E+00  0.00000E+00  9.000E+00
      25     1     1     2     0     0  6.561171366E+01  2.379067409E+02 -4.279063823E+02  5.095423303E+02  1.250000000E+02  0.00000E+00  9.000E+00
      25     1     1     2     0     0 -5.211299349E+01 -4.557355481E+02 -7.182658469E+02  8.613602502E+02  1.250000000E+02  0.00000E+00  9.000E+00
       1     1     1     2   501     0 -1.349872018E+01  2.178288072E+02  3.505125964E+02  4.129051766E+02  9.344061824E-06  0.00000E+00  9.000E+00
#rwgt            1           1   2.6854267539524770E-002           6      305823           0
</event>
<event>
      5   9999  3.19816E-02  1.69647E+02 -1.00000E+00  1.14314E-01
      21    -1     0     0   502   501  0.000000000E+00  0.000000000E+00  5.453873475E+02  5.453873475E+02  0.000000000E+00  0.00000E+00  9.000E+00
      21    -1     0     0   501   511  0.000000000E+00  0.000000000E+00 -3.994479455E+02  3.994479455E+02  0.000000000E+00  0.00000E+00  9.000E+00
      25     1     1     2     0     0  8.824061561E+01 -1.705928967E+02  2.025466858E+02  3.058406490E+02  1.250000000E+02  0.00000E+00  9.000E+00
      25     1     1     2     0     0  5.361960825E+01  2.636291449E+02  1.806499557E+02  3.473252005E+02  1.250000000E+02  0.00000E+00  9.000E+00
      21     1     1     2   502   511 -1.418602239E+02 -9.303624820E+01 -2.372572395E+02  2.916694435E+02  0.000000000E+00  0.00000E+00  9.000E+00
#rwgt            1           1   2.7227363081508721E-002           6      305869           0
</event>
<event>
      5   9999  3.19816E-02  3.51239E+02 -1.00000E+00  1.03414E-01
      21    -1     0     0   512   501  0.000000000E+00  0.000000000E+00  1.927895606E+03  1.927895606E+03  0.000000000E+00  0.00000E+00  9.000E+00
      21    -1     0     0   501   502  0.000000000E+00  0.000000000E+00 -7.764653296E+02  7.764653296E+02  0.000000000E+00  0.00000E+00  9.000E+00
      25     1     1     2     0     0  4.356237249E+02 -2.339082569E+02 -6.365304861E+02  8.156452427E+02  1.250000000E+02  0.00000E+00  9.000E+00
      25     1     1     2     0     0 -9.634379910E+01  1.430367913E+02  3.608928955E+02  4.190588662E+02  1.250000000E+02  0.00000E+00  9.000E+00
      21     1     1     2   512   502 -3.392799258E+02  9.087146559E+01  1.427067867E+03  1.469656827E+03  2.157918644E-05  0.00000E+00  9.000E+00
#rwgt            1           1   2.8868808244656576E-002           6      306011           0
</event>
<event>
      5   9999  3.19816E-02  6.74201E+01 -1.00000E+00  1.32052E-01
      21    -1     0     0   502   501  0.000000000E+00  0.000000000E+00  1.796266043E+02  1.796266043E+02  0.000000000E+00  0.00000E+00  9.000E+00
       2    -1     0     0   501     0  0.000000000E+00  0.000000000E+00 -7.746937669E+02  7.746937669E+02  0.000000000E+00  0.00000E+00  9.000E+00
      25     1     1     2     0     0 -1.972791396E+02  7.991445189E+01  4.496374898E+00  2.468817449E+02  1.250000000E+02  0.00000E+00  9.000E+00
      25     1     1     2     0     0  2.305284921E+02 -1.385654946E+02 -4.084179389E+02  5.047514188E+02  1.250000000E+02  0.00000E+00  9.000E+00
       2     1     1     2   502     0 -3.324935251E+01  5.865104271E+01 -1.911455986E+02  2.026872076E+02  0.000000000E+00  0.00000E+00  9.000E+00
#rwgt            1           1   3.2054717015603598E-002           6      306128           0
</event>
<event>
      5   9999  3.19816E-02  1.61371E+01 -1.00000E+00  1.74445E-01
      21    -1     0     0   502   501  0.000000000E+00  0.000000000E+00  1.927596280E+03  1.927596280E+03  0.000000000E+00  0.00000E+00  9.000E+00
      21    -1     0     0   511   502  0.000000000E+00  0.000000000E+00 -1.756743408E+02  1.756743408E+02  0.000000000E+00  0.00000E+00  9.000E+00
      25     1     1     2     0     0  1.133381094E+02  5.252496150E+02  1.023230248E+03  1.162479172E+03  1.250000000E+02  0.00000E+00  9.000E+00
      25     1     1     2     0     0 -1.288247644E+02 -5.207143830E+02  7.389758602E+02  9.216559068E+02  1.250000000E+02  0.00000E+00  9.000E+00
      21     1     1     2   511   501  1.548665503E+01 -4.535232006E+00 -1.028416941E+01  1.913554164E+01  5.196212463E-07  0.00000E+00  9.000E+00
#rwgt            1           1   2.5960167629374965E-002           6      306191           0
</event>
<event>
      5   9999  3.19816E-02  4.89378E+01 -1.00000E+00  1.39610E-01
      21    -1     0     0   502   512  0.000000000E+00  0.000000000E+00  5.667615220E+01  5.667615220E+01  0.000000000E+00  0.00000E+00  9.000E+00
      21    -1     0     0   501   502  0.000000000E+00  0.000000000E+00 -9.692374350E+02  9.692374350E+02  0.000000000E+00  0.00000E+00  9.000E+00
      25     1     1     2     0     0 -1.375927056E+01 -1.396701806E+02 -4.246029855E+02  4.643379934E+02  1.250000000E+02  0.00000E+00  9.000E+00
      25     1     1     2     0     0  1.615665521E+01  1.885492514E+02 -4.261128069E+02  4.827100392E+02  1.250000000E+02  0.00000E+00  9.000E+00
      21     1     1     2   501   512 -2.397384655E+00 -4.887907079E+01 -6.184549037E+01  7.886555454E+01  9.536743164E-07  0.00000E+00  9.000E+00
#rwgt            1           1   2.7318008756625413E-002           6      306459           0
</event>
<event>
      5   9999  3.19816E-02  7.35431E+01 -1.00000E+00  1.30144E-01
      21    -1     0     0   502   501  0.000000000E+00  0.000000000E+00  2.560525853E+02  2.560525853E+02  0.000000000E+00  0.00000E+00  9.000E+00
      21    -1     0     0   501   511  0.000000000E+00  0.000000000E+00 -6.290862241E+02  6.290862241E+02  0.000000000E+00  0.00000E+00  9.000E+00
      25     1     1     2     0     0  3.257106585E+00 -1.353659894E+02  1.641351025E+02  2.467790341E+02  1.250000000E+02  0.00000E+00  9.000E+00
      25     1     1     2     0     0 -2.094628816E+01  2.067500675E+02 -5.005570400E+02  5.562074142E+02  1.250000000E+02  0.00000E+00  9.000E+00
      21     1     1     2   502   511  1.768918157E+01 -7.138407810E+01 -3.661170131E+01  8.215236103E+01  2.023048729E-06  0.00000E+00  9.000E+00
#rwgt            1           1   2.4756067348038764E-002           6      306575           0
</event>
<event>
      5   9999  3.19816E-02  2.96700E+01 -1.00000E+00  1.53374E-01
      21    -1     0     0   502   501  0.000000000E+00  0.000000000E+00  3.224394136E+02  3.224394136E+02  0.000000000E+00  0.00000E+00  9.000E+00
      21    -1     0     0   501   512  0.000000000E+00  0.000000000E+00 -1.818623163E+02  1.818623163E+02  0.000000000E+00  0.00000E+00  9.000E+00
      25     1     1     2     0     0  1.879235543E+02 -3.175544952E+01  3.854434030E+01  2.311586836E+02  1.250000000E+02  0.00000E+00  9.000E+00
      25     1     1     2     0     0 -1.844973308E+02  2.283929722E+00  9.695051201E+01  2.430409084E+02  1.250000000E+02  0.00000E+00  9.000E+00
      21     1     1     2   502   512 -3.426223551E+00  2.947151979E+01  5.082244980E+00  3.010213781E+01  3.153981341E-07  0.00000E+00  9.000E+00
#rwgt            1           1   2.5821631692346411E-002           6      306816           0
</event>
<event>
      5   9999  3.19816E-02  3.41198E+01 -1.00000E+00  1.49257E-01
      -3    -1     0     0     0   501  0.000000000E+00  0.000000000E+00  2.856917589E+02  2.856917589E+02  0.000000000E+00  0.00000E+00  9.000E+00
      21    -1     0     0   501   502  0.000000000E+00  0.000000000E+00 -2.984704942E+02  2.984704942E+02  0.000000000E+00  0.00000E+00  9.000E+00
      25     1     1     2     0     0  1.038264440E+02  1.211944476E+02 -1.739774724E+02  2.671351446E+02  1.250000000E+02  0.00000E+00  9.000E+00
      25     1     1     2     0     0 -8.478516780E+01 -9.288204283E+01  2.798072731E+01  1.795091075E+02  1.250000000E+02  0.00000E+00  9.000E+00
      -3     1     1     2     0   502 -1.904127617E+01 -2.831240473E+01  1.332180098E+02  1.375180010E+02  1.907348633E-06  0.00000E+00  9.000E+00
#rwgt            1           1   3.0059172745391601E-002           6      306911           0
</event>
<event>
      5   9999  3.19816E-02  6.49221E+01 -1.00000E+00  1.32899E-01
      21    -1     0     0   511   501  0.000000000E+00  0.000000000E+00  8.539425458E+02  8.539425458E+02  0.000000000E+00  0.00000E+00  9.000E+00
      21    -1     0     0   501   502  0.000000000E+00  0.000000000E+00 -7.290710531E+02  7.290710531E+02  0.000000000E+00  0.00000E+00  9.000E+00
      25     1     1     2     0     0 -6.772807076E+02 -3.123185767E+02 -7.453756213E+01  7.598900568E+02  1.250000000E+02  0.00000E+00  9.000E+00
      25     1     1     2     0     0  6.277459982E+02  3.542851332E+02  1.662832099E+02  7.502386952E+02  1.250000000E+02  0.00000E+00  9.000E+00
      21     1     1     2   511   502  4.953470942E+01 -4.196655648E+01  3.312584491E+01  7.288484686E+01  1.261592536E-06  0.00000E+00  9.000E+00
#rwgt            1           1   3.1104578029016085E-002           6      307020           0
</event>
<event>
      5   9999  3.19816E-02  3.74808E+01 -1.00000E+00  1.46614E-01
      21    -1     0     0   502   501  0.000000000E+00  0.000000000E+00  8.653530290E+02  8.653530290E+02  0.000000000E+00  0.00000E+00  9.000E+00
      21    -1     0     0   512   502  0.000000000E+00  0.000000000E+00 -2.576910400E+02  2.576910400E+02  0.000000000E+00  0.00000E+00  9.000E+00
      25     1     1     2     0     0 -1.391294710E+02 -1.299009728E+02  6.414496564E+02  6.806716786E+02  1.250000000E+02  0.00000E+00  9.000E+00
      25     1     1     2     0     0  1.749164057E+02  1.410413403E+02  1.202397227E+02  2.838503119E+02  1.250000000E+02  0.00000E+00  9.000E+00
      21     1     1     2   512   501 -3.578693471E+01 -1.114036755E+01 -1.540273901E+02  1.585220785E+02  0.000000000E+00  0.00000E+00  9.000E+00
#rwgt            1           1   3.4781595213573865E-002           6      307146           0
</event>
<event>
      5   9999  3.19816E-02  3.12624E+01 -1.00000E+00  1.51807E-01
      21    -1     0     0   511   501  0.000000000E+00  0.000000000E+00  1.250746375E+03  1.250746375E+03  0.000000000E+00  0.00000E+00  9.000E+00
      21    -1     0     0   501   502  0.000000000E+00  0.000000000E+00 -4.133130274E+02  4.133130274E+02  0.000000000E+00  0.00000E+00  9.000E+00
      25     1     1     2     0     0  4.805103450E+02 -4.282049149E+02  2.101045488E+02  6.884900597E+02  1.250000000E+02  0.00000E+00  9.000E+00
      25     1     1     2     0     0 -5.114340592E+02  4.327944976E+02  5.021745774E+02  8.465696547E+02  1.250000000E+02  0.00000E+00  9.000E+00
      21     1     1     2   511   502  3.092371419E+01 -4.589582670E+00  1.251542215E+02  1.289996881E+02  1.348699152E-06  0.00000E+00  9.000E+00
#rwgt            1           1   3.2200517321520621E-002           6      307236           0
</event>
<event>
      5   9999  3.19816E-02  3.68013E+01 -1.00000E+00  1.47121E-01
      21    -1     0     0   502   501  0.000000000E+00  0.000000000E+00  1.437392181E+03  1.437392181E+03  0.000000000E+00  0.00000E+00  9.000E+00
      21    -1     0     0   501   512  0.000000000E+00  0.000000000E+00 -4.633926117E+02  4.633926117E+02  0.000000000E+00  0.00000E+00  9.000E+00
      25     1     1     2     0     0  2.842306774E+02 -5.827103977E+02  1.018307687E+03  1.213636696E+03  1.250000000E+02  0.00000E+00  9.000E+00
      25     1     1     2     0     0 -2.478838063E+02  5.769448269E+02 -1.556489469E+01  6.404521689E+02  1.250000000E+02  0.00000E+00  9.000E+00
      21     1     1     2   502   512 -3.634687106E+01  5.765570830E+00 -2.874322243E+01  4.669592786E+01  1.118282261E-06  0.00000E+00  9.000E+00
#rwgt            1           1   3.6976434327746825E-002           6      307418           0
</event>
<event>
      5   9999  3.19816E-02  2.08119E+01 -1.00000E+00  1.64956E-01
      21    -1     0     0   502   501  0.000000000E+00  0.000000000E+00  7.528921502E+02  7.528921502E+02  0.000000000E+00  0.00000E+00  9.000E+00
      21    -1     0     0   511   502  0.000000000E+00  0.000000000E+00 -1.052823726E+03  1.052823726E+03  0.000000000E+00  0.00000E+00  9.000E+00
      25     1     1     2     0     0 -7.388916624E+02 -3.417012673E+02 -4.855098958E+01  8.250471765E+02  1.250000000E+02  0.00000E+00  9.000E+00
      25     1     1     2     0     0  7.525371015E+02  3.259870443E+02 -1.089256332E+02  8.367015213E+02  1.250000000E+02  0.00000E+00  9.000E+00
      21     1     1     2   511   501 -1.364543911E+01  1.571422301E+01 -1.424549533E+02  1.439671786E+02  1.907348633E-06  0.00000E+00  9.000E+00
#rwgt            1           1   3.1357228102483446E-002           6      307560           0
</event>
<event>
      5   9999  3.19816E-02  1.13508E+02 -1.00000E+00  1.21403E-01
      21    -1     0     0   502   512  0.000000000E+00  0.000000000E+00  2.754931944E+02  2.754931944E+02  0.000000000E+00  0.00000E+00  9.000E+00
      21    -1     0     0   501   502  0.000000000E+00  0.000000000E+00 -4.274796118E+02  4.274796118E+02  0.000000000E+00  0.00000E+00  9.000E+00
      25     1     1     2     0     0  8.177339469E+01 -1.471997499E+02 -1.446154882E+01  2.102113005E+02  1.250000000E+02  0.00000E+00  9.000E+00
      25     1     1     2     0     0 -5.242260669E+01  2.568475062E+02 -2.097313354E+02  3.582331701E+02  1.250000000E+02  0.00000E+00  9.000E+00
      21     1     1     2   501   512 -2.935078800E+01 -1.096477564E+02  7.220646684E+01  1.345283356E+02  1.348699152E-06  0.00000E+00  9.000E+00
#rwgt            1           1   2.8643994120138707E-002           6      307758           0
</event>
<event>
      5   9999  3.19816E-02  1.84943E+01 -1.00000E+00  1.69223E-01
      21    -1     0     0   511   501  0.000000000E+00  0.000000000E+00  8.101837748E+02  8.101837748E+02  0.000000000E+00  0.00000E+00  9.000E+00
      21    -1     0     0   501   502  0.000000000E+00  0.000000000E+00 -3.403009787E+02  3.403009787E+02  0.000000000E+00  0.00000E+00  9.000E+00
      25     1     1     2     0     0 -2.032511284E+02 -2.693401180E+02  4.098895459E+02  5.454260355E+02  1.250000000E+02  0.00000E+00  9.000E+00
      25     1     1     2     0     0  1.930063904E+02  2.847376433E+02 -1.490631944E+02  3.951858148E+02  1.250000000E+02  0.00000E+00  9.000E+00
      21     1     1     2   511   502  1.024473801E+01 -1.539752532E+01  2.090564446E+02  2.098729032E+02  0.000000000E+00  0.00000E+00  9.000E+00
#rwgt            1           1   2.9165113668860206E-002           6      307838           0
</event>
<event>
      5   9999  3.19816E-02  1.19907E+02 -1.00000E+00  1.20383E-01
      21    -1     0     0   502   501  0.000000000E+00  0.000000000E+00  2.280102264E+03  2.280102264E+03  0.000000000E+00  0.00000E+00  9.000E+00
      21    -1     0     0   501   512  0.000000000E+00  0.000000000E+00 -1.784049934E+02  1.784049934E+02  0.000000000E+00  0.00000E+00  9.000E+00
      25     1     1     2     0     0 -3.733207487E+02  3.799882710E+02  9.455594908E+02  1.092459252E+03  1.250000000E+02  0.00000E+00  9.000E+00
      25     1     1     2     0     0  4.815514526E+02 -3.283768247E+02  1.042223395E+03  1.200657214E+03  1.250000000E+02  0.00000E+00  9.000E+00
      21     1     1     2   502   512 -1.082307039E+02 -5.161144631E+01  1.139143849E+02  1.653907910E+02  0.000000000E+00  0.00000E+00  9.000E+00
#rwgt            1           1   2.4999636843805052E-002           6      308061           0
</event>
<event>
      5   9999  3.19816E-02  1.09649E+02 -1.00000E+00  1.22055E-01
      21    -1     0     0   502   501  0.000000000E+00  0.000000000E+00  4.147669061E+02  4.147669061E+02  0.000000000E+00  0.00000E+00  9.000E+00
      -3    -1     0     0     0   502  0.000000000E+00  0.000000000E+00 -3.831763657E+02  3.831763657E+02  0.000000000E+00  0.00000E+00  9.000E+00
      25     1     1     2     0     0  1.642086432E+02 -2.518106231E+02  1.287222451E+02  3.500963936E+02  1.250000000E+02  0.00000E+00  9.000E+00
      25     1     1     2     0     0 -6.759809226E+01  1.999511907E+02  6.346982583E+01  2.533838975E+02  1.250000000E+02  0.00000E+00  9.000E+00
      -3     1     1     2     0   501 -9.661055099E+01  5.185943238E+01 -1.606015305E+02  1.944629808E+02  1.907348633E-06  0.00000E+00  9.000E+00
#rwgt            1           1   2.9698476316553372E-002           6      308109           0
</event>
<event>
      5   9999  3.19816E-02  2.78925E+02 -1.00000E+00  1.06630E-01
      21    -1     0     0   511   501  0.000000000E+00  0.000000000E+00  7.416347039E+02  7.416347039E+02  0.000000000E+00  0.00000E+00  9.000E+00
      21    -1     0     0   501   502  0.000000000E+00  0.000000000E+00 -1.482797642E+03  1.482797642E+03  0.000000000E+00  0.00000E+00  9.000E+00
      25     1     1     2     0     0  3.933552665E+02 -3.788553719E+02 -8.782275565E+02  1.041714164E+03  1.250000000E+02  0.00000E+00  9.000E+00
      25     1     1     2     0     0 -5.622466706E+02  6.008341564E+02 -7.012111446E+01  8.352634152E+02  1.250000000E+02  0.00000E+00  9.000E+00
      21     1     1     2   511   502  1.688914041E+02 -2.219787845E+02  2.071857327E+02  3.474547668E+02  2.697398305E-06  0.00000E+00  9.000E+00
#rwgt            2          11   4.2320404245940859E-003           6      308234           0
</event>
<event>
      5   9999  3.19816E-02  1.21650E+01 -1.00000E+00  1.86407E-01
      21    -1     0     0   502   512  0.000000000E+00  0.000000000E+00  1.928774680E+02  1.928774680E+02  0.000000000E+00  0.00000E+00  9.000E+00
      21    -1     0     0   501   502  0.000000000E+00  0.000000000E+00 -2.078137172E+02  2.078137172E+02  0.000000000E+00  0.00000E+00  9.000E+00
      25     1     1     2     0     0  1.256604895E+02 -6.066973621E+01  4.313264410E+01  1.922415161E+02  1.250000000E+02  0.00000E+00  9.000E+00
      25     1     1     2     0     0 -1.288893050E+02  4.894104451E+01 -6.117293656E+01  1.958948875E+02  1.250000000E+02  0.00000E+00  9.000E+00
      21     1     1     2   501   512  3.228815486E+00  1.172869171E+01  3.104043253E+00  1.255478168E+01  2.950279396E-07  0.00000E+00  9.000E+00
#rwgt            1           1   3.3261029094171939E-002           6      308284           0
</event>
<event>
      5   9999  3.19816E-02  1.09941E+02 -1.00000E+00  1.22005E-01
      21    -1     0     0   502   501  0.000000000E+00  0.000000000E+00  1.802179429E+02  1.802179429E+02  0.000000000E+00  0.00000E+00  9.000E+00
       1    -1     0     0   501     0  0.000000000E+00  0.000000000E+00 -1.390130626E+03  1.390130626E+03  0.000000000E+00  0.00000E+00  9.000E+00
      25     1     1     2     0     0  2.528993301E+02  2.491817459E+02 -2.357886676E+02  4.441518990E+02  1.250000000E+02  0.00000E+00  9.000E+00
      25     1     1     2     0     0 -2.929585157E+02 -1.467986345E+02 -3.610594281E+02  5.033522043E+02  1.250000000E+02  0.00000E+00  9.000E+00
       1     1     1     2   502     0  4.005918560E+01 -1.023831114E+02 -6.130645876E+02  6.228444657E+02  7.629394531E-06  0.00000E+00  9.000E+00
#rwgt            2          12   3.3160401954555793E-004           6      308518           0
</event>
<event>
      5   9999  3.19816E-02  1.31410E+02 -1.00000E+00  1.18717E-01
      21    -1     0     0   502   501  0.000000000E+00  0.000000000E+00  2.138539299E+02  2.138539299E+02  0.000000000E+00  0.00000E+00  9.000E+00
      21    -1     0     0   511   502  0.000000000E+00  0.000000000E+00 -1.722715680E+03  1.722715680E+03  0.000000000E+00  0.00000E+00  9.000E+00
      25     1     1     2     0     0 -4.604748994E+02 -1.040323095E+02 -7.580927678E+02  9.017702030E+02  1.250000000E+02  0.00000E+00  9.000E+00
      25     1     1     2     0     0  5.192678476E+02  2.215563245E+02 -5.763001792E+02  8.163780980E+02  1.250000000E+02  0.00000E+00  9.000E+00
      21     1     1     2   511   501 -5.879294813E+01 -1.175240151E+02 -1.744688026E+02  2.184213084E+02  0.000000000E+00  0.00000E+00  9.000E+00
#rwgt            1           1   3.0508561119967883E-002           6      308552           0
</event>
<event>
      5   9999  3.19816E-02  5.85125E+01 -1.00000E+00  1.35289E-01
      21    -1     0     0   502   501  0.000000000E+00  0.000000000E+00  2.507575205E+02  2.507575205E+02  0.000000000E+00  0.00000E+00  9.000E+00
      21    -1     0     0   512   502  0.000000000E+00  0.000000000E+00 -4.021340347E+02  4.021340347E+02  0.000000000E+00  0.00000E+00  9.000E+00
      25     1     1     2     0     0 -2.842744651E+01  2.767822373E+02 -1.050183540E+02  3.225994131E+02  1.250000000E+02  0.00000E+00  9.000E+00
      25     1     1     2     0     0 -9.246553590E+00 -2.320119546E+02 -1.554493215E+01  2.641622432E+02  1.250000000E+02  0.00000E+00  9.000E+00
      21     1     1     2   512   501  3.767400010E+01 -4.477028275E+01 -3.081322810E+01  6.612989889E+01  6.743495762E-07  0.00000E+00  9.000E+00
#rwgt            1           1   3.3401571974353506E-002           6      308619           0
</event>
<event>
      5   9999  3.19816E-02  5.22131E+01 -1.00000E+00  1.38011E-01
      21    -1     0     0   502   501  0.000000000E+00  0.000000000E+00  1.086518772E+03  1.086518772E+03  0.000000000E+00  0.00000E+00  9.000E+00
      21    -1     0     0   511   502  0.000000000E+00  0.000000000E+00 -9.495849795E+02  9.495849795E+02  0.000000000E+00  0.00000E+00  9.000E+00
      25     1     1     2     0     0 -6.669176414E+02  6.895748131E+02  1.432183755E+02  9.779719149E+02  1.250000000E+02  0.00000E+00  9.000E+00
      25     1     1     2     0     0  6.604828738E+02 -7.413898610E+02  1.713459562E+01  1.000907162E+03  1.250000000E+02  0.00000E+00  9.000E+00
      21     1     1     2   511   501  6.434767594E+00  5.181504789E+01 -2.341917879E+01  5.722467437E+01  7.539457465E-07  0.00000E+00  9.000E+00
#rwgt            1           1   3.5474686886936960E-002           6      308713           0
</event>
<event>
      5   9999  3.25654E-02  1.12991E+01 -1.00000E+00  1.89819E-01
      21    -1     0     0   512   501  0.000000000E+00  0.000000000E+00  2.155782875E+01  2.155782875E+01  0.000000000E+00  0.00000E+00  9.000E+00
      21    -1     0     0   501   502  0.000000000E+00  0.000000000E+00 -3.587584633E+03  3.587584633E+03  0.000000000E+00  0.00000E+00  9.000E+00
      25     1     1     2     0     0 -3.449016012E+01 -2.076498454E+02 -1.123583189E+03  1.149944439E+03  1.250000000E+02  0.00000E+00  9.000E+00
      25     1     1     2     0     0  2.319167309E+01  2.075346752E+02 -2.430870732E+03  2.443023948E+03  1.250000000E+02  0.00000E+00  9.000E+00
      21     1     1     2   512   502  1.129848704E+01  1.151701959E-01 -1.157288302E+01  1.617407478E+01  6.529361695E-07  0.00000E+00  9.000E+00
#rwgt            1           1   1.1973055953486252E-002           6      308874           0
</event>
<event>
      5   9999  3.19816E-02  4.70292E+02 -1.00000E+00  9.96137E-02
      21    -1     0     0   502   501  0.000000000E+00  0.000000000E+00  2.763166292E+03  2.763166292E+03  0.000000000E+00  0.00000E+00  9.000E+00
       3    -1     0     0   501     0  0.000000000E+00  0.000000000E+00 -4.336228694E+02  4.336228694E+02  0.000000000E+00  0.00000E+00  9.000E+00
      25     1     1     2     0     0  3.623560270E+01 -2.424748245E+02  4.834655916E+02  5.563012113E+02  1.250000000E+02  0.00000E+00  9.000E+00
      25     1     1     2     0     0  2.201677790E+02  6.367236680E+02  2.024632459E+03  2.137440637E+03  1.250000000E+02  0.00000E+00  9.000E+00
       3     1     1     2   502     0 -2.564033817E+02 -3.942488436E+02 -1.785546279E+02  5.030473138E+02  6.031565972E-06  0.00000E+00  9.000E+00
#rwgt            2          14   4.6732728442221025E-004           6      309113           0
</event>
<event>
      5   9999  3.19816E-02  1.15053E+01 -1.00000E+00  1.88971E-01
      21    -1     0     0   511   501  0.000000000E+00  0.000000000E+00  2.434384337E+02  2.434384337E+02  0.000000000E+00  0.00000E+00  9.000E+00
      21    -1     0     0   501   502  0.000000000E+00  0.000000000E+00 -2.645280843E+02  2.645280843E+02  0.000000000E+00  0.00000E+00  9.000E+00
      25     1     1     2     0     0 -8.643870163E+01 -5.155334254E+01 -1.978893056E+02  2.547833855E+02  1.250000000E+02  0.00000E+00  9.000E+00
      25     1     1     2     0     0  9.623937921E+01  5.757984285E+01  1.729050309E+02  2.410365245E+02  1.250000000E+02  0.00000E+00  9.000E+00
      21     1     1     2   511   502 -9.800677580E+00 -6.026500313E+00  3.894624114E+00  1.214660792E+01  1.632340424E-07  0.00000E+00  9.000E+00
#rwgt            1           1   2.7283637119162853E-002           6      309147           0
</event>
<event>
      5   9999  3.19816E-02  1.91369E+02 -1.00000E+00  1.12350E-01
      -4    -1     0     0     0   501  0.000000000E+00  0.000000000E+00  3.782142625E+02  3.782142625E+02  0.000000000E+00  0.00000E+00  9.000E+00
      21    -1     0     0   501   502  0.000000000E+00  0.000000000E+00 -3.135145468E+02  3.135145468E+02  0.000000000E+00  0.00000E+00  9.000E+00
      25     1     1     2     0     0  5.606776940E+01 -1.311282151E+02  8.720150506E+01  2.087278277E+02  1.250000000E+02  0.00000E+00  9.000E+00
      25     1     1     2     0     0  1.005401240E+02  2.411101047E+02  5.151110975E+00  2.896444943E+02  1.250000000E+02  0.00000E+00  9.000E+00
      -4     1     1     2     0   502 -1.566078934E+02 -1.099818896E+02 -2.765290025E+01  1.933564874E+02  2.336015456E-06  0.00000E+00  9.000E+00
#rwgt            2           2   1.5218481644815257E-005           6      309291           0
</event>
<event>
      5   9999  3.19816E-02  9.63208E+00 -1.00000E+00  1.97658E-01
      21    -1     0     0   511   501  0.000000000E+00  0.000000000E+00  1.104247363E+02  1.104247363E+02  0.000000000E+00  0.00000E+00  9.000E+00
      21    -1     0     0   501   502  0.000000000E+00  0.000000000E+00 -5.200331407E+02  5.200331407E+02  0.000000000E+00  0.00000E+00  9.000E+00
      25     1     1     2     0     0 -1.093864967E+02 -2.695335676E+01 -2.676340471E+00  1.682975101E+02  1.250000000E+02  0.00000E+00  9.000E+00
      25     1     1     2     0     0  1.016101394E+02  3.263711766E+01 -4.170024252E+02  4.482251940E+02  1.250000000E+02  0.00000E+00  9.000E+00
      21     1     1     2   511   502  7.776357254E+00 -5.683760904E+00  1.007036130E+01  1.393517301E+01  1.685873940E-07  0.00000E+00  9.000E+00
#rwgt            1           1   2.9683531388859499E-002           6      309310           0
</event>
<event>
      5   9999  3.19816E-02  7.68458E+01 -1.00000E+00  1.29201E-01
      21    -1     0     0   512   501  0.000000000E+00  0.000000000E+00  3.911305749E+02  3.911305749E+02  0.000000000E+00  0.00000E+00  9.000E+00
      21    -1     0     0   501   502  0.000000000E+00  0.000000000E+00 -4.446520265E+02  4.446520265E+02  0.000000000E+00  0.00000E+00  9.000E+00
      25     1     1     2     0     0  1.849234633E+01 -8.511091741E+01  2.741991446E+02  3.136813766E+02  1.250000000E+02  0.00000E+00  9.000E+00
      25     1     1     2     0     0 -6.246596744E+01  1.481315165E+02 -3.786317459E+02  4.299208558E+02  1.250000000E+02  0.00000E+00  9.000E+00
      21     1     1     2   512   502  4.397362110E+01 -6.302059911E+01  5.091114961E+01  9.218036895E+01  1.507891493E-06  0.00000E+00  9.000E+00
#rwgt            1           1   2.8858168696994726E-002           6      309579           0
</event>
<event>
      5   9999  3.19816E-02  3.58075E+01 -1.00000E+00  1.47887E-01
      21    -1     0     0   511   501  0.000000000E+00  0.000000000E+00  3.014592217E+03  3.014592217E+03  0.000000000E+00  0.00000E+00  9.000E+00
      21    -1     0     0   501   502  0.000000000E+00  0.000000000E+00 -2.993036128E+02  2.993036128E+02  0.000000000E+00  0.00000E+00  9.000E+00
      25     1     1     2     0     0  3.401183398E+02 -1.026265275E+01  1.122891365E+02  3.794992191E+02  1.250000000E+02  0.00000E+00  9.000E+00
      25     1     1     2     0     0 -3.044067370E+02  7.643656906E+00 -1.984190228E+00  3.291668635E+02  1.250000000E+02  0.00000E+00  9.000E+00
      21     1     1     2   511   502 -3.571160280E+01  2.618995839E+00  2.604983658E+03  2.605229747E+03  3.051757812E-05  0.00000E+00  9.000E+00
#rwgt            1           1   2.5011356117589683E-002           6      309674           0
</event>
<event>
      5   9999  3.19816E-02  1.32496E+01 -1.00000E+00  1.82616E-01
      21    -1     0     0   512   501  0.000000000E+00  0.000000000E+00  1.470260898E+02  1.470260898E+02  0.000000000E+00  0.00000E+00  9.000E+00
      21    -1     0     0   501   502  0.000000000E+00  0.000000000E+00 -3.504195646E+02  3.504195646E+02  0.000000000E+00  0.00000E+00  9.000E+00
      25     1     1     2     0     0  2.063168918E+01  1.685493293E+02 -3.182965386E+01  2.132432177E+02  1.250000000E+02  0.00000E+00  9.000E+00
      25     1     1     2     0     0 -3.191489942E+01 -1.616038327E+02 -1.745679581E+02  2.706165766E+02  1.250000000E+02  0.00000E+00  9.000E+00
      21     1     1     2   512   502  1.128321024E+01 -6.945496634E+00  3.004137159E+00  1.358586018E+01  5.960464478E-08  0.00000E+00  9.000E+00
#rwgt            1           1   2.8276498884552349E-002           6      309834           0
</event>
<event>
      5   9999  3.19816E-02  2.83995E+01 -1.00000E+00  1.54712E-01
      21    -1     0     0   502   511  0.000000000E+00  0.000000000E+00  4.794229038E+02  4.794229038E+02  0.000000000E+00  0.00000E+00  9.000E+00
      21    -1     0     0   501   502  0.000000000E+00  0.000000000E+00 -1.501150875E+02  1.501150875E+02  0.000000000E+00  0.00000E+00  9.000E+00
      25     1     1     2     0     0 -3.095925906E+01 -1.632817160E+02  2.995587383E+02  3.646639990E+02  1.250000000E+02  0.00000E+00  9.000E+00
      25     1     1     2     0     0  4.614413410E+01  1.392827484E+02 -3.340633460E+01  1.956270644E+02  1.250000000E+02  0.00000E+00  9.000E+00
      21     1     1     2   501   511 -1.518487504E+01  2.399896760E+01  6.315541267E+01  6.924692791E+01  9.536743164E-07  0.00000E+00  9.000E+00
#rwgt            1           1   2.7878954636532352E-002           6      310081           0
</event>
<event>
      5   9999  3.21112E-02  1.28607E+02 -1.00000E+00  1.19105E-01
      21    -1     0     0   502   501  0.000000000E+00  0.000000000E+00  1.497473987E+03  1.497473987E+03  0.000000000E+00  0.00000E+00  9.000E+00
       4    -1     0     0   501     0  0.000000000E+00  0.000000000E+00 -1.103142053E+03  1.103142053E+03  0.000000000E+00  0.00000E+00  9.000E+00
      25     1     1     2     0     0 -7.300590020E+02 -1.089610716E+02  1.743329119E+02  7.686843472E+02  1.250000000E+02  0.00000E+00  9.000E+00
      25     1     1     2     0     0  7.621600793E+02 -1.557539998E+01  8.733899630E+02  1.166004120E+03  1.250000000E+02  0.00000E+00  9.000E+00
       4     1     1     2   502     0 -3.210107727E+01  1.245364715E+02 -6.533909410E+02  6.659275739E+02  0.000000000E+00  0.00000E+00  9.000E+00
#rwgt            1           1   3.3559306705890746E-002           6      310245           0
</event>
<event>
      5   9999  3.19816E-02  1.37162E+02 -1.00000E+00  1.17955E-01
      21    -1     0     0   511   501  0.000000000E+00  0.000000000E+00  1.127093316E+03  1.127093316E+03  0.000000000E+00  0.00000E+00  9.000E+00
      21    -1     0     0   501   502  0.000000000E+00  0.000000000E+00 -1.410070372E+02  1.410070372E+02  0.000000000E+00  0.00000E+00  9.000E+00
      25     1     1     2     0     0  2.448418760E+02  2.209928194E-02  4.134240845E+02  4.964796254E+02  1.250000000E+02  0.00000E+00  9.000E+00
      25     1     1     2     0     0 -1.170399731E+02 -4.982285025E+01 -4.485910038E+00  1.783978562E+02  1.250000000E+02  0.00000E+00  9.000E+00
      21     1     1     2   511   502 -1.278019029E+02  4.980075097E+01  5.771481044E+02  5.932228718E+02  7.629394531E-06  0.00000E+00  9.000E+00
#rwgt            2          11   2.0767212541993123E-003           6      310407           0
</event>
<event>
      5   9999  3.19816E-02  1.34400E+02 -1.00000E+00  1.18316E-01
      21    -1     0     0   502   501  0.000000000E+00  0.000000000E+00  2.658415924E+02  2.658415924E+02  0.000000000E+00  0.00000E+00  9.000E+00
       2    -1     0     0   501     0  0.000000000E+00  0.000000000E+00 -2.503796071E+03  2.503796071E+03  0.000000000E+00  0.00000E+00  9.000E+00
      25     1     1     2     0     0  3.064457884E+02  2.727023978E+02 -1.465978378E+03  1.527413900E+03  1.250000000E+02  0.00000E+00  9.000E+00
      25     1     1     2     0     0 -2.673916086E+02 -4.013030780E+02 -4.194799980E+01  4.999270621E+02  1.250000000E+02  0.00000E+00  9.000E+00
       2     1     1     2   502     0 -3.905417974E+01  1.286006801E+02 -7.300281014E+02  7.422967013E+02  1.525878906E-05  0.00000E+00  9.000E+00
#rwgt            1           1   3.6811216866246263E-002           6      310427           0
</event>
<event>
      5   9999  3.19816E-02  2.47702E+01 -1.00000E+00  1.59052E-01
      21    -1     0     0   502   511  0.000000000E+00  0.000000000E+00  2.206594230E+02  2.206594230E+02  0.000000000E+00  0.00000E+00  9.000E+00
      21    -1     0     0   501   502  0.000000000E+00  0.000000000E+00 -6.825325518E+02  6.825325518E+02  0.000000000E+00  0.00000E+00  9.000E+00
      25     1     1     2     0     0  1.140563205E+02 -1.264301862E+02  1.259968689E+02  2.459545633E+02  1.250000000E+02  0.00000E+00  9.000E+00
      25     1     1     2     0     0 -9.501392279E+01  1.105888441E+02 -5.997627399E+02  6.297601783E+02  1.250000000E+02  0.00000E+00  9.000E+00
      21     1     1     2   501   511 -1.904239775E+01  1.584134206E+01  1.189274220E+01  2.747723325E+01  4.129530925E-07  0.00000E+00  9.000E+00
#rwgt            1           1   2.7831674293495874E-002           6      310515           0
</event>
<event>
      5   9999  3.19816E-02  3.81363E+02 -1.00000E+00  1.02313E-01
      21    -1     0     0   502   501  0.000000000E+00  0.000000000E+00  3.645399796E+03  3.645399796E+03  0.000000000E+00  0.00000E+00  9.000E+00
      -4    -1     0     0     0   502  0.000000000E+00  0.000000000E+00 -1.081191837E+02  1.081191837E+02  0.000000000E+00  0.00000E+00  9.000E+00
      25     1     1     2     0     0  1.654214557E+02  4.216681893E+00  7.123238352E+02  7.418977589E+02  1.250000000E+02  0.00000E+00  9.000E+00
      25     1     1     2     0     0 -1.211307657E+01  3.449743957E+02  2.448082707E+03  2.475457130E+03  1.250000000E+02  0.00000E+00  9.000E+00
      -4     1     1     2     0   501 -1.533083791E+02 -3.491910776E+02  3.768740695E+02  5.361640906E+02  1.078959322E-05  0.00000E+00  9.000E+00
#rwgt            2           7   6.7159543601242415E-005           6      310675           0
</event>
<event>
      5   9999  3.19816E-02  4.86663E+01 -1.00000E+00  1.39749E-01
      21    -1     0     0   502   501  0.000000000E+00  0.000000000E+00  3.990529832E+02  3.990529832E+02  0.000000000E+00  0.00000E+00  9.000E+00
      21    -1     0     0   511   502  0.000000000E+00  0.000000000E+00 -5.093390247E+02  5.093390247E+02  0.000000000E+00  0.00000E+00  9.000E+00
      25     1     1     2     0     0 -1.698251799E+01  2.890924399E+02  2.449483494E+02  3.993589095E+02  1.250000000E+02  0.00000E+00  9.000E+00
      25     1     1     2     0     0  5.437344541E+01 -2.579423996E+02 -2.202644806E+02  3.655573751E+02  1.250000000E+02  0.00000E+00  9.000E+00
      21     1     1     2   511   501 -3.739092741E+01 -3.115004026E+01 -1.349699104E+02  1.434757233E+02  1.907348633E-06  0.00000E+00  9.000E+00
#rwgt            1           1   2.8042127730408546E-002           6      310694           0
</event>
<event>
      5   9999  3.19816E-02  1.08162E+02 -1.00000E+00  1.22314E-01
      21    -1     0     0   502   512  0.000000000E+00  0.000000000E+00  8.371697631E+02  8.371697631E+02  0.000000000E+00  0.00000E+00  9.000E+00
      21    -1     0     0   501   502  0.000000000E+00  0.000000000E+00 -2.015785437E+02  2.015785437E+02  0.000000000E+00  0.00000E+00  9.000E+00
      25     1     1     2     0     0  6.571809827E+00 -9.385290525E+01  4.389801694E+02  4.660259066E+02  1.250000000E+02  0.00000E+00  9.000E+00
      25     1     1     2     0     0 -3.311233430E+00 -1.426037819E+01 -1.579908708E+02  2.019911827E+02  1.250000000E+02  0.00000E+00  9.000E+00
      21     1     1     2   501   512 -3.260576397E+00  1.081132834E+02  3.546019208E+02  3.707312175E+02  3.814697266E-06  0.00000E+00  9.000E+00
#rwgt            1           1   2.4447230070808321E-002           6      310842           0
</event>
<event>
      5   9999  3.19816E-02  3.43520E+01 -1.00000E+00  1.49063E-01
      21    -1     0     0   511   501  0.000000000E+00  0.000000000E+00  5.459150654E+02  5.459150654E+02  0.000000000E+00  0.00000E+00  9.000E+00
      21    -1     0     0   501   502  0.000000000E+00  0.000000000E+00 -2.040769413E+03  2.040769413E+03  0.000000000E+00  0.00000E+00  9.000E+00
      25     1     1     2     0     0 -5.215854384E+02 -6.551302760E+02 -2.077378376E+02  8.717953070E+02  1.250000000E+02  0.00000E+00  9.000E+00
      25     1     1     2     0     0  4.928968937E+02  6.740253806E+02 -1.378913552E+03  1.616875118E+03  1.250000000E+02  0.00000E+00  9.000E+00
      21     1     1     2   511   502  2.868854470E+01 -1.889510464E+01  9.179704280E+01  9.801405329E+01  1.348699152E-06  0.00000E+00  9.000E+00
#rwgt            1           1   3.0229986099731588E-002           6      310904           0
</event>
<event>
      5   9999  3.19816E-02  9.03680E+01 -1.00000E+00  1.25839E-01
      21    -1     0     0   502   501  0.000000000E+00  0.000000000E+00  7.269079495E+02  7.269079495E+02  0.000000000E+00  0.00000E+00  9.000E+00
      21    -1     0     0   501   512  0.000000000E+00  0.000000000E+00 -2.508650046E+02  2.508650046E+02  0.000000000E+00  0.00000E+00  9.000E+00
      25     1     1     2     0     0 -2.419412705E+02 -1.555050681E+02  3.714294298E+02  4.861092736E+02  1.250000000E+02  0.00000E+00  9.000E+00
      25     1     1     2     0     0  2.759272859E+02  2.392387013E+02  5.915624090E+01  3.905067018E+02  1.250000000E+02  0.00000E+00  9.000E+00
      21     1     1     2   502   512 -3.398601536E+01 -8.373363319E+01  4.545727418E+01  1.011569787E+02  1.168007728E-06  0.00000E+00  9.000E+00
#rwgt            1           1   2.9117987655212934E-002           6      311148           0
</event>
<event>
      5   9999  3.19816E-02  3.19484E+02 -1.00000E+00  1.04712E-01
      21    -1     0     0   511   501  0.000000000E+00  0.000000000E+00  6.286152127E+02  6.286152127E+02  0.000000000E+00  0.00000E+00  9.000E+00
      21    -1     0     0   501   502  0.000000000E+00  0.000000000E+00 -4.421324256E+02  4.421324256E+02  0.000000000E+00  0.00000E+00  9.000E+00
      25     1     1     2     0     0 -4.649544607E+02  7.196017702E+01  1.495224016E+02  5.092571710E+02  1.250000000E+02  0.00000E+00  9.000E+00
      25     1     1     2     0     0  1.654040871E+02  3.912252350E+01 -7.354644685E+01  2.234349205E+02  1.250000000E+02  0.00000E+00  9.000E+00
      21     1     1     2   511   502  2.995503736E+02 -1.110827005E+02  1.105068324E+02  3.380555468E+02  3.015782986E-06  0.00000E+00  9.000E+00
#rwgt            2          11   3.0354313655552101E-003           6      311210           0
</event>
<event>
      5   9999  3.19816E-02  1.61015E+01 -1.00000E+00  1.74533E-01
       2    -1     0     0   502     0  0.000000000E+00  0.000000000E+00  1.854508130E+03  1.854508130E+03  0.000000000E+00  0.00000E+00  9.000E+00
      21    -1     0     0   501   502  0.000000000E+00  0.000000000E+00 -1.343254753E+02  1.343254753E+02  0.000000000E+00  0.00000E+00  9.000E+00
      25     1     1     2     0     0  7.952364610E+01  1.040230672E+02  9.235376759E+02  9.411119208E+02  1.250000000E+02  0.00000E+00  9.000E+00
      25     1     1     2     0     0 -6.413920990E+01 -9.927139419E+01 -6.649451784E+01  1.844320169E+02  1.250000000E+02  0.00000E+00  9.000E+00
       2     1     1     2   501     0 -1.538443620E+01 -4.751673055E+00  8.631394971E+02  8.632896679E+02  1.078959322E-05  0.00000E+00  9.000E+00
#rwgt            1           1   2.5782402367862597E-002           6      311260           0
</event>
<event>
      5   9999  3.19816E-02  4.56850E+01 -1.00000E+00  1.41349E-01
      21    -1     0     0   502   501  0.000000000E+00  0.000000000E+00  7.533976381E+01  7.533976381E+01  0.000000000E+00  0.00000E+00  9.000E+00
      21    -1     0     0   511   502  0.000000000E+00  0.000000000E+00 -7.250583917E+02  7.250583917E+02  0.000000000E+00  0.00000E+00  9.000E+00
      25     1     1     2     0     0  1.191123585E+02 -3.956972982E+01 -8.342727079E+01  1.958025204E+02  1.250000000E+02  0.00000E+00  9.000E+00
      25     1     1     2     0     0 -8.289307438E+01  6.741360643E+01 -4.718862520E+02  4.997174111E+02  1.250000000E+02  0.00000E+00  9.000E+00
      21     1     1     2   511   501 -3.621928416E+01 -2.784387660E+01 -9.440510506E+01  1.048782240E+02  1.907348633E-06  0.00000E+00  9.000E+00
#rwgt            1           1   2.6451475324138638E-002           6      311366           0
</event>
<event>
      5   9999  3.19816E-02  4.05188E+01 -1.00000E+00  1.44494E-01
      21    -1     0     0   502   501  0.000000000E+00  0.000000000E+00  2.349342984E+02  2.349342984E+02  0.000000000E+00  0.00000E+00  9.000E+00
      21    -1     0     0   501   512  0.000000000E+00  0.000000000E+00 -8.787833314E+02  8.787833314E+02  0.000000000E+00  0.00000E+00  9.000E+00
      25     1     1     2     0     0  3.057680765E+02  1.945716058E+01 -5.959959675E+02  6.816956000E+02  1.250000000E+02  0.00000E+00  9.000E+00
      25     1     1     2     0     0 -3.434809922E+02 -3.427286851E+01  2.830099143E+00  3.671332605E+02  1.250000000E+02  0.00000E+00  9.000E+00
      21     1     1     2   502   512  3.771291571E+01  1.481570793E+01 -5.068316452E+01  6.488876928E+01  1.348699152E-06  0.00000E+00  9.000E+00
#rwgt            1           1   2.8948152176359401E-002           6      311446           0
</event>
<event>
      5   9999  3.19816E-02  4.20448E+01 -1.00000E+00  1.43510E-01
      21    -1     0     0   502   501  0.000000000E+00  0.000000000E+00  2.871384047E+01  2.871384047E+01  0.000000000E+00  0.00000E+00  9.000E+00
       2    -1     0     0   501     0  0.000000000E+00  0.000000000E+00 -2.850994795E+03  2.850994795E+03  0.000000000E+00  0.00000E+00  9.000E+00
      25     1     1     2     0     0 -1.158995251E+02 -2.169866079E+01 -3.273921188E+02  3.697487407E+02  1.250000000E+02  0.00000E+00  9.000E+00
      25     1     1     2     0     0  1.225002964E+02  6.322213518E+01 -1.195949370E+03  1.210340141E+03  1.250000000E+02  0.00000E+00  9.000E+00
       2     1     1     2   502     0 -6.600771313E+00 -4.152347439E+01 -1.298939466E+03  1.299619754E+03  1.525878906E-05  0.00000E+00  9.000E+00
#rwgt            1           1   2.6562325958809887E-002           6      311530           0
</event>
<event>
      5   9999  3.19816E-02  2.05943E+02 -1.00000E+00  1.11187E-01
      21    -1     0     0   502   501  0.000000000E+00  0.000000000E+00  7.214569528E+02  7.214569528E+02  0.000000000E+00  0.00000E+00  9.000E+00
      21    -1     0     0   501   511  0.000000000E+00  0.000000000E+00 -6.597742354E+02  6.597742354E+02  0.000000000E+00  0.00000E+00  9.000E+00
      25     1     1     2     0     0 -3.951826622E+02  2.524839939E+02  4.051177394E+02  6.321889642E+02  1.250000000E+02  0.00000E+00  9.000E+00
      25     1     1     2     0     0  2.283365944E+02 -3.732112721E+02 -1.943186069E+02  4.947817448E+02  1.250000000E+02  0.00000E+00  9.000E+00
      21     1     1     2   502   511  1.668460678E+02  1.207272782E+02 -1.491164151E+02  2.542604792E+02  0.000000000E+00  0.00000E+00  9.000E+00
#rwgt            2          11   4.1940647151491621E-003           6      311660           0
</event>
<event>
      5   9999  3.19816E-02  1.31088E+02 -1.00000E+00  1.18761E-01
      21    -1     0     0   512   501  0.000000000E+00  0.000000000E+00  7.199856881E+02  7.199856881E+02  0.000000000E+00  0.00000E+00  9.000E+00
      21    -1     0     0   501   502  0.000000000E+00  0.000000000E+00 -2.281127866E+02  2.281127866E+02  0.000000000E+00  0.00000E+00  9.000E+00
      25     1     1     2     0     0  6.545079083E+01  1.553052340E+02  3.011582184E+02  3.670487628E+02  1.250000000E+02  0.00000E+00  9.000E+00
      25     1     1     2     0     0  2.555416040E+01 -2.496564681E+02 -7.022856264E+01  2.890301337E+02  1.250000000E+02  0.00000E+00  9.000E+00
      21     1     1     2   512   502 -9.100495123E+01  9.435123412E+01  2.609432457E+02  2.920195782E+02  5.394796609E-06  0.00000E+00  9.000E+00
#rwgt            1           1   2.8678852931810883E-002           6      311710           0
</event>
<event>
      5   9999  3.19816E-02  7.67165E+01 -1.00000E+00  1.29237E-01
      21    -1     0     0   502   501  0.000000000E+00  0.000000000E+00  4.786796505E+02  4.786796505E+02  0.000000000E+00  0.00000E+00  9.000E+00
      21    -1     0     0   511   502  0.000000000E+00  0.000000000E+00 -1.201382976E+03  1.201382976E+03  0.000000000E+00  0.00000E+00  9.000E+00
      25     1     1     2     0     0 -2.379012043E+02  3.399373306E+02 -5.621485942E+01  4.369662254E+02  1.250000000E+02  0.00000E+00  9.000E+00
      25     1     1     2     0     0  3.137760199E+02 -3.512699366E+02  7.899918693E+01  4.936717843E+02  1.250000000E+02  0.00000E+00  9.000E+00
      21     1     1     2   511   501 -7.587481560E+01  1.133260598E+01 -7.454876529E+02  7.494246168E+02  0.000000000E+00  0.00000E+00  9.000E+00
#rwgt            1           1   2.8206812183156859E-002           6      311776           0
</event>
<event>
      5   9999  3.19816E-02  7.40243E+01 -1.00000E+00  1.30003E-01
      21    -1     0     0   502   501  0.000000000E+00  0.000000000E+00  6.006302420E+02  6.006302420E+02  0.000000000E+00  0.00000E+00  9.000E+00
      21    -1     0     0   512   502  0.000000000E+00  0.000000000E+00 -3.527426468E+02  3.527426468E+02  0.000000000E+00  0.00000E+00  9.000E+00
      25     1     1     2     0     0  1.796820969E+01  2.130465346E+02 -2.035768563E+02  3.205935415E+02  1.250000000E+02  0.00000E+00  9.000E+00
      25     1     1     2     0     0  3.684884000E+01 -2.627928164E+02  4.722123407E+02  5.559023260E+02  1.250000000E+02  0.00000E+00  9.000E+00
      21     1     1     2   512   501 -5.481704969E+01  4.974628180E+01 -2.074788929E+01  7.687702127E+01  4.768371582E-07  0.00000E+00  9.000E+00
#rwgt            1           1   3.0570092869707591E-002           6      311973           0
</event>
<event>
      5   9999  3.19816E-02  3.69872E+01 -1.00000E+00  1.46981E-01
      21    -1     0     0   502   501  0.000000000E+00  0.000000000E+00  1.198250504E+02  1.198250504E+02  0.000000000E+00  0.00000E+00  9.000E+00
       2    -1     0     0   501     0  0.000000000E+00  0.000000000E+00 -1.155588153E+03  1.155588153E+03  0.000000000E+00  0.00000E+00  9.000E+00
      25     1     1     2     0     0 -1.707213188E+02  1.762395834E+01 -4.162841523E+02  4.673048984E+02  1.250000000E+02  0.00000E+00  9.000E+00
      25     1     1     2     0     0  1.464640164E+02  1.029799686E+01 -5.387063424E+00  1.929035440E+02  1.250000000E+02  0.00000E+00  9.000E+00
       2     1     1     2   502     0  2.425730235E+01 -2.792195520E+01 -6.140918874E+02  6.152047614E+02  0.000000000E+00  0.00000E+00  9.000E+00
#rwgt            1           1   2.9806830869542240E-002           6      312048           0
</event>
<event>
      5   9999  3.19816E-02  6.00491E+01 -1.00000E+00  1.34684E-01
      21    -1     0     0   502   511  0.000000000E+00  0.000000000E+00  8.565672497E+02  8.565672497E+02  0.000000000E+00  0.00000E+00  9.000E+00
      21    -1     0     0   501   502  0.000000000E+00  0.000000000E+00 -5.704370513E+01  5.704370513E+01  0.000000000E+00  0.00000E+00  9.000E+00
      25     1     1     2     0     0 -4.746664885E+01 -7.342336985E+01  1.097902619E+02  1.879440757E+02  1.250000000E+02  0.00000E+00  9.000E+00
      25     1     1     2     0     0 -1.192516178E+01  6.456305398E+01  3.027902060E+02  3.340920625E+02  1.250000000E+02  0.00000E+00  9.000E+00
      21     1     1     2   501   511  5.939181063E+01  8.860315873E+00  3.869430767E+02  3.915748166E+02  0.000000000E+00  0.00000E+00  9.000E+00
#rwgt            1           1   6.9974645907099522E-002           6      312158           0
</event>
<event>
      5   9999  3.19816E-02  1.17368E+02 -1.00000E+00  1.20778E-01
      21    -1     0     0   512   501  0.000000000E+00  0.000000000E+00  5.983523168E+02  5.983523168E+02  0.000000000E+00  0.00000E+00  9.000E+00
      21    -1     0     0   501   502  0.000000000E+00  0.000000000E+00 -6.747586982E+02  6.747586982E+02  0.000000000E+00  0.00000E+00  9.000E+00
      25     1     1     2     0     0  2.936420996E+02 -5.178929720E+02 -1.518722508E+02  6.269999949E+02  1.250000000E+02  0.00000E+00  9.000E+00
      25     1     1     2     0     0 -2.207476103E+02  4.259052428E+02 -1.802333787E+01  4.960590933E+02  1.250000000E+02  0.00000E+00  9.000E+00
      21     1     1     2   512   502 -7.289448931E+01  9.198772914E+01  9.348920721E+01  1.500519268E+02  1.907348633E-06  0.00000E+00  9.000E+00
#rwgt            2          11   4.8033080377632735E-003           6      312302           0
</event>
<event>
      5   9999  3.19816E-02  5.62632E+01 -1.00000E+00  1.36213E-01
      21    -1     0     0   502   511  0.000000000E+00  0.000000000E+00  3.316817066E+02  3.316817066E+02  0.000000000E+00  0.00000E+00  9.000E+00
      21    -1     0     0   501   502  0.000000000E+00  0.000000000E+00 -4.218391339E+02  4.218391339E+02  0.000000000E+00  0.00000E+00  9.000E+00
      25     1     1     2     0     0 -1.493122617E+02  2.176769071E+00 -2.366078810E+02  3.064427828E+02  1.250000000E+02  0.00000E+00  9.000E+00
      25     1     1     2     0     0  1.821131683E+02  4.353590264E+01 -6.008640767E+01  2.330149293E+02  1.250000000E+02  0.00000E+00  9.000E+00
      21     1     1     2   501   511 -3.280090657E+01 -4.571267171E+01  2.065368614E+02  2.140631284E+02  2.697398305E-06  0.00000E+00  9.000E+00
#rwgt            1           1   2.8072062460666795E-002           6      312322           0
</event>
<event>
      5   9999  3.19816E-02  8.63127E+01 -1.00000E+00  1.26773E-01
      21    -1     0     0   512   501  0.000000000E+00  0.000000000E+00  7.840240044E+01  7.840240044E+01  0.000000000E+00  0.00000E+00  9.000E+00
      21    -1     0     0   501   502  0.000000000E+00  0.000000000E+00 -2.158996501E+03  2.158996501E+03  0.000000000E+00  0.00000E+00  9.000E+00
      25     1     1     2     0     0 -3.596868353E+02 -1.426971020E+02 -1.142222425E+03  1.212449648E+03  1.250000000E+02  0.00000E+00  9.000E+00
      25     1     1     2     0     0  2.784916805E+02  1.134186392E+02 -7.579129634E+02  8.249111855E+02  1.250000000E+02  0.00000E+00  9.000E+00
      21     1     1     2   512   502  8.119515485E+01  2.927846279E+01 -1.804587122E+02  2.000380672E+02  2.697398305E-06  0.00000E+00  9.000E+00
#rwgt            1           1   2.6948638118231335E-002           6      312450           0
</event>
<event>
      5   9999  3.19816E-02  1.98261E+02 -1.00000E+00  1.11786E-01
      21    -1     0     0   502   501  0.000000000E+00  0.000000000E+00  8.404310960E+01  8.404310960E+01  0.000000000E+00  0.00000E+00  9.000E+00
       2    -1     0     0   501     0  0.000000000E+00  0.000000000E+00 -2.176158235E+03  2.176158235E+03  0.000000000E+00  0.00000E+00  9.000E+00
      25     1     1     2     0     0 -4.022289013E+01 -4.135084225E+01 -5.949606054E+02  6.106806817E+02  1.250000000E+02  0.00000E+00  9.000E+00
      25     1     1     2     0     0  1.405328550E+02 -1.296623433E+02 -1.197641920E+02  2.579346202E+02  1.250000000E+02  0.00000E+00  9.000E+00
       2     1     1     2   502     0 -1.003099649E+02  1.710131855E+02 -1.377390328E+03  1.391586043E+03  2.157918644E-05  0.00000E+00  9.000E+00
#rwgt            1           1   3.2864048079008529E-002           6      312519           0
</event>
<event>
      5   9999  3.19816E-02  3.07762E+01 -1.00000E+00  1.52273E-01
      21    -1     0     0   502   501  0.000000000E+00  0.000000000E+00  1.347033101E+03  1.347033101E+03  0.000000000E+00  0.00000E+00  9.000E+00
      21    -1     0     0   501   511  0.000000000E+00  0.000000000E+00 -6.005981535E+02  6.005981535E+02  0.000000000E+00  0.00000E+00  9.000E+00
      25     1     1     2     0     0 -3.507238336E+02  5.622176937E+02  8.532325539E+02  1.087532406E+03  1.250000000E+02  0.00000E+00  9.000E+00
      25     1     1     2     0     0  3.779435149E+02 -5.765794803E+02  4.798036522E+01  7.022907610E+02  1.250000000E+02  0.00000E+00  9.000E+00
      21     1     1     2   502   511 -2.721968137E+01  1.436178664E+01 -1.547779718E+02  1.578080876E+02  1.907348633E-06  0.00000E+00  9.000E+00
#rwgt            1           1   3.2856675335129974E-002           6      312548           0
</event>
<event>
      5   9999  3.19816E-02  4.76655E+01 -1.00000E+00  1.40271E-01
      21    -1     0     0   502   512  0.000000000E+00  0.000000000E+00  9.737890314E+02  9.737890314E+02  0.000000000E+00  0.00000E+00  9.000E+00
      21    -1     0     0   501   502  0.000000000E+00  0.000000000E+00 -9.545467592E+01  9.545467592E+01  0.000000000E+00  0.00000E+00  9.000E+00
      25     1     1     2     0     0 -2.159710184E+02 -1.981247117E+01  2.981620048E+02  3.893091265E+02  1.250000000E+02  0.00000E+00  9.000E+00
      25     1     1     2     0     0  2.024181362E+02 -2.588563678E+01  2.490152778E+02  3.453647009E+02  1.250000000E+02  0.00000E+00  9.000E+00
      21     1     1     2   501   512  1.355288224E+01  4.569810795E+01  3.311570728E+02  3.345698800E+02  5.394796609E-06  0.00000E+00  9.000E+00
#rwgt            1           1   2.6842726382898582E-002           6      312699           0
</event>
<event>
      5   9999  3.19816E-02  3.15883E+01 -1.00000E+00  1.51500E-01
      21    -1     0     0   502   501  0.000000000E+00  0.000000000E+00  1.770802004E+02  1.770802004E+02  0.000000000E+00  0.00000E+00  9.000E+00
      21    -1     0     0   501   511  0.000000000E+00  0.000000000E+00 -1.432321624E+03  1.432321624E+03  0.000000000E+00  0.00000E+00  9.000E+00
      25     1     1     2     0     0  2.416469941E+02  2.151164576E+02 -3.496216935E+02  4.924720182E+02  1.250000000E+02  0.00000E+00  9.000E+00
      25     1     1     2     0     0 -2.729210418E+02 -2.195612785E+02 -2.231327589E+02  4.337122066E+02  1.250000000E+02  0.00000E+00  9.000E+00
      21     1     1     2   502   511  3.127404767E+01  4.444820862E+00 -6.824869715E+02  6.832175998E+02  0.000000000E+00  0.00000E+00  9.000E+00
#rwgt            1           1   2.7498221645933740E-002           6      312811           0
</event>
<event>
      5   9999  3.19816E-02  5.14327E+01 -1.00000E+00  1.38379E-01
      21    -1     0     0   502   501  0.000000000E+00  0.000000000E+00  7.515486823E+02  7.515486823E+02  0.000000000E+00  0.00000E+00  9.000E+00
      21    -1     0     0   501   512  0.000000000E+00  0.000000000E+00 -4.563221442E+02  4.563221442E+02  0.000000000E+00  0.00000E+00  9.000E+00
      25     1     1     2     0     0 -3.723932392E+02 -4.158298122E+02  2.161189516E+02  6.114928933E+02  1.250000000E+02  0.00000E+00  9.000E+00
      25     1     1     2     0     0  3.648888153E+02  3.649475651E+02  1.009389905E+02  5.405037027E+02  1.250000000E+02  0.00000E+00  9.000E+00
      21     1     1     2   502   512  7.504423882E+00  5.088224705E+01 -2.183140392E+01  5.587423055E+01  1.238859277E-06  0.00000E+00  9.000E+00
#rwgt            1           1   2.9795664442231445E-002           6      312929           0
</event>
<event>
      5   9999  3.19816E-02  1.17983E+02 -1.00000E+00  1.20682E-01
      21    -1     0     0   502   501  0.000000000E+00  0.000000000E+00  3.293648589E+02  3.293648589E+02  0.000000000E+00  0.00000E+00  9.000E+00
      21    -1     0     0   501   511  0.000000000E+00  0.000000000E+00 -2.269397262E+03  2.269397262E+03  0.000000000E+00  0.00000E+00  9.000E+00
      25     1     1     2     0     0 -6.055046027E+02  3.867444307E+02 -1.609064406E+03  1.766612674E+03  1.250000000E+02  0.00000E+00  9.000E+00
      25     1     1     2     0     0  4.908574546E+02 -3.588858673E+02 -1.918695613E+02  6.497530570E+02  1.250000000E+02  0.00000E+00  9.000E+00
      21     1     1     2   502   511  1.146471481E+02 -2.785856341E+01 -1.390984360E+02  1.823963898E+02  1.907348633E-06  0.00000E+00  9.000E+00
#rwgt            1           1   3.0745734782505602E-002           6      313049           0
</event>
<event>
      5   9999  3.19816E-02  3.08019E+01 -1.00000E+00  1.52248E-01
      21    -1     0     0   502   501  0.000000000E+00  0.000000000E+00  2.056395001E+03  2.056395001E+03  0.000000000E+00  0.00000E+00  9.000E+00
      21    -1     0     0   501   512  0.000000000E+00  0.000000000E+00 -1.295226591E+02  1.295226591E+02  0.000000000E+00  0.00000E+00  9.000E+00
      25     1     1     2     0     0  4.238760819E+02 -1.401169193E+02  1.331025932E+03  1.409453339E+03  1.250000000E+02  0.00000E+00  9.000E+00
      25     1     1     2     0     0 -4.238773927E+02  1.093150652E+02  5.898283490E+02  7.450800687E+02  1.250000000E+02  0.00000E+00  9.000E+00
      21     1     1     2   502   512  1.310719316E-03  3.080185418E+01  6.018060902E+00  3.138425210E+01  4.539354507E-07  0.00000E+00  9.000E+00
#rwgt            1           1   3.6205370250413496E-002           6      313142           0
</event>
<event>
      5   9999  3.19816E-02  3.79498E+02 -1.00000E+00  1.02378E-01
      21    -1     0     0   502   511  0.000000000E+00  0.000000000E+00  3.891485070E+02  3.891485070E+02  0.000000000E+00  0.00000E+00  9.000E+00
      21    -1     0     0   501   502  0.000000000E+00  0.000000000E+00 -1.869495259E+03  1.869495259E+03  0.000000000E+00  0.00000E+00  9.000E+00
      25     1     1     2     0     0 -1.753745519E+02 -3.867716520E+01 -7.981351722E+02  8.275849863E+02  1.250000000E+02  0.00000E+00  9.000E+00
      25     1     1     2     0     0  2.129465055E+01 -3.081340343E+02 -9.232133614E+02  9.815029067E+02  1.250000000E+02  0.00000E+00  9.000E+00
      21     1     1     2   501   511  1.540799013E+02  3.468111994E+02  2.410017817E+02  4.495558729E+02  1.112165812E-05  0.00000E+00  9.000E+00
#rwgt            1           1   2.9535775761253543E-002           6      313357           0
</event>
<event>
      5   9999  3.19816E-02  9.86059E+00 -1.00000E+00  1.96465E-01
      21    -1     0     0   502   501  0.000000000E+00  0.000000000E+00  4.074304181E+02  4.074304181E+02  0.000000000E+00  0.00000E+00  9.000E+00
      21    -1     0     0   501   512  0.000000000E+00  0.000000000E+00 -7.926770897E+02  7.926770897E+02  0.000000000E+00  0.00000E+00  9.000E+00
      25     1     1     2     0     0 -4.028695384E+02 -2.925151260E+02  6.338970886E+01  5.172158341E+02  1.250000000E+02  0.00000E+00  9.000E+00
      25     1     1     2     0     0  3.931537635E+02  2.908313828E+02 -4.370320264E+02  6.676636631E+02  1.250000000E+02  0.00000E+00  9.000E+00
      21     1     1     2   502   512  9.715774945E+00  1.683743197E+00 -1.160435403E+01  1.522801059E+01  0.000000000E+00  0.00000E+00  9.000E+00
#rwgt            1           1   2.7342125419694024E-002           6      313432           0
</event>
<event>
      5   9999  3.19816E-02  2.02336E+01 -1.00000E+00  1.65954E-01
      21    -1     0     0   511   501  0.000000000E+00  0.000000000E+00  1.676093055E+02  1.676093055E+02  0.000000000E+00  0.00000E+00  9.000E+00
      21    -1     0     0   501   502  0.000000000E+00  0.000000000E+00 -4.861354055E+02  4.861354055E+02  0.000000000E+00  0.00000E+00  9.000E+00
      25     1     1     2     0     0 -2.239184596E+02 -4.585096270E+01 -2.111049136E+02  3.353089200E+02  1.250000000E+02  0.00000E+00  9.000E+00
      25     1     1     2     0     0  2.126938613E+02  6.268563462E+01 -1.318901111E+02  2.866847900E+02  1.250000000E+02  0.00000E+00  9.000E+00
      21     1     1     2   511   502  1.122459831E+01 -1.683467192E+01  2.446892470E+01  3.175100096E+01  5.840038640E-07  0.00000E+00  9.000E+00
#rwgt            1           1   2.6872523092497529E-002           6      313705           0
</event>
<event>
      5   9999  3.19816E-02  1.35017E+01 -1.00000E+00  1.81800E-01
      21    -1     0     0   512   501  0.000000000E+00  0.000000000E+00  6.070238622E+02  6.070238622E+02  0.000000000E+00  0.00000E+00  9.000E+00
      21    -1     0     0   501   502  0.000000000E+00  0.000000000E+00 -2.089919715E+02  2.089919715E+02  0.000000000E+00  0.00000E+00  9.000E+00
      25     1     1     2     0     0 -1.911397564E+02  7.034037831E+01 -9.131873271E+01  2.558247178E+02  1.250000000E+02  0.00000E+00  9.000E+00
      25     1     1     2     0     0  2.031486652E+02 -7.651144263E+01  4.159110944E+02  4.855207714E+02  1.250000000E+02  0.00000E+00  9.000E+00
      21     1     1     2   512   502 -1.200890881E+01  6.171064323E+00  7.343952905E+01  7.467034454E+01  0.000000000E+00  0.00000E+00  9.000E+00
#rwgt            1           1   2.7570437342771197E-002           6      313874           0
</event>
<event>
      5   9999  3.19816E-02  8.32956E+01 -1.00000E+00  1.27507E-01
      21    -1     0     0   502   501  0.000000000E+00  0.000000000E+00  6.485209887E+02  6.485209887E+02  0.000000000E+00  0.00000E+00  9.000E+00
      21    -1     0     0   511   502  0.000000000E+00  0.000000000E+00 -7.180004350E+02  7.180004350E+02  0.000000000E+00  0.00000E+00  9.000E+00
      25     1     1     2     0     0  4.860407871E+02  3.551396430E+02  3.211667017E+01  6.156429917E+02  1.250000000E+02  0.00000E+00  9.000E+00
      25     1     1     2     0     0 -4.726643847E+02 -4.373542050E+02 -6.277686695E+01  6.589812260E+02  1.250000000E+02  0.00000E+00  9.000E+00
      21     1     1     2   511   501 -1.337640245E+01  8.221456203E+01 -3.881924951E+01  9.189720607E+01  9.536743164E-07  0.00000E+00  9.000E+00
#rwgt            1           1   3.5233682695383295E-002           6      314148           0
</event>
<event>
      5   9999  3.19816E-02  1.14802E+02 -1.00000E+00  1.21190E-01
      21    -1     0     0   502   512  0.000000000E+00  0.000000000E+00  6.787720039E+02  6.787720039E+02  0.000000000E+00  0.00000E+00  9.000E+00
      21    -1     0     0   501   502  0.000000000E+00  0.000000000E+00 -1.826230557E+02  1.826230557E+02  0.000000000E+00  0.00000E+00  9.000E+00
      25     1     1     2     0     0 -5.734839725E+01  7.617736783E+00  2.086865508E+02  2.500438862E+02  1.250000000E+02  0.00000E+00  9.000E+00
      25     1     1     2     0     0 -5.741997740E+01 -1.040258333E+01 -1.231929451E+02  1.849507212E+02  1.250000000E+02  0.00000E+00  9.000E+00
      21     1     1     2   501   512  1.147683747E+02  2.784846546E+00  4.106553426E+02  4.264004522E+02  5.394796609E-06  0.00000E+00  9.000E+00
#rwgt            1           1   2.3640087606505798E-002           6      314228           0
</event>
<event>
      5   9999  3.19816E-02  4.83619E+01 -1.00000E+00  1.39906E-01
      21    -1     0     0   511   501  0.000000000E+00  0.000000000E+00  1.697525293E+02  1.697525293E+02  0.000000000E+00  0.00000E+00  9.000E+00
      21    -1     0     0   501   502  0.000000000E+00  0.000000000E+00 -7.126537050E+02  7.126537050E+02  0.000000000E+00  0.00000E+00  9.000E+00
      25     1     1     2     0     0 -1.073084616E+02  1.197005885E+02 -2.102133856E+02  2.926738873E+02  1.250000000E+02  0.00000E+00  9.000E+00
      25     1     1     2     0     0  1.207111173E+02 -1.661682577E+02 -4.234168306E+02  4.869187573E+02  1.250000000E+02  0.00000E+00  9.000E+00
      21     1     1     2   511   502 -1.340265561E+01  4.646766929E+01  9.072904043E+01  1.028135898E+02  1.907348633E-06  0.00000E+00  9.000E+00
#rwgt            1           1   2.9758290343866699E-002           6      314256           0
</event>
<event>
      5   9999  3.19816E-02  2.10988E+01 -1.00000E+00  1.64475E-01
      21    -1     0     0   502   501  0.000000000E+00  0.000000000E+00  1.660127397E+03  1.660127397E+03  0.000000000E+00  0.00000E+00  9.000E+00
      21    -1     0     0   501   512  0.000000000E+00  0.000000000E+00 -1.521224346E+02  1.521224346E+02  0.000000000E+00  0.00000E+00  9.000E+00
      25     1     1     2     0     0 -3.691141849E+02 -6.873747416E+01  5.617115950E+02  6.871062784E+02  1.250000000E+02  0.00000E+00  9.000E+00
      25     1     1     2     0     0  3.790859824E+02  8.733106291E+01  9.930604175E+02  1.073837460E+03  1.250000000E+02  0.00000E+00  9.000E+00
      21     1     1     2   502   512 -9.971797441E+00 -1.859358875E+01 -4.676705001E+01  5.130609373E+01  1.907348633E-06  0.00000E+00  9.000E+00
#rwgt            2          11   4.1075555892797237E-003           6      314365           0
</event>
<event>
      5   9999  3.19816E-02  4.16768E+02 -1.00000E+00  1.01152E-01
      21    -1     0     0   511   501  0.000000000E+00  0.000000000E+00  2.225053291E+03  2.225053291E+03  0.000000000E+00  0.00000E+00  9.000E+00
      21    -1     0     0   501   502  0.000000000E+00  0.000000000E+00 -1.824355058E+02  1.824355058E+02  0.000000000E+00  0.00000E+00  9.000E+00
      25     1     1     2     0     0 -3.361324875E+02 -3.119264788E+02  3.688581474E+02  6.016348646E+02  1.250000000E+02  0.00000E+00  9.000E+00
      25     1     1     2     0     0 -5.326171464E+01  1.633754562E+02  9.232725894E+02  9.474099558E+02  1.250000000E+02  0.00000E+00  9.000E+00
      21     1     1     2   511   502  3.893942022E+02  1.485510226E+02  7.504870483E+02  8.584439764E+02  0.000000000E+00  0.00000E+00  9.000E+00
#rwgt            1           1   3.1350487986769926E-002           6      314385           0
</event>
<event>
      5   9999  3.19816E-02  1.20380E+01 -1.00000E+00  1.86884E-01
      21    -1     0     0   502   501  0.000000000E+00  0.000000000E+00  5.295052904E+02  5.295052904E+02  0.000000000E+00  0.00000E+00  9.000E+00
       1    -1     0     0   501     0  0.000000000E+00  0.000000000E+00 -1.152798301E+03  1.152798301E+03  0.000000000E+00  0.00000E+00  9.000E+00
      25     1     1     2     0     0  3.479885537E+02  1.933693782E+01  1.845778439E+02  4.137196287E+02  1.250000000E+02  0.00000E+00  9.000E+00
      25     1     1     2     0     0 -3.470354401E+02 -3.133711663E+01  8.156289775E+01  3.790687508E+02  1.250000000E+02  0.00000E+00  9.000E+00
       1     1     1     2   502     0 -9.531136389E-01  1.200017881E+01 -8.894337520E+02  8.895152117E+02  1.525878906E-05  0.00000E+00  9.000E+00
#rwgt            1           1   2.7175000122568869E-002           6      314419           0
</event>
<event>
      5   9999  3.19816E-02  7.61466E+01 -1.00000E+00  1.29396E-01
      21    -1     0     0   502   511  0.000000000E+00  0.000000000E+00  2.257683186E+02  2.257683186E+02  0.000000000E+00  0.00000E+00  9.000E+00
      21    -1     0     0   501   502  0.000000000E+00  0.000000000E+00 -6.850015756E+02  6.850015756E+02  0.000000000E+00  0.00000E+00  9.000E+00
      25     1     1     2     0     0  1.177867699E+02 -2.578812423E+02 -2.745182495E+02  4.139586061E+02  1.250000000E+02  0.00000E+00  9.000E+00
      25     1     1     2     0     0 -1.316827375E+02  3.327491764E+02 -1.823175049E+02  4.206269492E+02  1.250000000E+02  0.00000E+00  9.000E+00
      21     1     1     2   501   511  1.389596757E+01 -7.486793417E+01 -2.397502645E+00  7.618433894E+01  7.719894556E-07  0.00000E+00  9.000E+00
#rwgt            1           1   2.9127218992715150E-002           6      314592           0
</event>
<event>
      5   9999  3.19816E-02  4.33535E+01 -1.00000E+00  1.42705E-01
      21    -1     0     0   502   501  0.000000000E+00  0.000000000E+00  1.187273237E+02  1.187273237E+02  0.000000000E+00  0.00000E+00  9.000E+00
      21    -1     0     0   501   512  0.000000000E+00  0.000000000E+00 -3.940810139E+02  3.940810139E+02  0.000000000E+00  0.00000E+00  9.000E+00
      25     1     1     2     0     0  6.730745169E+01  1.065197576E+02 -1.349886924E+01  1.779999194E+02  1.250000000E+02  0.00000E+00  9.000E+00
      25     1     1     2     0     0 -2.400833108E+01 -1.043492622E+02 -1.956779286E+02  2.556951705E+02  1.250000000E+02  0.00000E+00  9.000E+00
      21     1     1     2   502   512 -4.329912061E+01 -2.170495430E+00 -6.617689237E+01  7.911324782E+01  9.536743164E-07  0.00000E+00  9.000E+00
#rwgt            1           1   2.5799094304375551E-002           6      314678           0
</event>
<event>
      5   9999  3.19816E-02  1.10173E+02 -1.00000E+00  1.21965E-01
      21    -1     0     0   502   501  0.000000000E+00  0.000000000E+00  4.253881766E+02  4.253881766E+02  0.000000000E+00  0.00000E+00  9.000E+00
       4    -1     0     0   501     0  0.000000000E+00  0.000000000E+00 -5.723746310E+02  5.723746310E+02  0.000000000E+00  0.00000E+00  9.000E+00
      25     1     1     2     0     0 -3.291187040E+02  4.700130573E+01 -2.291590567E+02  4.226903327E+02  1.250000000E+02  0.00000E+00  9.000E+00
      25     1     1     2     0     0  4.391681205E+02 -4.178977300E+01  5.688169258E+01  4.620341440E+02  1.250000000E+02  0.00000E+00  9.000E+00
       4     1     1     2   502     0 -1.100494165E+02 -5.211532730E+00  2.529090971E+01  1.130383309E+02  2.676241913E-06  0.00000E+00  9.000E+00
#rwgt            1           1   3.0011709151204959E-002           6      314738           0
</event>
<event>
      5   9999  3.19816E-02  3.90002E+01 -1.00000E+00  1.45525E-01
      21    -1     0     0   502   511  0.000000000E+00  0.000000000E+00  1.112334122E+02  1.112334122E+02  0.000000000E+00  0.00000E+00  9.000E+00
      21    -1     0     0   501   502  0.000000000E+00  0.000000000E+00 -8.533553467E+02  8.533553467E+02  0.000000000E+00  0.00000E+00  9.000E+00
      25     1     1     2     0     0  2.178254588E+01 -1.431889139E+02 -4.486543741E+02  4.877430591E+02  1.250000000E+02  0.00000E+00  9.000E+00
      25     1     1     2     0     0 -4.186847865E+01  1.097587889E+02 -3.605354092E+02  3.992627487E+02  1.250000000E+02  0.00000E+00  9.000E+00
      21     1     1     2   501   511  2.008593277E+01  3.343012503E+01  6.706784876E+01  7.758295104E+01  2.523185073E-06  0.00000E+00  9.000E+00
#rwgt            1           1   3.4304288120499293E-002           6      314858           0
</event>
<event>
      5   9999  3.19816E-02  1.40917E+01 -1.00000E+00  1.79978E-01
      21    -1     0     0   502   512  0.000000000E+00  0.000000000E+00  1.152788894E+03  1.152788894E+03  0.000000000E+00  0.00000E+00  9.000E+00
      21    -1     0     0   501   502  0.000000000E+00  0.000000000E+00 -2.993391699E+02  2.993391699E+02  0.000000000E+00  0.00000E+00  9.000E+00
      25     1     1     2     0     0 -9.760343130E+01  2.075551014E+02  9.934156125E+02  1.027183104E+03  1.250000000E+02  0.00000E+00  9.000E+00
      25     1     1     2     0     0  8.570387841E+01 -2.000068728E+02 -2.260321024E+02  3.377327572E+02  1.250000000E+02  0.00000E+00  9.000E+00
      21     1     1     2   501   512  1.189955288E+01 -7.548228567E+00  8.606621358E+01  8.721220232E+01  9.536743164E-07  0.00000E+00  9.000E+00
#rwgt            1           1   2.9740504076433055E-002           6      314963           0
</event>
<event>
      5   9999  3.19816E-02  1.70819E+02 -1.00000E+00  1.14200E-01
       2    -1     0     0   502     0  0.000000000E+00  0.000000000E+00  1.590681260E+03  1.590681260E+03  0.000000000E+00  0.00000E+00  9.000E+00
      21    -1     0     0   501   502  0.000000000E+00  0.000000000E+00 -7.294879554E+01  7.294879554E+01  0.000000000E+00  0.00000E+00  9.000E+00
      25     1     1     2     0     0 -6.873250599E+01  6.963505731E+01  3.374818284E+02  3.729506443E+02  1.250000000E+02  0.00000E+00  9.000E+00
      25     1     1     2     0     0  1.999647586E+02 -1.789846630E+02  4.355625017E+02  5.266508399E+02  1.250000000E+02  0.00000E+00  9.000E+00
       2     1     1     2   501     0 -1.312322526E+02  1.093496057E+02  7.446881345E+02  7.640285714E+02  1.525878906E-05  0.00000E+00  9.000E+00
#rwgt            1           1   2.9847126336808989E-002           6      315178           0
</event>
<event>
      5   9999  3.19816E-02  1.07729E+01 -1.00000E+00  1.92092E-01
      21    -1     0     0   502   501  0.000000000E+00  0.000000000E+00  3.734041721E+02  3.734041721E+02  0.000000000E+00  0.00000E+00  9.000E+00
      21    -1     0     0   511   502  0.000000000E+00  0.000000000E+00 -4.891594849E+02  4.891594849E+02  0.000000000E+00  0.00000E+00  9.000E+00
      25     1     1     2     0     0 -2.846718736E+02  1.980342320E+02  1.507081108E+02  3.982380787E+02  1.250000000E+02  0.00000E+00  9.000E+00
      25     1     1     2     0     0  2.743155247E+02 -1.950675541E+02 -2.302523987E+02  4.265460407E+02  1.250000000E+02  0.00000E+00  9.000E+00
      21     1     1     2   511   501  1.035634886E+01 -2.966677917E+00 -3.621102494E+01  3.777953767E+01  4.768371582E-07  0.00000E+00  9.000E+00
#rwgt            1           1   2.8791100887637408E-002           6      315246           0
</event>
<event>
      5   9999  3.19816E-02  3.21258E+01 -1.00000E+00  1.51003E-01
      21    -1     0     0   512   501  0.000000000E+00  0.000000000E+00  4.062612078E+02  4.062612078E+02  0.000000000E+00  0.00000E+00  9.000E+00
      21    -1     0     0   501   502  0.000000000E+00  0.000000000E+00 -2.625273954E+02  2.625273954E+02  0.000000000E+00  0.00000E+00  9.000E+00
      25     1     1     2     0     0 -7.262306753E+01  2.437969756E+02  1.626795238E+02  3.268037679E+02  1.250000000E+02  0.00000E+00  9.000E+00
      25     1     1     2     0     0  9.833981184E+01 -2.630510382E+02 -2.783317045E+01  3.086523168E+02  1.250000000E+02  0.00000E+00  9.000E+00
      21     1     1     2   512   502 -2.571674431E+01  1.925406259E+01  8.887458989E+00  3.333251853E+01  4.129530925E-07  0.00000E+00  9.000E+00
#rwgt            1           1   3.3315201257481601E-002           6      315501           0
</event>
<event>
      5   9999  3.19816E-02  5.74864E+01 -1.00000E+00  1.35704E-01
      21    -1     0     0   502   501  0.000000000E+00  0.000000000E+00  1.257452272E+02  1.257452272E+02  0.000000000E+00  0.00000E+00  9.000E+00
      21    -1     0     0   511   502  0.000000000E+00  0.000000000E+00 -5.268555203E+02  5.268555203E+02  0.000000000E+00  0.00000E+00  9.000E+00
      25     1     1     2     0     0  4.774384827E+01  1.077582322E+02 -1.887592292E+00  1.718134880E+02  1.250000000E+02  0.00000E+00  9.000E+00
      25     1     1     2     0     0 -9.766263929E+01 -1.362678961E+02 -3.315773336E+02  3.920146155E+02  1.250000000E+02  0.00000E+00  9.000E+00
      21     1     1     2   511   501  4.991879102E+01  2.850966385E+01 -6.764536720E+01  8.877264406E+01  9.536743164E-07  0.00000E+00  9.000E+00
#rwgt            1           1   2.8492079676531869E-002           6      315649           0
</event>
<event>
      5   9999  3.19816E-02  4.83205E+01 -1.00000E+00  1.39927E-01
      21    -1     0     0   512   501  0.000000000E+00  0.000000000E+00  1.598699010E+02  1.598699010E+02  0.000000000E+00  0.00000E+00  9.000E+00
      21    -1     0     0   501   502  0.000000000E+00  0.000000000E+00 -1.673963554E+03  1.673963554E+03  0.000000000E+00  0.00000E+00  9.000E+00
      25     1     1     2     0     0 -2.279915779E+02 -4.119631435E+02 -6.488334971E+02  8.113591671E+02  1.250000000E+02  0.00000E+00  9.000E+00
      25     1     1     2     0     0  2.657903874E+02  3.818612316E+02 -8.390096462E+02  9.674837035E+02  1.250000000E+02  0.00000E+00  9.000E+00
      21     1     1     2   512   502 -3.779880957E+01  3.010191185E+01 -2.625050994E+01  5.499058441E+01  8.920806376E-07  0.00000E+00  9.000E+00
#rwgt            1           1   1.9759958526899352E-002           6      315705           0
</event>
<event>
      5   9999  3.19816E-02  3.87439E+01 -1.00000E+00  1.45705E-01
      21    -1     0     0   502   511  0.000000000E+00  0.000000000E+00  9.733674899E+01  9.733674899E+01  0.000000000E+00  0.00000E+00  9.000E+00
      21    -1     0     0   501   502  0.000000000E+00  0.000000000E+00 -6.475117202E+02  6.475117202E+02  0.000000000E+00  0.00000E+00  9.000E+00
      25     1     1     2     0     0  2.075988392E+02 -6.500591457E+00 -2.800643122E+02  3.704059323E+02  1.250000000E+02  0.00000E+00  9.000E+00
      25     1     1     2     0     0 -1.769617908E+02  3.021679188E+01 -2.440970673E+02  3.277756980E+02  1.250000000E+02  0.00000E+00  9.000E+00
      21     1     1     2   501   511 -3.063704841E+01 -2.371620042E+01 -2.601359164E+01  4.666683884E+01  4.768371582E-07  0.00000E+00  9.000E+00
#rwgt            1           1   2.3177955472929737E-002           6      315794           0
</event>
<event>
      5   9999  3.19816E-02  1.16526E+02 -1.00000E+00  1.20912E-01
      21    -1     0     0   502   501  0.000000000E+00  0.000000000E+00  2.147568783E+03  2.147568783E+03  0.000000000E+00  0.00000E+00  9.000E+00
       2    -1     0     0   501     0  0.000000000E+00  0.000000000E+00 -1.804462792E+03  1.804462792E+03  0.000000000E+00  0.00000E+00  9.000E+00
      25     1     1     2     0     0 -1.415743754E+03  1.534327591E+02  8.651418500E+02  1.670918133E+03  1.250000000E+02  0.00000E+00  9.000E+00
      25     1     1     2     0     0  1.358177683E+03 -5.211904621E+01  3.437395729E+02  1.407531494E+03  1.250000000E+02  0.00000E+00  9.000E+00
       2     1     1     2   502     0  5.756607098E+01 -1.013137129E+02 -8.657754323E+02  8.735819481E+02  0.000000000E+00  0.00000E+00  9.000E+00
#rwgt            1           1   4.7214997612992006E-002           6      315862           0
</event>
<event>
      5   9999  3.19816E-02  8.65621E+01 -1.00000E+00  1.26714E-01
      21    -1     0     0   502   501  0.000000000E+00  0.000000000E+00  3.018672322E+02  3.018672322E+02  0.000000000E+00  0.00000E+00  9.000E+00
       1    -1     0     0   501     0  0.000000000E+00  0.000000000E+00 -8.554592158E+02  8.554592158E+02  0.000000000E+00  0.00000E+00  9.000E+00
      25     1     1     2     0     0 -1.076085098E+01 -1.668604788E+02  1.787895879E+01  2.095301231E+02  1.250000000E+02  0.00000E+00  9.000E+00
      25     1     1     2     0     0  6.607586129E+01  1.002778560E+02  1.450763605E+02  2.260394174E+02  1.250000000E+02  0.00000E+00  9.000E+00
       1     1     1     2   502     0 -5.531501031E+01  6.658262282E+01 -7.165473030E+02  7.217569074E+02  7.629394531E-06  0.00000E+00  9.000E+00
#rwgt            1           1   2.4588839754313065E-002           6      315961           0
</event>
<event>
      5   9999  3.19816E-02  2.02669E+01 -1.00000E+00  1.65895E-01
      21    -1     0     0   502   501  0.000000000E+00  0.000000000E+00  1.253846541E+02  1.253846541E+02  0.000000000E+00  0.00000E+00  9.000E+00
      21    -1     0     0   511   502  0.000000000E+00  0.000000000E+00 -1.217735792E+03  1.217735792E+03  0.000000000E+00  0.00000E+00  9.000E+00
      25     1     1     2     0     0  2.867456661E+02  1.051138890E+02 -2.259387265E+02  3.999316377E+02  1.250000000E+02  0.00000E+00  9.000E+00
      25     1     1     2     0     0 -2.882034486E+02 -1.253282738E+02 -7.212058718E+02  7.965747382E+02  1.250000000E+02  0.00000E+00  9.000E+00
      21     1     1     2   511   501  1.457782504E+00  2.021438480E+01 -1.452065393E+02  1.466140701E+02  1.907348633E-06  0.00000E+00  9.000E+00
#rwgt            1           1   3.0128969533413853E-002           6      316063           0
</event>
<event>
      5   9999  3.19816E-02  2.13078E+01 -1.00000E+00  1.64131E-01
      21    -1     0     0   502   501  0.000000000E+00  0.000000000E+00  6.350448493E+02  6.350448493E+02  0.000000000E+00  0.00000E+00  9.000E+00
       2    -1     0     0   501     0  0.000000000E+00  0.000000000E+00 -3.747971341E+02  3.747971341E+02  0.000000000E+00  0.00000E+00  9.000E+00
      25     1     1     2     0     0 -3.538754622E+02  2.483494866E+02  5.146866632E+01  4.529672547E+02  1.250000000E+02  0.00000E+00  9.000E+00
      25     1     1     2     0     0  3.580818403E+02 -2.692379209E+02  2.365937971E+02  5.218364564E+02  1.250000000E+02  0.00000E+00  9.000E+00
       2     1     1     2   502     0 -4.206378055E+00  2.088843433E+01 -2.781474819E+01  3.503827225E+01  5.840038640E-07  0.00000E+00  9.000E+00
#rwgt            1           1   2.5130248216605502E-002           6      316238           0
</event>
<event>
      5   9999  3.19816E-02  3.26639E+02 -1.00000E+00  1.04405E-01
      21    -1     0     0   502   501  0.000000000E+00  0.000000000E+00  1.956193524E+03  1.956193524E+03  0.000000000E+00  0.00000E+00  9.000E+00
       2    -1     0     0   501     0  0.000000000E+00  0.000000000E+00 -7.108526109E+02  7.108526109E+02  0.000000000E+00  0.00000E+00  9.000E+00
      25     1     1     2     0     0 -1.554053214E+02 -7.781087972E+01 -1.927775967E+02  2.880860092E+02  1.250000000E+02  0.00000E+00  9.000E+00
      25     1     1     2     0     0  3.869756226E+02 -1.525542329E+02  1.823074699E+03  1.874099593E+03  1.250000000E+02  0.00000E+00  9.000E+00
       2     1     1     2   502     0 -2.315703012E+02  2.303651126E+02 -3.849561894E+02  5.048605325E+02  9.344061824E-06  0.00000E+00  9.000E+00
#rwgt            2          13   1.0615505546737092E-003           6      316486           0
</event>
<event>
      5   9999  3.19816E-02  1.00580E+02 -1.00000E+00  1.23715E-01
      21    -1     0     0   511   501  0.000000000E+00  0.000000000E+00  2.424768095E+03  2.424768095E+03  0.000000000E+00  0.00000E+00  9.000E+00
      21    -1     0     0   501   502  0.000000000E+00  0.000000000E+00 -1.240382208E+02  1.240382208E+02  0.000000000E+00  0.00000E+00  9.000E+00
      25     1     1     2     0     0  1.694008842E+02 -7.414235507E+01 -1.018073078E+01  2.234332018E+02  1.250000000E+02  0.00000E+00  9.000E+00
      25     1     1     2     0     0 -9.202845808E+01  9.878917275E+00  1.565458213E+03  1.573165994E+03  1.250000000E+02  0.00000E+00  9.000E+00
      21     1     1     2   511   502 -7.737242610E+01  6.426343780E+01  7.454523919E+02  7.522071193E+02  1.078959322E-05  0.00000E+00  9.000E+00
#rwgt            1           1   3.3381455085473986E-002           6      316505           0
</event>
<event>
      5   9999  3.19816E-02  4.50052E+01 -1.00000E+00  1.41735E-01
      21    -1     0     0   502   512  0.000000000E+00  0.000000000E+00  8.885741586E+02  8.885741586E+02  0.000000000E+00  0.00000E+00  9.000E+00
      21    -1     0     0   501   502  0.000000000E+00  0.000000000E+00 -9.359401970E+02  9.359401970E+02  0.000000000E+00  0.00000E+00  9.000E+00
      25     1     1     2     0     0 -8.285177894E+00  8.197888672E+02 -2.857617341E+02  8.771585944E+02  1.250000000E+02  0.00000E+00  9.000E+00
      25     1     1     2     0     0 -5.532938660E+00 -8.626202985E+02  2.310995524E+02  9.017629377E+02  1.250000000E+02  0.00000E+00  9.000E+00
      21     1     1     2   501   512  1.381811655E+01  4.283143124E+01  7.296143295E+00  4.559282349E+01  5.840038640E-07  0.00000E+00  9.000E+00
#rwgt            1           1   3.4027666493008098E-002           6      316602           0
</event>
<event>
      5   9999  3.19816E-02  2.06220E+01 -1.00000E+00  1.65279E-01
      21    -1     0     0   502   501  0.000000000E+00  0.000000000E+00  7.532009731E+01  7.532009731E+01  0.000000000E+00  0.00000E+00  9.000E+00
       2    -1     0     0   501     0  0.000000000E+00  0.000000000E+00 -7.701522082E+02  7.701522082E+02  0.000000000E+00  0.00000E+00  9.000E+00
      25     1     1     2     0     0 -4.579579536E+01 -4.461420850E+00 -1.902429850E+00  1.332132816E+02  1.250000000E+02  0.00000E+00  9.000E+00
      25     1     1     2     0     0  5.208908307E+01  2.409968534E+01 -5.118528886E+02  5.300117423E+02  1.250000000E+02  0.00000E+00  9.000E+00
       2     1     1     2   502     0 -6.293287704E+00 -1.963826449E+01 -1.810767925E+02  1.822472817E+02  0.000000000E+00  0.00000E+00  9.000E+00
#rwgt            1           1   2.6515856575073573E-002           6      316763           0
</event>
<event>
      5   9999  3.19816E-02  3.18360E+01 -1.00000E+00  1.51269E-01
      21    -1     0     0   502   501  0.000000000E+00  0.000000000E+00  1.055958074E+03  1.055958074E+03  0.000000000E+00  0.00000E+00  9.000E+00
      21    -1     0     0   501   511  0.000000000E+00  0.000000000E+00 -4.211034265E+01  4.211034265E+01  0.000000000E+00  0.00000E+00  9.000E+00
      25     1     1     2     0     0  1.252577635E+02  5.082722643E+01  5.369878886E+02  5.676741202E+02  1.250000000E+02  0.00000E+00  9.000E+00
      25     1     1     2     0     0 -1.473385447E+02 -2.789320910E+01  4.419521170E+02  4.831494092E+02  1.250000000E+02  0.00000E+00  9.000E+00
      21     1     1     2   502   511  2.208078119E+01 -2.293401733E+01  3.490772558E+01  4.724488707E+01  6.743495762E-07  0.00000E+00  9.000E+00
#rwgt            1           1   3.1134112607803632E-002           6      316921           0
</event>
<event>
      5   9999  3.19816E-02  8.67842E+01 -1.00000E+00  1.26661E-01
      21    -1     0     0   502   501  0.000000000E+00  0.000000000E+00  6.454088139E+02  6.454088139E+02  0.000000000E+00  0.00000E+00  9.000E+00
       3    -1     0     0   501     0  0.000000000E+00  0.000000000E+00 -1.664788341E+02  1.664788341E+02  0.000000000E+00  0.00000E+00  9.000E+00
      25     1     1     2     0     0  1.599002887E+02  1.430669219E+02  1.563829759E+02  2.934567798E+02  1.250000000E+02  0.00000E+00  9.000E+00
      25     1     1     2     0     0 -2.338547873E+02 -9.765505016E+01  3.261948542E+02  4.315699865E+02  1.250000000E+02  0.00000E+00  9.000E+00
       3     1     1     2   502     0  7.395449859E+01 -4.541187177E+01 -3.647850313E+00  8.686088171E+01  2.369987411E-06  0.00000E+00  9.000E+00
#rwgt            1           1   3.2049412393213975E-002           6      317016           0
</event>
<event>
      5   9999  3.19816E-02  1.56218E+01 -1.00000E+00  1.75738E-01
      21    -1     0     0   502   511  0.000000000E+00  0.000000000E+00  8.267909337E+02  8.267909337E+02  0.000000000E+00  0.00000E+00  9.000E+00
      21    -1     0     0   501   502  0.000000000E+00  0.000000000E+00 -6.656114926E+02  6.656114926E+02  0.000000000E+00  0.00000E+00  9.000E+00
      25     1     1     2     0     0  6.823304412E+02  1.690936266E+02  1.453560711E+02  7.286431726E+02  1.250000000E+02  0.00000E+00  9.000E+00
      25     1     1     2     0     0 -6.848839798E+02 -1.536819109E+02 -3.177208699E+01  7.136656507E+02  1.250000000E+02  0.00000E+00  9.000E+00
      21     1     1     2   501   511  2.553538607E+00 -1.541171576E+01  4.759545701E+01  5.009360308E+01  6.743495762E-07  0.00000E+00  9.000E+00
#rwgt            1           1   2.9373936979315375E-002           6      317099           0
</event>
<event>
      5   9999  3.19816E-02  1.28902E+02 -1.00000E+00  1.19064E-01
      21    -1     0     0   502   501  0.000000000E+00  0.000000000E+00  1.274349605E+02  1.274349605E+02  0.000000000E+00  0.00000E+00  9.000E+00
       2    -1     0     0   501     0  0.000000000E+00  0.000000000E+00 -5.719622147E+02  5.719622147E+02  0.000000000E+00  0.00000E+00  9.000E+00
      25     1     1     2     0     0  4.803288282E+01  6.661561428E+00 -3.357061947E+02  3.614902258E+02  1.250000000E+02  0.00000E+00  9.000E+00
      25     1     1     2     0     0 -7.139308433E+01  1.201065339E+02 -8.885441140E+01  2.074672466E+02  1.250000000E+02  0.00000E+00  9.000E+00
       2     1     1     2   502     0  2.336020151E+01 -1.267680954E+02 -1.996664813E+01  1.304397028E+02  4.129530925E-07  0.00000E+00  9.000E+00
#rwgt            1           1   2.7976714115372649E-002           6      317405           0
</event>
<event>
      5   9999  3.19816E-02  9.22532E+01 -1.00000E+00  1.25424E-01
      21    -1     0     0   502   501  0.000000000E+00  0.000000000E+00  1.590166725E+02  1.590166725E+02  0.000000000E+00  0.00000E+00  9.000E+00
       1    -1     0     0   501     0  0.000000000E+00  0.000000000E+00 -1.943638399E+03  1.943638399E+03  0.000000000E+00  0.00000E+00  9.000E+00
      25     1     1     2     0     0  3.390756550E+02  1.841316872E+02 -5.870840181E+02  7.135610852E+02  1.250000000E+02  0.00000E+00  9.000E+00
      25     1     1     2     0     0 -4.293074220E+02 -1.649254325E+02 -5.202117891E+02  7.055143984E+02  1.250000000E+02  0.00000E+00  9.000E+00
       1     1     1     2   502     0  9.023176701E+01 -1.920625469E+01 -6.773259189E+02  6.835795875E+02  7.629394531E-06  0.00000E+00  9.000E+00
#rwgt            1           1   2.9473788180020964E-002           6      317442           0
</event>
<event>
      5   9999  3.19816E-02  2.46732E+02 -1.00000E+00  1.08426E-01
      21    -1     0     0   502   511  0.000000000E+00  0.000000000E+00  5.911761573E+02  5.911761573E+02  0.000000000E+00  0.00000E+00  9.000E+00
      21    -1     0     0   501   502  0.000000000E+00  0.000000000E+00 -4.500962063E+02  4.500962063E+02  0.000000000E+00  0.00000E+00  9.000E+00
      25     1     1     2     0     0  3.116643715E+02  1.996989097E+01 -1.177852540E+02  3.564152677E+02  1.250000000E+02  0.00000E+00  9.000E+00
      25     1     1     2     0     0 -2.569911759E+02 -2.605676524E+02  1.436909659E+02  4.125676425E+02  1.250000000E+02  0.00000E+00  9.000E+00
      21     1     1     2   501   511 -5.467319566E+01  2.405977614E+02  1.151742390E+02  2.722894534E+02  2.697398305E-06  0.00000E+00  9.000E+00
#rwgt            2          11   3.1984910091142093E-003           6      317599           0
</event>
<event>
      5   9999  3.19816E-02  3.74425E+01 -1.00000E+00  1.46643E-01
      21    -1     0     0   502   512  0.000000000E+00  0.000000000E+00  1.187625685E+02  1.187625685E+02  0.000000000E+00  0.00000E+00  9.000E+00
      21    -1     0     0   501   502  0.000000000E+00  0.000000000E+00 -1.017916679E+03  1.017916679E+03  0.000000000E+00  0.00000E+00  9.000E+00
      25     1     1     2     0     0 -9.891257632E+01 -2.518642187E+02 -2.699538969E+02  4.021434929E+02  1.250000000E+02  0.00000E+00  9.000E+00
      25     1     1     2     0     0  6.301184111E+01  2.624979083E+02 -6.304057133E+02  6.970738894E+02  1.250000000E+02  0.00000E+00  9.000E+00
      21     1     1     2   501   512  3.590073520E+01 -1.063368959E+01  1.205499253E+00  3.746186556E+01  3.851308818E-07  0.00000E+00  9.000E+00
#rwgt            1           1   3.0255845436278520E-002           6      317619           0
</event>
<event>
      5   9999  3.19816E-02  5.25811E+01 -1.00000E+00  1.37840E-01
      21    -1     0     0   502   501  0.000000000E+00  0.000000000E+00  6.926447159E+02  6.926447159E+02  0.000000000E+00  0.00000E+00  9.000E+00
      21    -1     0     0   511   502  0.000000000E+00  0.000000000E+00 -3.178054169E+02  3.178054169E+02  0.000000000E+00  0.00000E+00  9.000E+00
      25     1     1     2     0     0 -2.704599017E+02 -1.376407861E+02  5.300899336E+02  6.234692311E+02  1.250000000E+02  0.00000E+00  9.000E+00
      25     1     1     2     0     0  2.441577615E+02  9.211089876E+01 -8.967101547E+01  3.029246131E+02  1.250000000E+02  0.00000E+00  9.000E+00
      21     1     1     2   511   501  2.630214013E+01  4.552988739E+01 -6.557961912E+01  8.405628867E+01  0.000000000E+00  0.00000E+00  9.000E+00
#rwgt            1           1   2.8024414890943844E-002           6      317809           0
</event>
<event>
      5   9999  3.19816E-02  1.78154E+01 -1.00000E+00  1.70623E-01
      21    -1     0     0   502   501  0.000000000E+00  0.000000000E+00  3.672291764E+02  3.672291764E+02  0.000000000E+00  0.00000E+00  9.000E+00
      21    -1     0     0   512   502  0.000000000E+00  0.000000000E+00 -1.193439694E+02  1.193439694E+02  0.000000000E+00  0.00000E+00  9.000E+00
      25     1     1     2     0     0 -1.565666827E+01  1.359891436E+02  2.246574617E+02  2.912630316E+02  1.250000000E+02  0.00000E+00  9.000E+00
      25     1     1     2     0     0  4.029541591E+00 -1.224910873E+02  2.692111690E+01  1.771159231E+02  1.250000000E+02  0.00000E+00  9.000E+00
      21     1     1     2   512   501  1.162712668E+01 -1.349805634E+01 -3.693371646E+00  1.819419121E+01  1.397852826E-07  0.00000E+00  9.000E+00
#rwgt            1           1   3.3010105744841901E-002           6      317909           0
</event>
<event>
      5   9999  3.19816E-02  5.97332E+02 -1.00000E+00  9.67060E-02
       2    -1     0     0   502     0  0.000000000E+00  0.000000000E+00  9.900775317E+02  9.900775317E+02  0.000000000E+00  0.00000E+00  9.000E+00
      21    -1     0     0   501   502  0.000000000E+00  0.000000000E+00 -5.269759501E+02  5.269759501E+02  0.000000000E+00  0.00000E+00  9.000E+00
      25     1     1     2     0     0  5.349373944E+00  5.469902161E+02  2.570530142E+02  6.171937819E+02  1.250000000E+02  0.00000E+00  9.000E+00
      25     1     1     2     0     0  1.447330701E+02  3.118032372E+01 -1.113045842E+02  2.234582391E+02  1.250000000E+02  0.00000E+00  9.000E+00
       2     1     1     2   501     0 -1.500824441E+02 -5.781705398E+02  3.173531517E+02  6.764014607E+02  5.394796609E-06  0.00000E+00  9.000E+00
#rwgt            1           1   2.6492998335014461E-002           6      318036           0
</event>
<event>
      5   9999  3.19816E-02  2.74585E+02 -1.00000E+00  1.06856E-01
      -2    -1     0     0     0   501  0.000000000E+00  0.000000000E+00  4.875777891E+02  4.875777891E+02  0.000000000E+00  0.00000E+00  9.000E+00
      21    -1     0     0   501   502  0.000000000E+00  0.000000000E+00 -3.364977936E+02  3.364977936E+02  0.000000000E+00  0.00000E+00  9.000E+00
      25     1     1     2     0     0 -6.367496322E+01 -2.245114953E+02  3.968491847E+01  2.676934911E+02  1.250000000E+02  0.00000E+00  9.000E+00
      25     1     1     2     0     0 -1.560557068E+02  5.984480322E+01 -7.800640929E+01  2.228110948E+02  1.250000000E+02  0.00000E+00  9.000E+00
      -2     1     1     2     0   502  2.197306700E+02  1.646666920E+02  1.894014863E+02  3.335709967E+02  6.031565972E-06  0.00000E+00  9.000E+00
#rwgt            1           1   2.4837151619435192E-002           6      318088           0
</event>
<event>
      5   9999  3.19816E-02  3.51005E+01 -1.00000E+00  1.48450E-01
       1    -1     0     0   502     0  0.000000000E+00  0.000000000E+00  5.387493514E+02  5.387493514E+02  0.000000000E+00  0.00000E+00  9.000E+00
      21    -1     0     0   501   502  0.000000000E+00  0.000000000E+00 -4.519624509E+02  4.519624509E+02  0.000000000E+00  0.00000E+00  9.000E+00
      25     1     1     2     0     0  2.078135779E+02 -1.901993517E+02 -3.158038722E+02  4.412701693E+02  1.250000000E+02  0.00000E+00  9.000E+00
      25     1     1     2     0     0 -1.779679904E+02  2.086732780E+02  2.462407281E+02  3.891999984E+02  1.250000000E+02  0.00000E+00  9.000E+00
       1     1     1     2   501     0 -2.984558750E+01 -1.847392627E+01  1.563500446E+02  1.602416347E+02  1.907348633E-06  0.00000E+00  9.000E+00
#rwgt            1           1   2.6199942841612808E-002           6      318129           0
</event>
<event>
      5   9999  3.19816E-02  5.87084E+00 -1.00000E+00  2.26950E-01
      21    -1     0     0   511   501  0.000000000E+00  0.000000000E+00  1.222018142E+02  1.222018142E+02  0.000000000E+00  0.00000E+00  9.000E+00
      21    -1     0     0   501   502  0.000000000E+00  0.000000000E+00 -5.047943998E+02  5.047943998E+02  0.000000000E+00  0.00000E+00  9.000E+00
      25     1     1     2     0     0 -1.741770327E+02 -2.692809915E+01 -1.051275798E+02  2.402905934E+02  1.250000000E+02  0.00000E+00  9.000E+00
      25     1     1     2     0     0  1.782678259E+02  2.271713802E+01 -2.954932816E+02  3.677455174E+02  1.250000000E+02  0.00000E+00  9.000E+00
      21     1     1     2   511   502 -4.090793215E+00  4.210961131E+00  1.802827579E+01  1.896010313E+01  0.000000000E+00  0.00000E+00  9.000E+00
#rwgt            1           1   2.4862059087290590E-002           6      318292           0
</event>
<event>
      5   9999  3.19816E-02  1.03782E+02 -1.00000E+00  1.23107E-01
      21    -1     0     0   502   501  0.000000000E+00  0.000000000E+00  8.743858712E+01  8.743858712E+01  0.000000000E+00  0.00000E+00  9.000E+00
       5    -1     0     0   501     0  0.000000000E+00  0.000000000E+00 -7.617483869E+02  7.617483869E+02  0.000000000E+00  0.00000E+00  9.000E+00
      25     1     1     2     0     0 -9.043926980E+01 -8.096663399E+01 -1.191814476E+02  2.111020483E+02  1.250000000E+02  0.00000E+00  9.000E+00
      25     1     1     2     0     0  1.577237475E+01  1.530473724E+02 -4.428201990E+02  4.851669760E+02  1.250000000E+02  0.00000E+00  9.000E+00
       5     1     1     2   502     0  7.466689506E+01 -7.208073842E+01 -1.123081533E+02  1.529179498E+02  1.348699152E-06  0.00000E+00  9.000E+00
#rwgt            1           1   2.6197796990723724E-002           6      318708           0
</event>
<event>
      5   9999  3.19816E-02  1.00033E+02 -1.00000E+00  1.23821E-01
      21    -1     0     0   502   511  0.000000000E+00  0.000000000E+00  5.815423915E+02  5.815423915E+02  0.000000000E+00  0.00000E+00  9.000E+00
      21    -1     0     0   501   502  0.000000000E+00  0.000000000E+00 -3.714502628E+02  3.714502628E+02  0.000000000E+00  0.00000E+00  9.000E+00
      25     1     1     2     0     0  8.273692826E-01  1.744274110E+02  2.048089150E+02  2.966433851E+02  1.250000000E+02  0.00000E+00  9.000E+00
      25     1     1     2     0     0  2.337695548E+01 -2.714880585E+02 -2.447717408E+02  3.870277162E+02  1.250000000E+02  0.00000E+00  9.000E+00
      21     1     1     2   501   511 -2.420432476E+01  9.706064754E+01  2.500549545E+02  2.693215530E+02  3.814697266E-06  0.00000E+00  9.000E+00
#rwgt            1           1   2.7937668432371818E-002           6      318768           0
</event>
<event>
      5   9999  3.19816E-02  6.67035E+01 -1.00000E+00  1.32291E-01
      21    -1     0     0   502   512  0.000000000E+00  0.000000000E+00  1.396987162E+02  1.396987162E+02  0.000000000E+00  0.00000E+00  9.000E+00
      21    -1     0     0   501   502  0.000000000E+00  0.000000000E+00 -8.204302452E+02  8.204302452E+02  0.000000000E+00  0.00000E+00  9.000E+00
      25     1     1     2     0     0  1.103437595E+02  5.427205262E+01 -7.188436239E+02  7.399205070E+02  1.250000000E+02  0.00000E+00  9.000E+00
      25     1     1     2     0     0 -4.743447550E+01 -3.209608510E+01  5.998365635E+01  1.500107569E+02  1.250000000E+02  0.00000E+00  9.000E+00
      21     1     1     2   501   512 -6.290928398E+01 -2.217596752E+01 -2.187156146E+01  7.019769759E+01  7.907449699E-07  0.00000E+00  9.000E+00
#rwgt            1           1   2.8974643392246459E-002           6      318856           0
</event>
<event>
      5   9999  3.19816E-02  3.69554E+01 -1.00000E+00  1.47005E-01
      21    -1     0     0   502   501  0.000000000E+00  0.000000000E+00  1.053804506E+02  1.053804506E+02  0.000000000E+00  0.00000E+00  9.000E+00
      21    -1     0     0   511   502  0.000000000E+00  0.000000000E+00 -7.049993991E+02  7.049993991E+02  0.000000000E+00  0.00000E+00  9.000E+00
      25     1     1     2     0     0 -4.142512069E+01 -1.791771166E+02 -1.633633586E+02  2.759222112E+02  1.250000000E+02  0.00000E+00  9.000E+00
      25     1     1     2     0     0  4.278671307E+01  1.422468166E+02 -1.487168158E+02  2.445537793E+02  1.250000000E+02  0.00000E+00  9.000E+00
      21     1     1     2   511   501 -1.361592382E+00  3.693029997E+01 -2.875387740E+02  2.899038592E+02  3.814697266E-06  0.00000E+00  9.000E+00
#rwgt            1           1   3.2232812962721027E-002           6      318935           0
</event>
<event>
      5   9999  3.19816E-02  3.60014E+02 -1.00000E+00  1.03081E-01
      21    -1     0     0   512   501  0.000000000E+00  0.000000000E+00  1.768101469E+03  1.768101469E+03  0.000000000E+00  0.00000E+00  9.000E+00
      21    -1     0     0   501   502  0.000000000E+00  0.000000000E+00 -1.401445627E+03  1.401445627E+03  0.000000000E+00  0.00000E+00  9.000E+00
      25     1     1     2     0     0  1.539376910E+02 -5.259788597E+02  2.034883818E+02  5.978152684E+02  1.250000000E+02  0.00000E+00  9.000E+00
      25     1     1     2     0     0  2.039575780E+02  4.869798592E+02 -1.117057648E+03  1.241849775E+03  1.250000000E+02  0.00000E+00  9.000E+00
      21     1     1     2   512   502 -3.578952690E+02  3.899900052E+01  1.280225107E+03  1.329882052E+03  2.642899792E-05  0.00000E+00  9.000E+00
#rwgt            2          11   2.3468144090257612E-003           6      319131           0
</event>
<event>
      5   9999  3.19816E-02  1.49142E+01 -1.00000E+00  1.77619E-01
      21    -1     0     0   502   501  0.000000000E+00  0.000000000E+00  6.741229056E+01  6.741229056E+01  0.000000000E+00  0.00000E+00  9.000E+00
      21    -1     0     0   501   511  0.000000000E+00  0.000000000E+00 -1.702227239E+03  1.702227239E+03  0.000000000E+00  0.00000E+00  9.000E+00
      25     1     1     2     0     0  2.188452908E+02  1.368649904E+02 -5.534332708E+02  6.233287032E+02  1.250000000E+02  0.00000E+00  9.000E+00
      25     1     1     2     0     0 -2.337594678E+02 -1.368885412E+02 -6.558514267E+02  7.205192957E+02  1.250000000E+02  0.00000E+00  9.000E+00
      21     1     1     2   502   511  1.491417699E+01  2.355085793E-02 -4.255302505E+02  4.257915303E+02  7.629394531E-06  0.00000E+00  9.000E+00
#rwgt            1           1   2.7834778180516384E-002           6      319181           0
</event>
<event>
      5   9999  3.19816E-02  5.07459E+01 -1.00000E+00  1.38710E-01
      21    -1     0     0   512   501  0.000000000E+00  0.000000000E+00  7.441144148E+02  7.441144148E+02  0.000000000E+00  0.00000E+00  9.000E+00
      21    -1     0     0   501   502  0.000000000E+00  0.000000000E+00 -1.583085481E+03  1.583085481E+03  0.000000000E+00  0.00000E+00  9.000E+00
      25     1     1     2     0     0 -6.785628294E+02 -4.970876164E+01 -9.823883495E+02  1.201511691E+03  1.250000000E+02  0.00000E+00  9.000E+00
      25     1     1     2     0     0  7.149996715E+02  1.438872034E+01 -2.201222407E+02  7.586239954E+02  1.250000000E+02  0.00000E+00  9.000E+00
      21     1     1     2   512   502 -3.643684213E+01  3.532004130E+01  3.635395237E+02  3.670642097E+02  0.000000000E+00  0.00000E+00  9.000E+00
#rwgt            1           1   3.1950815080169816E-002           6      319341           0
</event>
<event>
      5   9999  3.19816E-02  1.20066E+02 -1.00000E+00  1.20358E-01
      21    -1     0     0   511   501  0.000000000E+00  0.000000000E+00  7.002230101E+02  7.002230101E+02  0.000000000E+00  0.00000E+00  9.000E+00
      21    -1     0     0   501   502  0.000000000E+00  0.000000000E+00 -3.783850875E+02  3.783850875E+02  0.000000000E+00  0.00000E+00  9.000E+00
      25     1     1     2     0     0  1.416162280E+02 -2.082509706E+01 -3.196375149E+02  3.718628532E+02  1.250000000E+02  0.00000E+00  9.000E+00
      25     1     1     2     0     0 -2.347507783E+01 -5.876524894E-01  1.319642344E+02  1.832784324E+02  1.250000000E+02  0.00000E+00  9.000E+00
      21     1     1     2   511   502 -1.181411502E+02  2.141274954E+01  5.095112031E+02  5.234668120E+02  0.000000000E+00  0.00000E+00  9.000E+00
#rwgt            1           1   3.0427125674259151E-002           6      319455           0
</event>
<event>
      5   9999  3.19816E-02  4.29374E+01 -1.00000E+00  1.42957E-01
      21    -1     0     0   512   501  0.000000000E+00  0.000000000E+00  4.563692085E+02  4.563692085E+02  0.000000000E+00  0.00000E+00  9.000E+00
      21    -1     0     0   501   502  0.000000000E+00  0.000000000E+00 -1.101593085E+03  1.101593085E+03  0.000000000E+00  0.00000E+00  9.000E+00
      25     1     1     2     0     0 -5.345891362E+02  2.518654987E+02  5.894165559E+01  6.068944659E+02  1.250000000E+02  0.00000E+00  9.000E+00
      25     1     1     2     0     0  5.173624936E+02 -2.125352840E+02 -7.044423329E+02  9.081295046E+02  1.250000000E+02  0.00000E+00  9.000E+00
      21     1     1     2   512   502  1.722664258E+01 -3.933021475E+01  2.768003398E-01  4.293832350E+01  2.466018373E-07  0.00000E+00  9.000E+00
#rwgt            1           1   3.0622343905967232E-002           6      319504           0
</event>
<event>
      5   9999  3.19816E-02  6.16038E+01 -1.00000E+00  1.34094E-01
      21    -1     0     0   511   501  0.000000000E+00  0.000000000E+00  8.385115931E+02  8.385115931E+02  0.000000000E+00  0.00000E+00  9.000E+00
      21    -1     0     0   501   502  0.000000000E+00  0.000000000E+00 -2.726239475E+02  2.726239475E+02  0.000000000E+00  0.00000E+00  9.000E+00
      25     1     1     2     0     0  1.614064211E+02  1.963719683E+02  2.808821821E+02  3.989157592E+02  1.250000000E+02  0.00000E+00  9.000E+00
      25     1     1     2     0     0 -1.513852948E+02 -2.571552448E+02 -8.710042500E+01  3.350489687E+02  1.250000000E+02  0.00000E+00  9.000E+00
      21     1     1     2   511   502 -1.002112629E+01  6.078327645E+01  3.721058885E+02  3.771708126E+02  0.000000000E+00  0.00000E+00  9.000E+00
#rwgt            1           1   2.7400060641957064E-002           6      319638           0
</event>
<event>
      5   9999  3.19816E-02  7.66524E+01 -1.00000E+00  1.29255E-01
      21    -1     0     0   512   501  0.000000000E+00  0.000000000E+00  5.316998537E+02  5.316998537E+02  0.000000000E+00  0.00000E+00  9.000E+00
      21    -1     0     0   501   502  0.000000000E+00  0.000000000E+00 -3.496667282E+02  3.496667282E+02  0.000000000E+00  0.00000E+00  9.000E+00
      25     1     1     2     0     0 -3.213042678E+02 -5.531427626E+01 -8.076323835E+01  3.583905724E+02  1.250000000E+02  0.00000E+00  9.000E+00
      25     1     1     2     0     0  3.456033233E+02 -1.738472205E+01  1.781689961E+02  4.087946633E+02  1.250000000E+02  0.00000E+00  9.000E+00
      21     1     1     2   512   502 -2.429905543E+01  7.269899831E+01  8.462736781E+01  1.141813463E+02  1.348699152E-06  0.00000E+00  9.000E+00
#rwgt            1           1   2.7529179507506937E-002           6      319720           0
</event>
<event>
      5   9999  3.19816E-02  5.15840E+01 -1.00000E+00  1.38307E-01
      21    -1     0     0   502   501  0.000000000E+00  0.000000000E+00  6.745452808E+01  6.745452808E+01  0.000000000E+00  0.00000E+00  9.000E+00
      21    -1     0     0   511   502  0.000000000E+00  0.000000000E+00 -9.155275217E+02  9.155275217E+02  0.000000000E+00  0.00000E+00  9.000E+00
      25     1     1     2     0     0  9.277548139E+00 -3.092206851E+01 -4.305090603E+02  4.494499952E+02  1.250000000E+02  0.00000E+00  9.000E+00
      25     1     1     2     0     0 -6.076775649E+01  2.781327375E+01 -3.301389809E+01  1.455376786E+02  1.250000000E+02  0.00000E+00  9.000E+00
      21     1     1     2   511   501  5.149020835E+01  3.108794765E+00 -3.845500353E+02  3.879943760E+02  0.000000000E+00  0.00000E+00  9.000E+00
#rwgt            1           1   2.9821145040752367E-002           6      319819           0
</event>
<event>
      5   9999  3.19816E-02  3.68834E+01 -1.00000E+00  1.47059E-01
      21    -1     0     0   512   501  0.000000000E+00  0.000000000E+00  5.419466033E+02  5.419466033E+02  0.000000000E+00  0.00000E+00  9.000E+00
      21    -1     0     0   501   502  0.000000000E+00  0.000000000E+00 -1.606675581E+02  1.606675581E+02  0.000000000E+00  0.00000E+00  9.000E+00
      25     1     1     2     0     0 -2.006899107E+02 -9.007470266E+01  2.945609034E+02  3.883053156E+02  1.250000000E+02  0.00000E+00  9.000E+00
      25     1     1     2     0     0  1.763660620E+02  1.178007432E+02  3.190779853E+01  2.482440544E+02  1.250000000E+02  0.00000E+00  9.000E+00
      21     1     1     2   512   502  2.432384864E+01 -2.772604056E+01  5.481034325E+01  6.606479141E+01  6.743495762E-07  0.00000E+00  9.000E+00
#rwgt            1           1   2.8995658867927061E-002           6      319900           0
</event>
<event>
      5   9999  3.19816E-02  2.23689E+01 -1.00000E+00  1.62455E-01
      21    -1     0     0   511   501  0.000000000E+00  0.000000000E+00  1.232230497E+02  1.232230497E+02  0.000000000E+00  0.00000E+00  9.000E+00
      21    -1     0     0   501   502  0.000000000E+00  0.000000000E+00 -1.819574609E+03  1.819574609E+03  0.000000000E+00  0.00000E+00  9.000E+00
      25     1     1     2     0     0 -1.849702313E+02 -3.043366768E+01 -1.669331903E+03  1.684468521E+03  1.250000000E+02  0.00000E+00  9.000E+00
      25     1     1     2     0     0  1.808945415E+02  8.439224707E+00 -5.064276101E+01  2.257958035E+02  1.250000000E+02  0.00000E+00  9.000E+00
      21     1     1     2   511   502  4.075689880E+00  2.199444297E+01  2.362310481E+01  3.253333445E+01  1.011524364E-06  0.00000E+00  9.000E+00
#rwgt            1           1   2.6340577524990624E-002           6      320033           0
</event>
<event>
      5   9999  3.19816E-02  1.83930E+02 -1.00000E+00  1.12989E-01
       2    -1     0     0   502     0  0.000000000E+00  0.000000000E+00  6.951568993E+02  6.951568993E+02  0.000000000E+00  0.00000E+00  9.000E+00
      21    -1     0     0   501   502  0.000000000E+00  0.000000000E+00 -7.653392996E+02  7.653392996E+02  0.000000000E+00  0.00000E+00  9.000E+00
      25     1     1     2     0     0  3.319860855E+02  7.209857165E+01 -1.746051341E+02  4.019016271E+02  1.250000000E+02  0.00000E+00  9.000E+00
      25     1     1     2     0     0 -1.514565167E+02 -1.073041960E+02 -4.347219541E+02  4.889391008E+02  1.250000000E+02  0.00000E+00  9.000E+00
       2     1     1     2   501     0 -1.805295688E+02  3.520562434E+01  5.391446879E+02  5.696554710E+02  1.078959322E-05  0.00000E+00  9.000E+00
#rwgt            1           1   2.7682102831068540E-002           6      320172           0
</event>
<event>
      5   9999  3.19816E-02  6.43013E+01 -1.00000E+00  1.33116E-01
      21    -1     0     0   502   501  0.000000000E+00  0.000000000E+00  6.029525702E+02  6.029525702E+02  0.000000000E+00  0.00000E+00  9.000E+00
       2    -1     0     0   501     0  0.000000000E+00  0.000000000E+00 -2.927662296E+03  2.927662296E+03  0.000000000E+00  0.00000E+00  9.000E+00
      25     1     1     2     0     0  3.783450963E+02  2.620688582E+02 -7.902210117E+02  9.229839358E+02  1.250000000E+02  0.00000E+00  9.000E+00
      25     1     1     2     0     0 -3.144613068E+02 -2.693844612E+02  4.488012566E+02  6.232988604E+02  1.250000000E+02  0.00000E+00  9.000E+00
       2     1     1     2   502     0 -6.388378952E+01  7.315602959E+00 -1.983289970E+03  1.984332070E+03  2.157918644E-05  0.00000E+00  9.000E+00
#rwgt            1           1   3.4780896795146170E-002           6      320234           0
</event>
<event>
      5   9999  3.19816E-02  2.33355E+02 -1.00000E+00  1.09263E-01
      21    -1     0     0   502   501  0.000000000E+00  0.000000000E+00  7.838014987E+02  7.838014987E+02  0.000000000E+00  0.00000E+00  9.000E+00
      21    -1     0     0   501   511  0.000000000E+00  0.000000000E+00 -1.752729309E+02  1.752729309E+02  0.000000000E+00  0.00000E+00  9.000E+00
      25     1     1     2     0     0 -7.475278835E+01 -8.409801107E+01  3.842196855E+02  4.194165251E+02  1.250000000E+02  0.00000E+00  9.000E+00
      25     1     1     2     0     0 -1.524122687E+02  1.374898180E+02  4.299956055E+01  2.441452680E+02  1.250000000E+02  0.00000E+00  9.000E+00
      21     1     1     2   502   511  2.271650570E+02 -5.339180689E+01  1.813093218E+02  2.955126365E+02  3.814697266E-06  0.00000E+00  9.000E+00
#rwgt            2          11   3.8199187949663465E-003           6      320513           0
</event>
<event>
      5   9999  3.19816E-02  1.98938E+01 -1.00000E+00  1.66560E-01
      21    -1     0     0   502   512  0.000000000E+00  0.000000000E+00  1.728778251E+02  1.728778251E+02  0.000000000E+00  0.00000E+00  9.000E+00
      21    -1     0     0   501   502  0.000000000E+00  0.000000000E+00 -5.560192571E+02  5.560192571E+02  0.000000000E+00  0.00000E+00  9.000E+00
      25     1     1     2     0     0 -1.867549694E+02 -5.391102623E+01 -4.253260013E+02  4.840568404E+02  1.250000000E+02  0.00000E+00  9.000E+00
      25     1     1     2     0     0  1.668838234E+02  5.486104340E+01  5.324150538E+01  2.220801713E+02  1.250000000E+02  0.00000E+00  9.000E+00
      21     1     1     2   501   512  1.987114599E+01 -9.500171734E-01 -1.105693606E+01  2.276007053E+01  4.298152060E-07  0.00000E+00  9.000E+00
#rwgt            1           1   2.8519156612339409E-002           6      320533           0
</event>
<event>
      5   9999  3.19816E-02  2.72221E+01 -1.00000E+00  1.56030E-01
      21    -1     0     0   502   501  0.000000000E+00  0.000000000E+00  5.488138929E+02  5.488138929E+02  0.000000000E+00  0.00000E+00  9.000E+00
      21    -1     0     0   511   502  0.000000000E+00  0.000000000E+00 -3.203159694E+02  3.203159694E+02  0.000000000E+00  0.00000E+00  9.000E+00
      25     1     1     2     0     0  3.243994084E+02  1.183456399E+02  2.588845902E+02  4.493182588E+02  1.250000000E+02  0.00000E+00  9.000E+00
      25     1     1     2     0     0 -3.515374270E+02 -1.162080719E+02 -2.230229047E+01  3.914144488E+02  1.250000000E+02  0.00000E+00  9.000E+00
      21     1     1     2   511   501  2.713801861E+01 -2.137567995E+00 -8.084376159E+00  2.839715459E+01  5.462855929E-07  0.00000E+00  9.000E+00
#rwgt            1           1   2.3149789689888574E-002           6      320725           0
</event>
<event>
      5   9999  3.19816E-02  2.02646E+02 -1.00000E+00  1.11441E-01
      21    -1     0     0   502   501  0.000000000E+00  0.000000000E+00  1.172548938E+02  1.172548938E+02  0.000000000E+00  0.00000E+00  9.000E+00
       2    -1     0     0   501     0  0.000000000E+00  0.000000000E+00 -1.156640324E+03  1.156640324E+03  0.000000000E+00  0.00000E+00  9.000E+00
      25     1     1     2     0     0 -2.091393329E+01 -4.623346452E+01  1.637256432E+01  1.358969709E+02  1.250000000E+02  0.00000E+00  9.000E+00
      25     1     1     2     0     0  9.449445433E+01 -1.425819038E+02 -6.632636376E+02  6.962775698E+02  1.250000000E+02  0.00000E+00  9.000E+00
       2     1     1     2   502     0 -7.358052104E+01  1.888153683E+02 -3.924943564E+02  4.417206767E+02  5.394796609E-06  0.00000E+00  9.000E+00
#rwgt            2          13   7.2204035309545833E-004           6      320952           0
</event>
<event>
      5   9999  3.19816E-02  6.33013E+01 -1.00000E+00  1.33472E-01
      21    -1     0     0   511   501  0.000000000E+00  0.000000000E+00  3.733393849E+02  3.733393849E+02  0.000000000E+00  0.00000E+00  9.000E+00
      21    -1     0     0   501   502  0.000000000E+00  0.000000000E+00 -3.913936887E+02  3.913936887E+02  0.000000000E+00  0.00000E+00  9.000E+00
      25     1     1     2     0     0  4.828304323E+01  1.211768169E+02  1.164727719E+02  2.149557625E+02  1.250000000E+02  0.00000E+00  9.000E+00
      25     1     1     2     0     0 -5.336034502E+01 -1.842741193E+02 -2.972266597E+02  3.751972344E+02  1.250000000E+02  0.00000E+00  9.000E+00
      21     1     1     2   511   502  5.077301793E+00  6.309730239E+01  1.626995840E+02  1.745800767E+02  2.697398305E-06  0.00000E+00  9.000E+00
#rwgt            1           1   2.7419590920682486E-002           6      320971           0
</event>
<event>
      5   9999  3.19816E-02  3.17503E+01 -1.00000E+00  1.51349E-01
      21    -1     0     0   502   501  0.000000000E+00  0.000000000E+00  2.004248302E+02  2.004248302E+02  0.000000000E+00  0.00000E+00  9.000E+00
       2    -1     0     0   501     0  0.000000000E+00  0.000000000E+00 -1.908312519E+03  1.908312519E+03  0.000000000E+00  0.00000E+00  9.000E+00
      25     1     1     2     0     0  8.290593442E+01  1.653534830E+02  3.812295297E+01  2.264807450E+02  1.250000000E+02  0.00000E+00  9.000E+00
      25     1     1     2     0     0 -8.305781780E+01 -1.336035847E+02 -8.052223061E+01  2.164655828E+02  1.250000000E+02  0.00000E+00  9.000E+00
       2     1     1     2   502     0  1.518833798E-01 -3.174989839E+01 -1.665488411E+03  1.665791022E+03  2.157918644E-05  0.00000E+00  9.000E+00
#rwgt            1           1   2.7941773328293628E-002           6      321074           0
</event>
<event>
      5   9999  3.19816E-02  8.87133E+00 -1.00000E+00  2.01968E-01
      21    -1     0     0   502   511  0.000000000E+00  0.000000000E+00  5.313857370E+02  5.313857370E+02  0.000000000E+00  0.00000E+00  9.000E+00
      21    -1     0     0   501   502  0.000000000E+00  0.000000000E+00 -1.403973629E+02  1.403973629E+02  0.000000000E+00  0.00000E+00  9.000E+00
      25     1     1     2     0     0 -9.248544004E+01 -1.913796230E+02  1.295560057E+02  2.785488743E+02  1.250000000E+02  0.00000E+00  9.000E+00
      25     1     1     2     0     0  9.520044982E+01  1.998252839E+02  1.803787975E+02  3.116966159E+02  1.250000000E+02  0.00000E+00  9.000E+00
      21     1     1     2   501   511 -2.715009781E+00 -8.445660914E+00  8.105357081E+01  8.153760977E+01  9.536743164E-07  0.00000E+00  9.000E+00
#rwgt            1           1   2.6062697221332452E-002           6      321188           0
</event>
<event>
      5   9999  3.19816E-02  1.91804E+02 -1.00000E+00  1.12314E-01
      21    -1     0     0   502   501  0.000000000E+00  0.000000000E+00  4.525815858E+02  4.525815858E+02  0.000000000E+00  0.00000E+00  9.000E+00
      21    -1     0     0   501   512  0.000000000E+00  0.000000000E+00 -2.900896660E+02  2.900896660E+02  0.000000000E+00  0.00000E+00  9.000E+00
      25     1     1     2     0     0  2.911718955E+01 -1.525627816E+02  1.990723880E+02  2.817410668E+02  1.250000000E+02  0.00000E+00  9.000E+00
      25     1     1     2     0     0 -2.115730628E+02  9.341294758E+01 -5.383600327E+01  2.683513647E+02  1.250000000E+02  0.00000E+00  9.000E+00
      21     1     1     2   502   512  1.824558732E+02  5.914983406E+01  1.725553508E+01  1.925788203E+02  1.507891493E-06  0.00000E+00  9.000E+00
#rwgt            1           1   2.8011416532416889E-002           6      321368           0
</event>
<event>
      5   9999  3.19816E-02  5.77400E+01 -1.00000E+00  1.35601E-01
      21    -1     0     0   502   511  0.000000000E+00  0.000000000E+00  8.451234907E+02  8.451234907E+02  0.000000000E+00  0.00000E+00  9.000E+00
      21    -1     0     0   501   502  0.000000000E+00  0.000000000E+00 -1.736915154E+02  1.736915154E+02  0.000000000E+00  0.00000E+00  9.000E+00
      25     1     1     2     0     0 -3.205352083E+02  9.749932145E+01  1.837382808E+02  4.020369302E+02  1.250000000E+02  0.00000E+00  9.000E+00
      25     1     1     2     0     0  2.817582913E+02 -5.471780841E+01  3.628973975E+02  4.792716291E+02  1.250000000E+02  0.00000E+00  9.000E+00
      21     1     1     2   501   511  3.877691701E+01 -4.278151304E+01  1.247962970E+02  1.375064468E+02  2.336015456E-06  0.00000E+00  9.000E+00
#rwgt            1           1   2.4383959887672481E-002           6      321402           0
</event>
<event>
      5   9999  3.19816E-02  2.00590E+01 -1.00000E+00  1.66264E-01
      21    -1     0     0   512   501  0.000000000E+00  0.000000000E+00  3.494713503E+02  3.494713503E+02  0.000000000E+00  0.00000E+00  9.000E+00
      21    -1     0     0   501   502  0.000000000E+00  0.000000000E+00 -5.394524610E+02  5.394524610E+02  0.000000000E+00  0.00000E+00  9.000E+00
      25     1     1     2     0     0  2.070707164E+02  1.262285049E+02 -2.924588488E+02  3.999613672E+02  1.250000000E+02  0.00000E+00  9.000E+00
      25     1     1     2     0     0 -1.996151944E+02 -1.076064581E+02 -1.057997692E+02  2.797212305E+02  1.250000000E+02  0.00000E+00  9.000E+00
      21     1     1     2   512   502 -7.455521966E+00 -1.862204679E+01  2.082775072E+02  2.092412135E+02  4.672030912E-06  0.00000E+00  9.000E+00
#rwgt            1           1   2.8341561269629664E-002           6      321518           0
</event>
<event>
      5   9999  3.19816E-02  5.49247E+01 -1.00000E+00  1.36787E-01
      21    -1     0     0   502   501  0.000000000E+00  0.000000000E+00  3.124958003E+02  3.124958003E+02  0.000000000E+00  0.00000E+00  9.000E+00
      21    -1     0     0   501   511  0.000000000E+00  0.000000000E+00 -1.842231831E+02  1.842231831E+02  0.000000000E+00  0.00000E+00  9.000E+00
      25     1     1     2     0     0  1.510635923E+02 -2.090468504E+01  1.889665192E+02  2.731127243E+02  1.250000000E+02  0.00000E+00  9.000E+00
      25     1     1     2     0     0 -9.896667146E+01  3.508367580E+00 -5.352318895E+01  1.682154644E+02  1.250000000E+02  0.00000E+00  9.000E+00
      21     1     1     2   502   511 -5.209692085E+01  1.739631746E+01 -7.170712989E+00  5.539079480E+01  7.907449699E-07  0.00000E+00  9.000E+00
#rwgt            1           1   2.9478716285344590E-002           6      321692           0
</event>
<event>
      5   9999  3.19816E-02  1.21382E+02 -1.00000E+00  1.20158E-01
      21    -1     0     0   502   501  0.000000000E+00  0.000000000E+00  1.092964481E+03  1.092964481E+03  0.000000000E+00  0.00000E+00  9.000E+00
      21    -1     0     0   512   502  0.000000000E+00  0.000000000E+00 -1.990143803E+02  1.990143803E+02  0.000000000E+00  0.00000E+00  9.000E+00
      25     1     1     2     0     0  4.313914288E+01  1.468530721E+02 -6.483709453E+01  2.079799492E+02  1.250000000E+02  0.00000E+00  9.000E+00
      25     1     1     2     0     0  7.802184385E+01 -1.395243217E+02  9.394120924E+02  9.610798738E+02  1.250000000E+02  0.00000E+00  9.000E+00
      21     1     1     2   512   501 -1.211609867E+02 -7.328750353E+00  1.937510241E+01  1.229190379E+02  8.596304120E-07  0.00000E+00  9.000E+00
#rwgt            1           1   2.7907554475207253E-002           6      321796           0
</event>
<event>
      5   9999  3.19816E-02  1.80916E+02 -1.00000E+00  1.13257E-01
      21    -1     0     0   502   501  0.000000000E+00  0.000000000E+00  3.473393045E+02  3.473393045E+02  0.000000000E+00  0.00000E+00  9.000E+00
      21    -1     0     0   501   511  0.000000000E+00  0.000000000E+00 -6.887130982E+02  6.887130982E+02  0.000000000E+00  0.00000E+00  9.000E+00
      25     1     1     2     0     0 -1.725248328E+02 -4.433389137E+01  2.599187505E+02  3.389883017E+02  1.250000000E+02  0.00000E+00  9.000E+00
      25     1     1     2     0     0  8.153563724E+00 -3.124791194E+01 -9.753586637E+01  1.618059264E+02  1.250000000E+02  0.00000E+00  9.000E+00
      21     1     1     2   502   511  1.643712690E+02  7.558180331E+01 -5.037566778E+02  5.352581746E+02  1.206313194E-05  0.00000E+00  9.000E+00
#rwgt            2          11   4.1676866027606386E-003           6      321909           0
</event>
<event>
      5   9999  3.19816E-02  1.86279E+01 -1.00000E+00  1.68957E-01
      21    -1     0     0   512   501  0.000000000E+00  0.000000000E+00  1.543600665E+02  1.543600665E+02  0.000000000E+00  0.00000E+00  9.000E+00
      21    -1     0     0   501   502  0.000000000E+00  0.000000000E+00 -6.034404188E+02  6.034404188E+02  0.000000000E+00  0.00000E+00  9.000E+00
      25     1     1     2     0     0 -1.568078447E+02  2.098663126E+02 -2.694313763E+02  3.960439822E+02  1.250000000E+02  0.00000E+00  9.000E+00
      25     1     1     2     0     0  1.641563153E+02 -1.927490912E+02 -1.901107676E+02  3.403918506E+02  1.250000000E+02  0.00000E+00  9.000E+00
      21     1     1     2   512   502 -7.348470584E+00 -1.711722139E+01  1.046179168E+01  2.136465242E+01  3.371747881E-07  0.00000E+00  9.000E+00
#rwgt            1           1   2.7203155847114496E-002           6      321944           0
</event>
<event>
      5   9999  3.19816E-02  6.95251E+01 -1.00000E+00  1.31371E-01
      21    -1     0     0   502   501  0.000000000E+00  0.000000000E+00  1.724847840E+03  1.724847840E+03  0.000000000E+00  0.00000E+00  9.000E+00
      21    -1     0     0   511   502  0.000000000E+00  0.000000000E+00 -6.614901501E+02  6.614901501E+02  0.000000000E+00  0.00000E+00  9.000E+00
      25     1     1     2     0     0  5.824206600E+02  7.038047381E+02  1.142970555E+02  9.291091171E+02  1.250000000E+02  0.00000E+00  9.000E+00
      25     1     1     2     0     0 -6.318317664E+02 -6.548938460E+02  1.009684011E+03  1.364985030E+03  1.250000000E+02  0.00000E+00  9.000E+00
      21     1     1     2   511   501  4.941110639E+01 -4.891089213E+01 -6.062337631E+01  9.224384293E+01  1.507891493E-06  0.00000E+00  9.000E+00
#rwgt            1           1   3.3398526861725321E-002           6      322075           0
</event>
<event>
      5   9999  3.19816E-02  1.07577E+02 -1.00000E+00  1.22418E-01
      21    -1     0     0   512   501  0.000000000E+00  0.000000000E+00  1.232998011E+03  1.232998011E+03  0.000000000E+00  0.00000E+00  9.000E+00
      21    -1     0     0   501   502  0.000000000E+00  0.000000000E+00 -2.169470463E+02  2.169470463E+02  0.000000000E+00  0.00000E+00  9.000E+00
      25     1     1     2     0     0 -1.164678308E+02  4.766691735E+02  4.866950800E+02  7.023356444E+02  1.250000000E+02  0.00000E+00  9.000E+00
      25     1     1     2     0     0  4.969855445E+01 -3.923210151E+02  3.728629298E+02  5.577073512E+02  1.250000000E+02  0.00000E+00  9.000E+00
      21     1     1     2   512   502  6.676927638E+01 -8.434815840E+01  1.564929552E+02  1.899020619E+02  1.907348633E-06  0.00000E+00  9.000E+00
#rwgt            1           1   2.9247738416786448E-002           6      322223           0
</event>
<event>
      5   9999  3.19816E-02  3.20774E+02 -1.00000E+00  1.04656E-01
      21    -1     0     0   511   501  0.000000000E+00  0.000000000E+00  2.690495232E+02  2.690495232E+02  0.000000000E+00  0.00000E+00  9.000E+00
      21    -1     0     0   501   502  0.000000000E+00  0.000000000E+00 -7.400913615E+02  7.400913615E+02  0.000000000E+00  0.00000E+00  9.000E+00
      25     1     1     2     0     0 -2.733853669E+01 -1.489873744E+02  5.008611852E+01  2.026777062E+02  1.250000000E+02  0.00000E+00  9.000E+00
      25     1     1     2     0     0 -1.501318125E+02 -1.182203325E+02 -4.057143426E+02  4.655585204E+02  1.250000000E+02  0.00000E+00  9.000E+00
      21     1     1     2   511   502  1.774703492E+02  2.672077069E+02 -1.154136143E+02  3.409046580E+02  5.560829062E-06  0.00000E+00  9.000E+00
#rwgt            2          11   3.4294101020023071E-003           6      322424           0
</event>
<event>
      5   9999  3.19816E-02  1.21194E+02 -1.00000E+00  1.20186E-01
      21    -1     0     0   502   512  0.000000000E+00  0.000000000E+00  1.397539387E+02  1.397539387E+02  0.000000000E+00  0.00000E+00  9.000E+00
      21    -1     0     0   501   502  0.000000000E+00  0.000000000E+00 -9.878182718E+02  9.878182718E+02  0.000000000E+00  0.00000E+00  9.000E+00
      25     1     1     2     0     0 -1.820557320E+02 -6.265968474E+01 -3.744824928E+02  4.392410080E+02  1.250000000E+02  0.00000E+00  9.000E+00
      25     1     1     2     0     0  2.526613075E+02  1.611628058E+02 -4.645742638E+02  5.668028165E+02  1.250000000E+02  0.00000E+00  9.000E+00
      21     1     1     2   501   512 -7.060557547E+01 -9.850312108E+01 -9.007576553E+00  1.215283859E+02  2.085310898E-06  0.00000E+00  9.000E+00
#rwgt            2          11   3.2712325817713032E-003           6      322444           0
</event>
<event>
      5   9999  3.19816E-02  1.82740E+01 -1.00000E+00  1.69669E-01
      21    -1     0     0   502   501  0.000000000E+00  0.000000000E+00  1.190143853E+02  1.190143853E+02  0.000000000E+00  0.00000E+00  9.000E+00
       2    -1     0     0   501     0  0.000000000E+00  0.000000000E+00 -2.417866570E+03  2.417866570E+03  0.000000000E+00  0.00000E+00  9.000E+00
      25     1     1     2     0     0  1.007638377E+01  2.265805487E+01 -5.719681799E+02  5.859927643E+02  1.250000000E+02  0.00000E+00  9.000E+00
      25     1     1     2     0     0 -2.833891442E+01 -2.201034238E+01  7.418959157E+01  1.497218913E+02  1.250000000E+02  0.00000E+00  9.000E+00
       2     1     1     2   502     0  1.826253065E+01 -6.477124861E-01 -1.801073596E+03  1.801166300E+03  2.157918644E-05  0.00000E+00  9.000E+00
#rwgt            1           1   2.8638724324433137E-002           6      322464           0
</event>
<event>
      5   9999  3.19816E-02  1.64030E+02 -1.00000E+00  1.14875E-01
      21    -1     0     0   502   501  0.000000000E+00  0.000000000E+00  1.303676429E+03  1.303676429E+03  0.000000000E+00  0.00000E+00  9.000E+00
      -2    -1     0     0     0   502  0.000000000E+00  0.000000000E+00 -6.929385814E+02  6.929385814E+02  0.000000000E+00  0.00000E+00  9.000E+00
      25     1     1     2     0     0  4.911238355E+02  1.816631516E+02  2.721984262E+02  6.032587385E+02  1.250000000E+02  0.00000E+00  9.000E+00
      25     1     1     2     0     0 -3.281443604E+02 -1.631276188E+02  8.080463266E+02  8.960207627E+02  1.250000000E+02  0.00000E+00  9.000E+00
      -2     1     1     2     0   501 -1.629794750E+02 -1.853553275E+01 -4.695069049E+02  4.973355095E+02  5.394796609E-06  0.00000E+00  9.000E+00
#rwgt            2           9   2.0083281278073894E-004           6      322698           0
</event>
<event>
      5   9999  3.19816E-02  1.02549E+02 -1.00000E+00  1.23338E-01
      21    -1     0     0   502   511  0.000000000E+00  0.000000000E+00  4.336626141E+02  4.336626141E+02  0.000000000E+00  0.00000E+00  9.000E+00
      21    -1     0     0   501   502  0.000000000E+00  0.000000000E+00 -4.674821503E+02  4.674821503E+02  0.000000000E+00  0.00000E+00  9.000E+00
      25     1     1     2     0     0 -3.054328823E+02  8.512717033E+01 -2.358932995E+01  3.416391916E+02  1.250000000E+02  0.00000E+00  9.000E+00
      25     1     1     2     0     0  4.075510087E+02 -7.573686034E+01 -7.328264577E+01  4.391232661E+02  1.250000000E+02  0.00000E+00  9.000E+00
      21     1     1     2   501   511 -1.021181264E+02 -9.390309988E+00  6.305243946E+01  1.203823067E+02  2.431401974E-06  0.00000E+00  9.000E+00
#rwgt            1           1   2.9103802282980082E-002           6      322762           0
</event>
<event>
      5   9999  3.19816E-02  1.52532E+02 -1.00000E+00  1.16106E-01
      21    -1     0     0   502   501  0.000000000E+00  0.000000000E+00  5.254457746E+02  5.254457746E+02  0.000000000E+00  0.00000E+00  9.000E+00
      21    -1     0     0   512   502  0.000000000E+00  0.000000000E+00 -8.105402755E+02  8.105402755E+02  0.000000000E+00  0.00000E+00  9.000E+00
      25     1     1     2     0     0 -7.960920110E+01 -1.363858557E+02  4.231245064E+02  4.686129260E+02  1.250000000E+02  0.00000E+00  9.000E+00
      25     1     1     2     0     0  2.043157082E+02  2.242174224E+02 -5.872870651E+02  6.727179632E+02  1.250000000E+02  0.00000E+00  9.000E+00
      21     1     1     2   512   501 -1.247065071E+02 -8.783156668E+01 -1.209319422E+02  1.946551609E+02  1.907348633E-06  0.00000E+00  9.000E+00
#rwgt            1           1   3.0621321628988309E-002           6      322834           0
</event>
<event>
      5   9999  3.19816E-02  1.29989E+02 -1.00000E+00  1.18913E-01
      21    -1     0     0   502   511  0.000000000E+00  0.000000000E+00  2.727661882E+02  2.727661882E+02  0.000000000E+00  0.00000E+00  9.000E+00
      21    -1     0     0   501   502  0.000000000E+00  0.000000000E+00 -4.087210702E+02  4.087210702E+02  0.000000000E+00  0.00000E+00  9.000E+00
      25     1     1     2     0     0  2.313724059E+02  9.233609351E+01 -5.155901148E+01  2.834474837E+02  1.250000000E+02  0.00000E+00  9.000E+00
      25     1     1     2     0     0 -2.070740142E+02  3.536180816E+01 -1.056894512E+02  2.663181648E+02  1.250000000E+02  0.00000E+00  9.000E+00
      21     1     1     2   501   511 -2.429839170E+01 -1.276979017E+02  2.129358068E+01  1.317216099E+02  3.099441528E-06  0.00000E+00  9.000E+00
#rwgt            1           1   2.4780855814640373E-002           6      322897           0
</event>
<event>
      5   9999  3.19816E-02  2.41656E+01 -1.00000E+00  1.59863E-01
      21    -1     0     0   502   512  0.000000000E+00  0.000000000E+00  2.149228496E+03  2.149228496E+03  0.000000000E+00  0.00000E+00  9.000E+00
      21    -1     0     0   501   502  0.000000000E+00  0.000000000E+00 -2.163958732E+02  2.163958732E+02  0.000000000E+00  0.00000E+00  9.000E+00
      25     1     1     2     0     0 -3.683624704E+02  1.394989037E+02  1.319834399E+02  4.338150322E+02  1.250000000E+02  0.00000E+00  9.000E+00
      25     1     1     2     0     0  3.545574022E+02 -1.593331402E+02  5.723369274E+02  7.030594281E+02  1.250000000E+02  0.00000E+00  9.000E+00
      21     1     1     2   501   512  1.380506822E+01  1.983423652E+01  1.228512256E+03  1.228749909E+03  2.157918644E-05  0.00000E+00  9.000E+00
#rwgt            1           1   2.5198499311087936E-002           6      322956           0
</event>
<event>
      5   9999  3.19816E-02  2.82699E+02 -1.00000E+00  1.06437E-01
       2    -1     0     0   502     0  0.000000000E+00  0.000000000E+00  2.400061435E+03  2.400061435E+03  0.000000000E+00  0.00000E+00  9.000E+00
      21    -1     0     0   501   502  0.000000000E+00  0.000000000E+00 -1.532815194E+03  1.532815194E+03  0.000000000E+00  0.00000E+00  9.000E+00
      25     1     1     2     0     0 -6.197998701E+02 -3.262042321E+02 -4.177437532E+02  8.250429828E+02  1.250000000E+02  0.00000E+00  9.000E+00
      25     1     1     2     0     0  3.577891877E+02  4.323607885E+02 -8.102996231E+02  9.935589733E+02  1.250000000E+02  0.00000E+00  9.000E+00
       2     1     1     2   501     0  2.620106824E+02 -1.061565565E+02  2.095289617E+03  2.114274673E+03  4.315837288E-05  0.00000E+00  9.000E+00
#rwgt            1           1   3.0470085032112577E-002           6      323119           0
</event>
<event>
      5   9999  3.19816E-02  1.02563E+01 -1.00000E+00  1.94495E-01
      21    -1     0     0   502   511  0.000000000E+00  0.000000000E+00  3.258761129E+02  3.258761129E+02  0.000000000E+00  0.00000E+00  9.000E+00
      21    -1     0     0   501   502  0.000000000E+00  0.000000000E+00 -5.485552738E+02  5.485552738E+02  0.000000000E+00  0.00000E+00  9.000E+00
      25     1     1     2     0     0  3.930613298E+02  2.909999593E+01 -8.731248396E+01  4.226020452E+02  1.250000000E+02  0.00000E+00  9.000E+00
      25     1     1     2     0     0 -3.986541915E+02 -2.050278728E+01 -1.392476726E+02  4.408632928E+02  1.250000000E+02  0.00000E+00  9.000E+00
      21     1     1     2   501   511  5.592861690E+00 -8.597208645E+00  3.880995597E+00  1.096604875E+01  7.300048300E-08  0.00000E+00  9.000E+00
#rwgt            1           1   2.8409995006257866E-002           6      323164           0
</event>
<event>
      5   9999  3.19816E-02  6.59175E+01 -1.00000E+00  1.32556E-01
      21    -1     0     0   502   512  0.000000000E+00  0.000000000E+00  8.876433574E+01  8.876433574E+01  0.000000000E+00  0.00000E+00  9.000E+00
      21    -1     0     0   501   502  0.000000000E+00  0.000000000E+00 -1.777923663E+03  1.777923663E+03  0.000000000E+00  0.00000E+00  9.000E+00
      25     1     1     2     0     0 -2.509513322E+02 -1.957640399E+02 -1.274194225E+03  1.319278611E+03  1.250000000E+02  0.00000E+00  9.000E+00
      25     1     1     2     0     0  2.251216620E+02  1.351179910E+02 -3.292819539E+02  4.393042674E+02  1.250000000E+02  0.00000E+00  9.000E+00
      21     1     1     2   501   512  2.582967021E+01  6.064604884E+01 -8.568314783E+01  1.081051198E+02  2.132480600E-06  0.00000E+00  9.000E+00
#rwgt            1           1   2.7452062999759479E-002           6      323432           0
</event>
<event>
      5   9999  3.19816E-02  2.09400E+01 -1.00000E+00  1.64740E-01
      21    -1     0     0   502   511  0.000000000E+00  0.000000000E+00  1.947430033E+02  1.947430033E+02  0.000000000E+00  0.00000E+00  9.000E+00
      21    -1     0     0   501   502  0.000000000E+00  0.000000000E+00 -6.964797098E+02  6.964797098E+02  0.000000000E+00  0.00000E+00  9.000E+00
      25     1     1     2     0     0  4.823739882E+01 -1.364231769E+02  7.676594715E+01  2.060488789E+02  1.250000000E+02  0.00000E+00  9.000E+00
      25     1     1     2     0     0 -6.656065503E+01  1.465593515E+02 -6.123493518E+02  6.453732974E+02  1.250000000E+02  0.00000E+00  9.000E+00
      21     1     1     2   501   511  1.832325621E+01 -1.013617458E+01  3.384669819E+01  3.980053682E+01  6.743495762E-07  0.00000E+00  9.000E+00
#rwgt            1           1   2.6888948667933999E-002           6      323528           0
</event>
<event>
      5   9999  3.19816E-02  4.46475E+01 -1.00000E+00  1.41940E-01
      21    -1     0     0   502   512  0.000000000E+00  0.000000000E+00  1.726176415E+03  1.726176415E+03  0.000000000E+00  0.00000E+00  9.000E+00
      21    -1     0     0   501   502  0.000000000E+00  0.000000000E+00 -2.590047317E+02  2.590047317E+02  0.000000000E+00  0.00000E+00  9.000E+00
      25     1     1     2     0     0 -1.963960257E+02 -5.385086266E+02  6.992148295E+02  9.127372665E+02  1.250000000E+02  0.00000E+00  9.000E+00
      25     1     1     2     0     0  1.986665588E+02  5.830983356E+02  5.066101931E+02  8.073109427E+02  1.250000000E+02  0.00000E+00  9.000E+00
      21     1     1     2   501   512 -2.270533084E+00 -4.458970904E+01  2.613466608E+02  2.651329375E+02  0.000000000E+00  0.00000E+00  9.000E+00
#rwgt            1           1   3.0528808040728425E-002           6      323694           0
</event>
<event>
      5   9999  3.19816E-02  3.47444E+01 -1.00000E+00  1.48739E-01
      21    -1     0     0   502   501  0.000000000E+00  0.000000000E+00  4.649863860E+02  4.649863860E+02  0.000000000E+00  0.00000E+00  9.000E+00
      21    -1     0     0   511   502  0.000000000E+00  0.000000000E+00 -4.034886113E+02  4.034886113E+02  0.000000000E+00  0.00000E+00  9.000E+00
      25     1     1     2     0     0 -1.030918322E+01  2.715274887E+02 -2.125345067E+02  3.669187552E+02  1.250000000E+02  0.00000E+00  9.000E+00
      25     1     1     2     0     0  1.096257316E+01 -3.062657902E+02  3.086152018E+02  4.525342584E+02  1.250000000E+02  0.00000E+00  9.000E+00
      21     1     1     2   511   501 -6.533899397E-01  3.473830145E+01 -3.458292037E+01  4.902198372E+01  8.259061849E-07  0.00000E+00  9.000E+00
#rwgt            1           1   2.9730424365224668E-002           6      323819           0
</event>
<event>
      5   9999  3.19816E-02  5.50297E+01 -1.00000E+00  1.36741E-01
      21    -1     0     0   502   512  0.000000000E+00  0.000000000E+00  5.684218768E+02  5.684218768E+02  0.000000000E+00  0.00000E+00  9.000E+00
      21    -1     0     0   501   502  0.000000000E+00  0.000000000E+00 -7.646908556E+02  7.646908556E+02  0.000000000E+00  0.00000E+00  9.000E+00
      25     1     1     2     0     0 -3.326260964E+02 -1.887094375E+02  4.077140470E+02  5.728063511E+02  1.250000000E+02  0.00000E+00  9.000E+00
      25     1     1     2     0     0  3.141170778E+02  1.368858655E+02 -6.036401502E+02  7.052756268E+02  1.250000000E+02  0.00000E+00  9.000E+00
      21     1     1     2   501   512  1.850901854E+01  5.182357195E+01 -3.428756023E-01  5.503075450E+01  9.053451847E-07  0.00000E+00  9.000E+00
#rwgt            1           1   3.3379246101782355E-002           6      323951           0
</event>
<event>
      5   9999  3.19816E-02  1.01111E+02 -1.00000E+00  1.23613E-01
      21    -1     0     0   502   501  0.000000000E+00  0.000000000E+00  6.698289978E+02  6.698289978E+02  0.000000000E+00  0.00000E+00  9.000E+00
      21    -1     0     0   511   502  0.000000000E+00  0.000000000E+00 -4.313962938E+02  4.313962938E+02  0.000000000E+00  0.00000E+00  9.000E+00
      25     1     1     2     0     0 -1.248613856E+02 -4.822561019E+02  2.101169982E+02  5.549193332E+02  1.250000000E+02  0.00000E+00  9.000E+00
      25     1     1     2     0     0  1.193335949E+02  3.812967685E+02  8.954432492E+01  4.281015284E+02  1.250000000E+02  0.00000E+00  9.000E+00
      21     1     1     2   511   501  5.527790723E+00  1.009593335E+02 -6.122861909E+01  1.182044300E+02  2.023048729E-06  0.00000E+00  9.000E+00
#rwgt            1           1   2.6638147233595651E-002           6      324124           0
</event>
<event>
      5   9999  3.19816E-02  3.05238E+01 -1.00000E+00  1.52520E-01
      21    -1     0     0   502   501  0.000000000E+00  0.000000000E+00  4.149793107E+02  4.149793107E+02  0.000000000E+00  0.00000E+00  9.000E+00
      21    -1     0     0   501   512  0.000000000E+00  0.000000000E+00 -1.094971652E+02  1.094971652E+02  0.000000000E+00  0.00000E+00  9.000E+00
      25     1     1     2     0     0  2.107085122E+01  5.991596381E+01  2.259649212E+01  1.420193823E+02  1.250000000E+02  0.00000E+00  9.000E+00
      25     1     1     2     0     0 -2.891231156E+01 -8.941537569E+01  3.063498704E+02  3.439567913E+02  1.250000000E+02  0.00000E+00  9.000E+00
      21     1     1     2   502   512  7.841460340E+00  2.949941188E+01 -2.346421707E+01  3.850030239E+01  5.840038640E-07  0.00000E+00  9.000E+00
#rwgt            1           1   3.0205489240240413E-002           6      324236           0
</event>
<event>
      5   9999  3.19816E-02  1.65738E+02 -1.00000E+00  1.14702E-01
      21    -1     0     0   502   501  0.000000000E+00  0.000000000E+00  4.336313734E+02  4.336313734E+02  0.000000000E+00  0.00000E+00  9.000E+00
      21    -1     0     0   511   502  0.000000000E+00  0.000000000E+00 -2.380906511E+02  2.380906511E+02  0.000000000E+00  0.00000E+00  9.000E+00
      25     1     1     2     0     0 -5.751565829E+01  3.241944878E+01 -8.924660983E-01  1.413678468E+02  1.250000000E+02  0.00000E+00  9.000E+00
      25     1     1     2     0     0  1.067826419E+02  1.258263742E+02  2.772063935E+02  3.459814932E+02  1.250000000E+02  0.00000E+00  9.000E+00
      21     1     1     2   511   501 -4.926698359E+01 -1.582458230E+02 -8.077320509E+01  1.843726846E+02  2.132480600E-06  0.00000E+00  9.000E+00
#rwgt            2          11   4.2613325334769515E-003           6      324443           0
</event>
<event>
      5   9999  3.19816E-02  6.29395E+01 -1.00000E+00  1.33603E-01
       2    -1     0     0   502     0  0.000000000E+00  0.000000000E+00  6.382867920E+02  6.382867920E+02  0.000000000E+00  0.00000E+00  9.000E+00
      21    -1     0     0   501   502  0.000000000E+00  0.000000000E+00 -9.511538181E+02  9.511538181E+02  0.000000000E+00  0.00000E+00  9.000E+00
      25     1     1     2     0     0  2.532878001E+02  6.343874386E+01 -3.002702380E+01  2.910426190E+02  1.250000000E+02  0.00000E+00  9.000E+00
      25     1     1     2     0     0 -2.808845639E+02 -6.872023191E+00 -7.585643992E+02  8.185281368E+02  1.250000000E+02  0.00000E+00  9.000E+00
       2     1     1     2   501     0  2.759676378E+01 -5.656672067E+01  4.757243969E+02  4.798698543E+02  9.344061824E-06  0.00000E+00  9.000E+00
#rwgt            1           1   2.7102827622065010E-002           6      324463           0
</event>
<event>
      5   9999  3.19816E-02  3.91524E+01 -1.00000E+00  1.45419E-01
      21    -1     0     0   502   501  0.000000000E+00  0.000000000E+00  5.841511255E+01  5.841511255E+01  0.000000000E+00  0.00000E+00  9.000E+00
      21    -1     0     0   511   502  0.000000000E+00  0.000000000E+00 -4.714815742E+03  4.714815742E+03  0.000000000E+00  0.00000E+00  9.000E+00
      25     1     1     2     0     0 -2.436763762E+02 -1.523442672E+02 -1.418059871E+03  1.452276058E+03  1.250000000E+02  0.00000E+00  9.000E+00
      25     1     1     2     0     0  2.281120993E+02  1.164184319E+02 -4.519953875E+02  5.343343630E+02  1.250000000E+02  0.00000E+00  9.000E+00
      21     1     1     2   511   501  1.556427683E+01  3.592583531E+01 -2.786345371E+03  2.786620433E+03  3.051757812E-05  0.00000E+00  9.000E+00
#rwgt            1           1   2.2891686701479504E-002           6      324558           0
</event>
<event>
      5   9999  3.19816E-02  1.86469E+01 -1.00000E+00  1.68919E-01
      21    -1     0     0   502   501  0.000000000E+00  0.000000000E+00  9.429761896E+02  9.429761896E+02  0.000000000E+00  0.00000E+00  9.000E+00
      21    -1     0     0   512   502  0.000000000E+00  0.000000000E+00 -5.076374029E+02  5.076374029E+02  0.000000000E+00  0.00000E+00  9.000E+00
      25     1     1     2     0     0  6.459722499E+02 -1.000300163E+02  1.493520250E+02  6.820683097E+02  1.250000000E+02  0.00000E+00  9.000E+00
      25     1     1     2     0     0 -6.610215452E+02  8.901976941E+01  3.031191404E+02  7.432228575E+02  1.250000000E+02  0.00000E+00  9.000E+00
      21     1     1     2   512   501  1.504929535E+01  1.101024689E+01 -1.713237858E+01  2.532242530E+01  3.371747881E-07  0.00000E+00  9.000E+00
#rwgt            1           1   2.2587837749054034E-002           6      324660           0
</event>
<event>
      5   9999  3.19816E-02  1.63215E+02 -1.00000E+00  1.14959E-01
      21    -1     0     0   511   501  0.000000000E+00  0.000000000E+00  2.570599900E+02  2.570599900E+02  0.000000000E+00  0.00000E+00  9.000E+00
      21    -1     0     0   501   502  0.000000000E+00  0.000000000E+00 -7.748823936E+02  7.748823936E+02  0.000000000E+00  0.00000E+00  9.000E+00
      25     1     1     2     0     0 -2.391035703E+02 -2.150616738E+02 -2.409517448E+02  4.208381924E+02  1.250000000E+02  0.00000E+00  9.000E+00
      25     1     1     2     0     0  1.574504897E+02  7.373951292E+01 -3.668178257E+02  4.247452056E+02  1.250000000E+02  0.00000E+00  9.000E+00
      21     1     1     2   511   502  8.165308055E+01  1.413221609E+02  8.994716678E+01  1.863589856E+02  3.438521648E-06  0.00000E+00  9.000E+00
#rwgt            2          11   4.0635014207417415E-003           6      324926           0
</event>
<event>
      5   9999  3.19816E-02  7.78669E+01 -1.00000E+00  1.28920E-01
      21    -1     0     0   502   501  0.000000000E+00  0.000000000E+00  7.746138788E+02  7.746138788E+02  0.000000000E+00  0.00000E+00  9.000E+00
      21    -1     0     0   501   512  0.000000000E+00  0.000000000E+00 -4.385340836E+02  4.385340836E+02  0.000000000E+00  0.00000E+00  9.000E+00
      25     1     1     2     0     0  1.101287336E+02  3.379251823E+02  4.824366959E+02  6.121208479E+02  1.250000000E+02  0.00000E+00  9.000E+00
      25     1     1     2     0     0 -7.668815212E+01 -2.676046579E+02  1.166855304E+02  3.267014518E+02  1.250000000E+02  0.00000E+00  9.000E+00
      21     1     1     2   502   512 -3.344058153E+01 -7.032052440E+01 -2.630424311E+02  2.743256627E+02  3.814697266E-06  0.00000E+00  9.000E+00
#rwgt            1           1   2.6746411107289373E-002           6      324946           0
</event>
<event>
      5   9999  3.19816E-02  4.21226E+01 -1.00000E+00  1.43461E-01
      21    -1     0     0   502   501  0.000000000E+00  0.000000000E+00  3.258937325E+01  3.258937325E+01  0.000000000E+00  0.00000E+00  9.000E+00
      21    -1     0     0   501   511  0.000000000E+00  0.000000000E+00 -1.294333730E+03  1.294333730E+03  0.000000000E+00  0.00000E+00  9.000E+00
      25     1     1     2     0     0  6.355178258E+01 -9.883752897E+01 -3.950043830E+02  4.306520043E+02  1.250000000E+02  0.00000E+00  9.000E+00
      25     1     1     2     0     0 -1.046405969E+02  8.956288894E+01 -7.139787720E+02  7.378088184E+02  1.250000000E+02  0.00000E+00  9.000E+00
      21     1     1     2   502   511  4.108881429E+01  9.274640031E+00 -1.527612014E+02  1.584622802E+02  2.697398305E-06  0.00000E+00  9.000E+00
#rwgt            1           1   2.7613618689109696E-002           6      325024           0
</event>
<event>
      5   9999  3.19816E-02  1.21735E+02 -1.00000E+00  1.20104E-01
      21    -1     0     0   502   501  0.000000000E+00  0.000000000E+00  3.699731243E+02  3.699731243E+02  0.000000000E+00  0.00000E+00  9.000E+00
      -5    -1     0     0     0   502  0.000000000E+00  0.000000000E+00 -3.752385377E+02  3.752385377E+02  0.000000000E+00  0.00000E+00  9.000E+00
      25     1     1     2     0     0 -1.264395749E+02 -1.910422034E+02  2.397817459E+01  2.620764057E+02  1.250000000E+02  0.00000E+00  9.000E+00
      25     1     1     2     0     0  3.917873958E+01  2.759243468E+02  8.409588122E+01  3.168064646E+02  1.250000000E+02  0.00000E+00  9.000E+00
      -5     1     1     2     0   501  8.726083527E+01 -8.488214334E+01 -1.133394692E+02  1.663287916E+02  2.697398305E-06  0.00000E+00  9.000E+00
#rwgt            1           1   2.3430192000033438E-002           6      325099           0
</event>
<event>
      5   9999  3.19816E-02  1.41151E+02 -1.00000E+00  1.17450E-01
      21    -1     0     0   502   501  0.000000000E+00  0.000000000E+00  8.086741390E+02  8.086741390E+02  0.000000000E+00  0.00000E+00  9.000E+00
      21    -1     0     0   501   511  0.000000000E+00  0.000000000E+00 -1.963708938E+02  1.963708938E+02  0.000000000E+00  0.00000E+00  9.000E+00
      25     1     1     2     0     0  3.668352062E+01  1.411671573E+02 -4.057810374E+01  1.963298996E+02  1.250000000E+02  0.00000E+00  9.000E+00
      25     1     1     2     0     0  2.734351275E+01 -2.669614521E+02  5.768712306E+02  6.483991836E+02  1.250000000E+02  0.00000E+00  9.000E+00
      21     1     1     2   502   511 -6.402703337E+01  1.257942948E+02  7.601011827E+01  1.603159496E+02  1.348699152E-06  0.00000E+00  9.000E+00
#rwgt            1           1   2.7158522838619012E-002           6      325180           0
</event>
<event>
      5   9999  3.19816E-02  1.75760E+02 -1.00000E+00  1.13730E-01
      21    -1     0     0   502   501  0.000000000E+00  0.000000000E+00  3.164755128E+02  3.164755128E+02  0.000000000E+00  0.00000E+00  9.000E+00
       2    -1     0     0   501     0  0.000000000E+00  0.000000000E+00 -3.679861579E+03  3.679861579E+03  0.000000000E+00  0.00000E+00  9.000E+00
      25     1     1     2     0     0  4.207351643E+02  3.226432654E+02 -1.853935666E+02  5.754237828E+02  1.250000000E+02  0.00000E+00  9.000E+00
      25     1     1     2     0     0 -3.610620010E+02 -4.879635451E+02 -6.929617873E+02  9.296747972E+02  1.250000000E+02  0.00000E+00  9.000E+00
       2     1     1     2   502     0 -5.967316329E+01  1.653202797E+02 -2.485030712E+03  2.491238512E+03  0.000000000E+00  0.00000E+00  9.000E+00
#rwgt            1           1   2.5878740432102379E-002           6      325260           0
</event>
<event>
      5   9999  3.19816E-02  5.37718E+01 -1.00000E+00  1.37297E-01
      21    -1     0     0   502   501  0.000000000E+00  0.000000000E+00  1.637752411E+02  1.637752411E+02  0.000000000E+00  0.00000E+00  9.000E+00
      21    -1     0     0   501   511  0.000000000E+00  0.000000000E+00 -5.466939978E+02  5.466939978E+02  0.000000000E+00  0.00000E+00  9.000E+00
      25     1     1     2     0     0 -1.015862861E+02  4.339917960E+01 -1.753788094E+02  2.420454277E+02  1.250000000E+02  0.00000E+00  9.000E+00
      25     1     1     2     0     0  6.689487500E+01 -2.314993303E+00  8.876075733E+01  1.672834586E+02  1.250000000E+02  0.00000E+00  9.000E+00
      21     1     1     2   502   511  3.469141109E+01 -4.108418630E+01 -2.963007046E+02  3.011403525E+02  0.000000000E+00  0.00000E+00  9.000E+00
#rwgt            1           1   2.8534902262778970E-002           6      325295           0
</event>
<event>
      5   9999  3.19816E-02  1.06417E+02 -1.00000E+00  1.22625E-01
      21    -1     0     0   502   512  0.000000000E+00  0.000000000E+00  4.015171770E+02  4.015171770E+02  0.000000000E+00  0.00000E+00  9.000E+00
      21    -1     0     0   501   502  0.000000000E+00  0.000000000E+00 -3.512469003E+02  3.512469003E+02  0.000000000E+00  0.00000E+00  9.000E+00
      25     1     1     2     0     0  1.731079804E+02  1.247797413E+02 -2.339851964E+02  3.404562070E+02  1.250000000E+02  0.00000E+00  9.000E+00
      25     1     1     2     0     0 -1.383669939E+02 -2.419305362E+01  2.135975946E+02  2.845692557E+02  1.250000000E+02  0.00000E+00  9.000E+00
      21     1     1     2   501   512 -3.474098655E+01 -1.005866877E+02  7.065787855E+01  1.277386147E+02  9.536743164E-07  0.00000E+00  9.000E+00
#rwgt            1           1   2.7740401716371814E-002           6      325422           0
</event>
<event>
      5   9999  3.19816E-02  2.16728E+01 -1.00000E+00  1.63541E-01
      21    -1     0     0   502   511  0.000000000E+00  0.000000000E+00  6.231167515E+02  6.231167515E+02  0.000000000E+00  0.00000E+00  9.000E+00
      21    -1     0     0   501   502  0.000000000E+00  0.000000000E+00 -1.721571403E+02  1.721571403E+02  0.000000000E+00  0.00000E+00  9.000E+00
      25     1     1     2     0     0  3.735279889E+01 -1.176227969E+02  5.716736474E+01  1.847253679E+02  1.250000000E+02  0.00000E+00  9.000E+00
      25     1     1     2     0     0 -5.897985049E+01  1.162148603E+02 -3.268988818E+01  1.835160628E+02  1.250000000E+02  0.00000E+00  9.000E+00
      21     1     1     2   501   511  2.162705160E+01  1.407936685E+00  4.264821346E+02  4.270324611E+02  5.394796609E-06  0.00000E+00  9.000E+00
#rwgt            1           1   3.0371886733528215E-002           6      325492           0
</event>
<event>
      5   9999  3.19816E-02  3.63368E+01 -1.00000E+00  1.47476E-01
      21    -1     0     0   512   501  0.000000000E+00  0.000000000E+00  2.374791137E+02  2.374791137E+02  0.000000000E+00  0.00000E+00  9.000E+00
      21    -1     0     0   501   502  0.000000000E+00  0.000000000E+00 -4.038239816E+02  4.038239816E+02  0.000000000E+00  0.00000E+00  9.000E+00
      25     1     1     2     0     0  2.093594418E+02 -2.399635801E+01  8.076397111E+01  2.579825965E+02  1.250000000E+02  0.00000E+00  9.000E+00
      25     1     1     2     0     0 -1.943917935E+02 -9.114566341E+00 -2.569087967E+02  3.456853692E+02  1.250000000E+02  0.00000E+00  9.000E+00
      21     1     1     2   512   502 -1.496764832E+01  3.311092435E+01  9.799957603E+00  3.763512955E+01  2.665600750E-07  0.00000E+00  9.000E+00
#rwgt            1           1   2.7343965977228154E-002           6      325673           0
</event>
<event>
      5   9999  3.19816E-02  5.86920E+01 -1.00000E+00  1.35217E-01
      21    -1     0     0   511   501  0.000000000E+00  0.000000000E+00  1.067448992E+03  1.067448992E+03  0.000000000E+00  0.00000E+00  9.000E+00
      21    -1     0     0   501   502  0.000000000E+00  0.000000000E+00 -5.380903168E+02  5.380903168E+02  0.000000000E+00  0.00000E+00  9.000E+00
      25     1     1     2     0     0 -1.609635091E+02 -9.239692321E+01  8.358781030E+02  8.653112999E+02  1.250000000E+02  0.00000E+00  9.000E+00
      25     1     1     2     0     0  1.320265360E+02  1.434596560E+02 -4.930218763E+02  5.447084078E+02  1.250000000E+02  0.00000E+00  9.000E+00
      21     1     1     2   511   502  2.893697309E+01 -5.106273281E+01  1.865024482E+02  1.955196008E+02  0.000000000E+00  0.00000E+00  9.000E+00
#rwgt            1           1   2.9506319864276154E-002           6      325788           0
</event>
<event>
      5   9999  3.19816E-02  5.10081E+01 -1.00000E+00  1.38583E-01
      21    -1     0     0   502   512  0.000000000E+00  0.000000000E+00  1.188094477E+02  1.188094477E+02  0.000000000E+00  0.00000E+00  9.000E+00
      21    -1     0     0   501   502  0.000000000E+00  0.000000000E+00 -2.045579077E+03  2.045579077E+03  0.000000000E+00  0.00000E+00  9.000E+00
      25     1     1     2     0     0 -1.395957881E+02 -2.275438130E+02 -1.525515247E+03  1.553732583E+03  1.250000000E+02  0.00000E+00  9.000E+00
      25     1     1     2     0     0  1.025925423E+02  2.626520022E+02 -4.463621720E+02  5.425638143E+02  1.250000000E+02  0.00000E+00  9.000E+00
      21     1     1     2   501   512  3.700324583E+01 -3.510818925E+01  4.510778949E+01  6.809212750E+01  1.261592536E-06  0.00000E+00  9.000E+00
#rwgt            1           1   3.0229101801385924E-002           6      325909           0
</event>
<event>
      5   9999  3.19816E-02  4.19838E+02 -1.00000E+00  1.01057E-01
      21    -1     0     0   502   501  0.000000000E+00  0.000000000E+00  1.533104232E+03  1.533104232E+03  0.000000000E+00  0.00000E+00  9.000E+00
      21    -1     0     0   501   511  0.000000000E+00  0.000000000E+00 -6.045514515E+02  6.045514515E+02  0.000000000E+00  0.00000E+00  9.000E+00
      25     1     1     2     0     0 -1.639219217E+01  2.975901350E+02  9.803144037E+01  3.377332612E+02  1.250000000E+02  0.00000E+00  9.000E+00
      25     1     1     2     0     0 -1.083789417E+01 -7.165446490E+02  1.086989289E+03  1.307946639E+03  1.250000000E+02  0.00000E+00  9.000E+00
      21     1     1     2   502   511  2.723008634E+01  4.189545140E+02 -2.564679496E+02  4.919757835E+02  5.394796609E-06  0.00000E+00  9.000E+00
#rwgt            2          11   3.3955583071339462E-003           6      326149           0
</event>
<event>
      5   9999  3.19816E-02  1.05351E+02 -1.00000E+00  1.22818E-01
      21    -1     0     0   502   512  0.000000000E+00  0.000000000E+00  1.147658210E+03  1.147658210E+03  0.000000000E+00  0.00000E+00  9.000E+00
      21    -1     0     0   501   502  0.000000000E+00  0.000000000E+00 -1.508281997E+03  1.508281997E+03  0.000000000E+00  0.00000E+00  9.000E+00
      25     1     1     2     0     0  2.549158274E+01 -1.189394220E+03  1.153494980E+01  1.196271911E+03  1.250000000E+02  0.00000E+00  9.000E+00
      25     1     1     2     0     0  5.612763852E+01  1.256006246E+03 -4.358955654E+02  1.336537297E+03  1.250000000E+02  0.00000E+00  9.000E+00
      21     1     1     2   501   512 -8.161922126E+01 -6.661202655E+01  6.373682825E+01  1.231309979E+02  9.536743164E-07  0.00000E+00  9.000E+00
#rwgt            1           1   6.9322723613277071E-002           6      326169           0
</event>
<event>
      5   9999  3.19816E-02  3.14480E+01 -1.00000E+00  1.51631E-01
      21    -1     0     0   502   511  0.000000000E+00  0.000000000E+00  2.313498505E+02  2.313498505E+02  0.000000000E+00  0.00000E+00  9.000E+00
      21    -1     0     0   501   502  0.000000000E+00  0.000000000E+00 -7.474284912E+02  7.474284912E+02  0.000000000E+00  0.00000E+00  9.000E+00
      25     1     1     2     0     0 -2.179515191E+02 -8.899958056E+00 -1.366046702E+02  2.861256889E+02  1.250000000E+02  0.00000E+00  9.000E+00
      25     1     1     2     0     0  1.980925734E+02 -1.548442670E+01 -5.083829899E+02  5.599631233E+02  1.250000000E+02  0.00000E+00  9.000E+00
      21     1     1     2   501   511  1.985894571E+01  2.438438476E+01  1.289090194E+02  1.326895295E+02  2.697398305E-06  0.00000E+00  9.000E+00
#rwgt            1           1   2.7853374461380302E-002           6      326333           0
</event>
<event>
      5   9999  3.19816E-02  6.70953E+01 -1.00000E+00  1.32160E-01
      21    -1     0     0   502   501  0.000000000E+00  0.000000000E+00  5.889386014E+02  5.889386014E+02  0.000000000E+00  0.00000E+00  9.000E+00
      21    -1     0     0   512   502  0.000000000E+00  0.000000000E+00 -1.064966264E+03  1.064966264E+03  0.000000000E+00  0.00000E+00  9.000E+00
      25     1     1     2     0     0 -1.288723989E+02  2.272560718E+02  5.303759546E+02  6.042988256E+02  1.250000000E+02  0.00000E+00  9.000E+00
      25     1     1     2     0     0  9.720778142E+01 -1.681025903E+02 -7.793157142E+02  8.128135186E+02  1.250000000E+02  0.00000E+00  9.000E+00
      21     1     1     2   512   501  3.166461752E+01 -5.915348154E+01 -2.270879027E+02  2.367925208E+02  2.697398305E-06  0.00000E+00  9.000E+00
#rwgt            1           1   2.9246952997686107E-002           6      326443           0
</event>
<event>
      5   9999  3.19816E-02  1.30464E+01 -1.00000E+00  1.83290E-01
      21    -1     0     0   502   511  0.000000000E+00  0.000000000E+00  1.545769705E+03  1.545769705E+03  0.000000000E+00  0.00000E+00  9.000E+00
      21    -1     0     0   501   502  0.000000000E+00  0.000000000E+00 -8.399409263E+01  8.399409263E+01  0.000000000E+00  0.00000E+00  9.000E+00
      25     1     1     2     0     0  7.310589946E+00  3.453941200E+01 -1.466086197E+01  1.307147910E+02  1.250000000E+02  0.00000E+00  9.000E+00
      25     1     1     2     0     0  5.598830447E+00 -3.642495974E+01  3.655331489E+02  3.880690757E+02  1.250000000E+02  0.00000E+00  9.000E+00
      21     1     1     2   501   511 -1.290942039E+01  1.885547735E+00  1.110903325E+03  1.110979931E+03  0.000000000E+00  0.00000E+00  9.000E+00
#rwgt            1           1   2.8517447038402380E-002           6      326592           0
</event>
<event>
      5   9999  3.19816E-02  3.25638E+02 -1.00000E+00  1.04448E-01
      21    -1     0     0   502   501  0.000000000E+00  0.000000000E+00  4.911708555E+02  4.911708555E+02  0.000000000E+00  0.00000E+00  9.000E+00
       2    -1     0     0   501     0  0.000000000E+00  0.000000000E+00 -1.040783151E+03  1.040783151E+03  0.000000000E+00  0.00000E+00  9.000E+00
      25     1     1     2     0     0  1.209696810E+02 -1.301146049E+02  1.988863031E+02  2.945237438E+02  1.250000000E+02  0.00000E+00  9.000E+00
      25     1     1     2     0     0 -4.038993322E+02  2.913313820E+02 -1.165477717E+02  5.265140338E+02  1.250000000E+02  0.00000E+00  9.000E+00
       2     1     1     2   502     0  2.829296512E+02 -1.612167771E+02 -6.319508270E+02  7.109162289E+02  7.629394531E-06  0.00000E+00  9.000E+00
#rwgt            2          13   1.2105759290498234E-003           6      326740           0
</event>
<event>
      5   9999  3.19816E-02  8.62361E+01 -1.00000E+00  1.26791E-01
      21    -1     0     0   502   501  0.000000000E+00  0.000000000E+00  4.171418430E+02  4.171418430E+02  0.000000000E+00  0.00000E+00  9.000E+00
      21    -1     0     0   511   502  0.000000000E+00  0.000000000E+00 -3.087916566E+02  3.087916566E+02  0.000000000E+00  0.00000E+00  9.000E+00
      25     1     1     2     0     0 -7.492507860E+01 -1.678029013E+02 -1.564163273E+02  2.717768359E+02  1.250000000E+02  0.00000E+00  9.000E+00
      25     1     1     2     0     0  1.037306655E+02  8.652002965E+01  3.071508813E+02  3.580676338E+02  1.250000000E+02  0.00000E+00  9.000E+00
      21     1     1     2   511   501 -2.880558687E+01  8.128287162E+01 -4.238436769E+01  9.608902995E+01  2.431401974E-06  0.00000E+00  9.000E+00
#rwgt            2          11   3.0476623740049139E-003           6      326849           0
</event>
<event>
      5   9999  3.19816E-02  2.12197E+02 -1.00000E+00  1.10720E-01
      21    -1     0     0   502   501  0.000000000E+00  0.000000000E+00  8.972847473E+02  8.972847473E+02  0.000000000E+00  0.00000E+00  9.000E+00
      21    -1     0     0   512   502  0.000000000E+00  0.000000000E+00 -6.320495129E+02  6.320495129E+02  0.000000000E+00  0.00000E+00  9.000E+00
      25     1     1     2     0     0  3.851434445E+02 -1.862939906E+02  5.406687309E+02  7.007057873E+02  1.250000000E+02  0.00000E+00  9.000E+00
      25     1     1     2     0     0 -1.915079904E+02  9.950084505E+01  1.923545165E+02  3.149618843E+02  1.250000000E+02  0.00000E+00  9.000E+00
      21     1     1     2   512   501 -1.936354540E+02  8.679314553E+01 -4.677880130E+02  5.136665886E+02  9.344061824E-06  0.00000E+00  9.000E+00
#rwgt            1           1   2.9355597567375328E-002           6      326869           0
</event>
<event>
      5   9999  3.19816E-02  2.59875E+02 -1.00000E+00  1.07658E-01
      21    -1     0     0   502   501  0.000000000E+00  0.000000000E+00  8.496770234E+02  8.496770234E+02  0.000000000E+00  0.00000E+00  9.000E+00
      21    -1     0     0   501   511  0.000000000E+00  0.000000000E+00 -2.026794793E+03  2.026794793E+03  0.000000000E+00  0.00000E+00  9.000E+00
      25     1     1     2     0     0 -6.764378938E+02 -2.433675794E+02 -1.068859824E+03  1.294172448E+03  1.250000000E+02  0.00000E+00  9.000E+00
      25     1     1     2     0     0  5.331263703E+02  2.658019084E+01  6.090011749E+02  8.194129998E+02  1.250000000E+02  0.00000E+00  9.000E+00
      21     1     1     2   502   511  1.433115235E+02  2.167873886E+02 -7.172591212E+02  7.628863687E+02  7.629394531E-06  0.00000E+00  9.000E+00
#rwgt            2          11   2.5267193600595375E-003           6      326963           0
</event>
<event>
      5   9999  3.19816E-02  3.91347E+01 -1.00000E+00  1.45432E-01
      21    -1     0     0   502   501  0.000000000E+00  0.000000000E+00  1.529943814E+02  1.529943814E+02  0.000000000E+00  0.00000E+00  9.000E+00
      21    -1     0     0   501   512  0.000000000E+00  0.000000000E+00 -1.540422730E+03  1.540422730E+03  0.000000000E+00  0.00000E+00  9.000E+00
      25     1     1     2     0     0 -1.116910707E+02  4.644868403E+01 -4.145786226E+02  4.495918258E+02  1.250000000E+02  0.00000E+00  9.000E+00
      25     1     1     2     0     0  7.297687130E+01 -4.072685960E+01  9.329959908E+01  1.769579499E+02  1.250000000E+02  0.00000E+00  9.000E+00
      21     1     1     2   502   512  3.871419942E+01 -5.721824428E+00 -1.066149326E+03  1.066867336E+03  0.000000000E+00  0.00000E+00  9.000E+00
#rwgt            1           1   2.8398486727750649E-002           6      327013           0
</event>
<event>
      5   9999  3.19816E-02  1.47714E+02 -1.00000E+00  1.16658E-01
      21    -1     0     0   502   501  0.000000000E+00  0.000000000E+00  1.603813931E+03  1.603813931E+03  0.000000000E+00  0.00000E+00  9.000E+00
       2    -1     0     0   501     0  0.000000000E+00  0.000000000E+00 -1.594466785E+02  1.594466785E+02  0.000000000E+00  0.00000E+00  9.000E+00
      25     1     1     2     0     0 -7.515889938E+01  1.986083991E+02  9.015148887E+02  9.345845339E+02  1.250000000E+02  0.00000E+00  9.000E+00
      25     1     1     2     0     0 -1.783133399E+01 -8.383737417E+01  6.361558404E+02  6.539617077E+02  1.250000000E+02  0.00000E+00  9.000E+00
       2     1     1     2   502     0  9.299023337E+01 -1.147710249E+02 -9.330347663E+01  1.747143681E+02  3.568322551E-06  0.00000E+00  9.000E+00
#rwgt            1           1   3.2516193296599376E-002           6      327123           0
</event>
<event>
      5   9999  3.19816E-02  5.79757E+01 -1.00000E+00  1.35505E-01
      21    -1     0     0   502   511  0.000000000E+00  0.000000000E+00  4.998883898E+02  4.998883898E+02  0.000000000E+00  0.00000E+00  9.000E+00
      21    -1     0     0   501   502  0.000000000E+00  0.000000000E+00 -1.162640018E+03  1.162640018E+03  0.000000000E+00  0.00000E+00  9.000E+00
      25     1     1     2     0     0 -4.543083804E+02 -4.286465058E+02 -7.665061496E+02  9.966396584E+02  1.250000000E+02  0.00000E+00  9.000E+00
      25     1     1     2     0     0  3.963837862E+02  4.310799521E+02  1.047513369E+02  6.079044938E+02  1.250000000E+02  0.00000E+00  9.000E+00
      21     1     1     2   501   511  5.792459422E+01 -2.433446242E+00 -9.968158830E-01  5.798425577E+01  7.498112694E-07  0.00000E+00  9.000E+00
#rwgt            1           1   2.5782726893301827E-002           6      327171           0
</event>
<event>
      5   9999  3.24883E-02  2.93147E+01 -1.00000E+00  1.53740E-01
      21    -1     0     0   502   501  0.000000000E+00  0.000000000E+00  2.197296183E+03  2.197296183E+03  0.000000000E+00  0.00000E+00  9.000E+00
      21    -1     0     0   512   502  0.000000000E+00  0.000000000E+00 -6.611834204E+01  6.611834204E+01  0.000000000E+00  0.00000E+00  9.000E+00
      25     1     1     2     0     0  1.176600463E+02  2.386163581E+01  1.310932093E+02  2.173101325E+02  1.250000000E+02  0.00000E+00  9.000E+00
      25     1     1     2     0     0 -1.443907837E+02 -1.182757600E+01  2.006905392E+03  2.016006657E+03  1.250000000E+02  0.00000E+00  9.000E+00
      21     1     1     2   512   501  2.673073741E+01 -1.203405981E+01 -6.820760004E+00  3.009773555E+01  5.840038640E-07  0.00000E+00  9.000E+00
#rwgt            1           1   8.6262821009912394E-002           6      327329           0
</event>
<event>
      5   9999  3.19816E-02  4.04680E+01 -1.00000E+00  1.44528E-01
      21    -1     0     0   502   501  0.000000000E+00  0.000000000E+00  3.150739394E+02  3.150739394E+02  0.000000000E+00  0.00000E+00  9.000E+00
      21    -1     0     0   511   502  0.000000000E+00  0.000000000E+00 -5.158919263E+02  5.158919263E+02  0.000000000E+00  0.00000E+00  9.000E+00
      25     1     1     2     0     0  1.971589572E+02  3.580252330E+01  1.216649186E+02  2.656705243E+02  1.250000000E+02  0.00000E+00  9.000E+00
      25     1     1     2     0     0 -1.644724061E+02 -5.966152863E+01  2.408794696E+01  2.163698213E+02  1.250000000E+02  0.00000E+00  9.000E+00
      21     1     1     2   511   501 -3.268655108E+01  2.385900533E+01 -3.465708525E+02  3.489255201E+02  3.814697266E-06  0.00000E+00  9.000E+00
#rwgt            1           1   3.3964078238318485E-002           6      327485           0
</event>
<event>
      5   9999  3.19816E-02  2.58220E+01 -1.00000E+00  1.57706E-01
      21    -1     0     0   502   501  0.000000000E+00  0.000000000E+00  1.788868769E+02  1.788868769E+02  0.000000000E+00  0.00000E+00  9.000E+00
      21    -1     0     0   512   502  0.000000000E+00  0.000000000E+00 -4.025957750E+02  4.025957750E+02  0.000000000E+00  0.00000E+00  9.000E+00
      25     1     1     2     0     0  1.715450256E+00  9.913852364E+01  1.157914528E+02  1.971396718E+02  1.250000000E+02  0.00000E+00  9.000E+00
      25     1     1     2     0     0 -1.375839753E+01 -7.629679530E+01 -3.193257640E+02  3.515742284E+02  1.250000000E+02  0.00000E+00  9.000E+00
      21     1     1     2   512   501  1.204294728E+01 -2.284172834E+01 -2.017458696E+01  3.276875176E+01  5.840038640E-07  0.00000E+00  9.000E+00
#rwgt            1           1   2.7754600479056920E-002           6      327547           0
</event>
<event>
      5   9999  3.19816E-02  1.02662E+02 -1.00000E+00  1.23317E-01
      21    -1     0     0   502   501  0.000000000E+00  0.000000000E+00  7.609808157E+02  7.609808157E+02  0.000000000E+00  0.00000E+00  9.000E+00
      21    -1     0     0   501   511  0.000000000E+00  0.000000000E+00 -1.554213706E+03  1.554213706E+03  0.000000000E+00  0.00000E+00  9.000E+00
      25     1     1     2     0     0  6.898702146E+02  4.333428117E+02 -8.707082037E+02  1.198943152E+03  1.250000000E+02  0.00000E+00  9.000E+00
      25     1     1     2     0     0 -7.866308901E+02 -4.676489077E+02  2.113828671E+02  9.475185352E+02  1.250000000E+02  0.00000E+00  9.000E+00
      21     1     1     2   502   511  9.676067548E+01  3.430609600E+01 -1.339075537E+02  1.687328346E+02  1.907348633E-06  0.00000E+00  9.000E+00
#rwgt            1           1   4.4081208511526235E-002           6      327688           0
</event>
<event>
      5   9999  3.19816E-02  3.91092E+01 -1.00000E+00  1.45449E-01
      21    -1     0     0   502   501  0.000000000E+00  0.000000000E+00  1.308609511E+03  1.308609511E+03  0.000000000E+00  0.00000E+00  9.000E+00
      21    -1     0     0   512   502  0.000000000E+00  0.000000000E+00 -3.290773279E+02  3.290773279E+02  0.000000000E+00  0.00000E+00  9.000E+00
      25     1     1     2     0     0 -5.064004742E+02 -1.530939812E+02  6.693731208E+02  8.623019089E+02  1.250000000E+02  0.00000E+00  9.000E+00
      25     1     1     2     0     0  4.680856163E+02  1.452518359E+02  4.208530745E+02  6.579852204E+02  1.250000000E+02  0.00000E+00  9.000E+00
      21     1     1     2   512   501  3.831485790E+01  7.842145296E+00 -1.106940119E+02  1.173997098E+02  3.814697266E-06  0.00000E+00  9.000E+00
#rwgt            1           1   3.4974425081018376E-002           6      327790           0
</event>
<event>
      5   9999  3.19816E-02  3.78296E+01 -1.00000E+00  1.46359E-01
      21    -1     0     0   502   511  0.000000000E+00  0.000000000E+00  8.653662607E+02  8.653662607E+02  0.000000000E+00  0.00000E+00  9.000E+00
      21    -1     0     0   501   502  0.000000000E+00  0.000000000E+00 -1.011069376E+03  1.011069376E+03  0.000000000E+00  0.00000E+00  9.000E+00
      25     1     1     2     0     0 -8.934731689E+02  1.226807722E+02 -2.403157301E+02  9.416589221E+02  1.250000000E+02  0.00000E+00  9.000E+00
      25     1     1     2     0     0  8.563259612E+02 -1.155276477E+02  4.751882956E+01  8.743705326E+02  1.250000000E+02  0.00000E+00  9.000E+00
      21     1     1     2   501   511  3.714720772E+01 -7.153124539E+00  4.709378513E+01  6.040618205E+01  6.743495762E-07  0.00000E+00  9.000E+00
#rwgt            1           1   3.3271884393429527E-002           6      327929           0
</event>
<event>
      5   9999  3.19816E-02  1.14656E+02 -1.00000E+00  1.21214E-01
      21    -1     0     0   502   501  0.000000000E+00  0.000000000E+00  8.935360327E+02  8.935360327E+02  0.000000000E+00  0.00000E+00  9.000E+00
      21    -1     0     0   501   512  0.000000000E+00  0.000000000E+00 -2.017249137E+02  2.017249137E+02  0.000000000E+00  0.00000E+00  9.000E+00
      25     1     1     2     0     0  1.972411528E+02 -1.673808355E+02  6.178701378E+02  6.814021746E+02  1.250000000E+02  0.00000E+00  9.000E+00
      25     1     1     2     0     0 -1.565370285E+02  6.019318881E+01  1.658257441E+02  2.669274034E+02  1.250000000E+02  0.00000E+00  9.000E+00
      21     1     1     2   502   512 -4.070412429E+01  1.071876467E+02 -9.188476293E+01  1.469313683E+02  2.697398305E-06  0.00000E+00  9.000E+00
#rwgt            1           1   2.8309049788016388E-002           6      328069           0
</event>
<event>
      5   9999  3.19816E-02  1.02237E+02 -1.00000E+00  1.23397E-01
       1    -1     0     0   502     0  0.000000000E+00  0.000000000E+00  2.301547847E+03  2.301547847E+03  0.000000000E+00  0.00000E+00  9.000E+00
      21    -1     0     0   501   502  0.000000000E+00  0.000000000E+00 -4.556145345E+01  4.556145345E+01  0.000000000E+00  0.00000E+00  9.000E+00
      25     1     1     2     0     0 -1.659147765E+02  1.413865952E+02  6.113229206E+02  6.609527938E+02  1.250000000E+02  0.00000E+00  9.000E+00
      25     1     1     2     0     0  6.726178404E+01 -1.682201656E+02  6.500701059E+02  6.863223108E+02  1.250000000E+02  0.00000E+00  9.000E+00
       1     1     1     2   501     0  9.865299244E+01  2.683357037E+01  9.945933667E+02  9.998341955E+02  1.078959322E-05  0.00000E+00  9.000E+00
#rwgt            1           1   2.5806853505955824E-002           6      328148           0
</event>
<event>
      5   9999  3.19816E-02  1.91834E+01 -1.00000E+00  1.67877E-01
      21    -1     0     0   511   501  0.000000000E+00  0.000000000E+00  4.352016035E+02  4.352016035E+02  0.000000000E+00  0.00000E+00  9.000E+00
      21    -1     0     0   501   502  0.000000000E+00  0.000000000E+00 -7.501889774E+02  7.501889774E+02  0.000000000E+00  0.00000E+00  9.000E+00
      25     1     1     2     0     0 -3.421356939E+01 -1.636520591E+02  1.195844872E+02  2.405784994E+02  1.250000000E+02  0.00000E+00  9.000E+00
      25     1     1     2     0     0  4.800703739E+01  1.769840200E+02 -6.714408948E+02  7.071675149E+02  1.250000000E+02  0.00000E+00  9.000E+00
      21     1     1     2   511   502 -1.379346800E+01 -1.333196092E+01  2.368690337E+02  2.376445666E+02  2.697398305E-06  0.00000E+00  9.000E+00
#rwgt            1           1   2.7661207999090956E-002           6      328261           0
</event>
<event>
      5   9999  3.19816E-02  1.23997E+02 -1.00000E+00  1.19767E-01
      21    -1     0     0   512   501  0.000000000E+00  0.000000000E+00  3.758138448E+02  3.758138448E+02  0.000000000E+00  0.00000E+00  9.000E+00
      21    -1     0     0   501   502  0.000000000E+00  0.000000000E+00 -2.791114200E+02  2.791114200E+02  0.000000000E+00  0.00000E+00  9.000E+00
      25     1     1     2     0     0  2.082587626E+01  1.217605493E+02  1.446558935E+02  2.276173895E+02  1.250000000E+02  0.00000E+00  9.000E+00
      25     1     1     2     0     0 -2.047019898E+01 -2.457568363E+02 -9.836464698E+01  2.934553721E+02  1.250000000E+02  0.00000E+00  9.000E+00
      21     1     1     2   512   502 -3.556772753E-01  1.239962870E+02  5.041117829E+01  1.338525031E+02  1.907348633E-06  0.00000E+00  9.000E+00
#rwgt            1           1   2.6780849472937109E-002           6      328454           0
</event>
<event>
      5   9999  3.19816E-02  5.12664E+02 -1.00000E+00  9.85444E-02
      21    -1     0     0   502   501  0.000000000E+00  0.000000000E+00  6.013494084E+02  6.013494084E+02  0.000000000E+00  0.00000E+00  9.000E+00
      21    -1     0     0   511   502  0.000000000E+00  0.000000000E+00 -7.639456449E+02  7.639456449E+02  0.000000000E+00  0.00000E+00  9.000E+00
      25     1     1     2     0     0  1.941155738E+01 -1.031702426E+02 -1.024572301E+02  1.927262087E+02  1.250000000E+02  0.00000E+00  9.000E+00
      25     1     1     2     0     0 -5.106028659E+02 -4.364919965E+01  2.388954948E+02  5.790652784E+02  1.250000000E+02  0.00000E+00  9.000E+00
      21     1     1     2   511   501  4.911913085E+02  1.468194423E+02 -2.990345011E+02  5.935035662E+02  3.814697266E-06  0.00000E+00  9.000E+00
#rwgt            1           1   2.7370229569128764E-002           6      328532           0
</event>
<event>
      5   9999  3.19816E-02  2.69381E+01 -1.00000E+00  1.56360E-01
      21    -1     0     0   502   501  0.000000000E+00  0.000000000E+00  3.664441295E+02  3.664441295E+02  0.000000000E+00  0.00000E+00  9.000E+00
       4    -1     0     0   501     0  0.000000000E+00  0.000000000E+00 -1.673070732E+02  1.673070732E+02  0.000000000E+00  0.00000E+00  9.000E+00
      25     1     1     2     0     0  1.182410752E+02 -6.455094123E+00 -4.380686546E+01  1.776700919E+02  1.250000000E+02  0.00000E+00  9.000E+00
      25     1     1     2     0     0 -1.395777339E+02 -9.988942000E+00  2.625909890E+02  3.227394464E+02  1.250000000E+02  0.00000E+00  9.000E+00
       4     1     1     2   502     0  2.133665872E+01  1.644403612E+01 -1.964706724E+01  3.334166433E+01  6.307962682E-07  0.00000E+00  9.000E+00
#rwgt            1           1   2.6103277360383564E-002           6      328562           0
</event>
<event>
      5   9999  3.19816E-02  2.70367E+01 -1.00000E+00  1.56245E-01
      21    -1     0     0   511   501  0.000000000E+00  0.000000000E+00  3.355307266E+02  3.355307266E+02  0.000000000E+00  0.00000E+00  9.000E+00
      21    -1     0     0   501   502  0.000000000E+00  0.000000000E+00 -1.992690542E+02  1.992690542E+02  0.000000000E+00  0.00000E+00  9.000E+00
      25     1     1     2     0     0  7.017845411E+01  1.257543373E+02  1.556098003E+02  2.461271597E+02  1.250000000E+02  0.00000E+00  9.000E+00
      25     1     1     2     0     0 -7.153848606E+01 -1.527567987E+02 -7.809688078E+01  2.240011547E+02  1.250000000E+02  0.00000E+00  9.000E+00
      21     1     1     2   511   502  1.360031952E+00  2.700246143E+01  5.874875278E+01  6.467146638E+01  9.536743164E-07  0.00000E+00  9.000E+00
#rwgt            1           1   2.7230056307837914E-002           6      328637           0
</event>
<event>
      5   9999  3.19816E-02  1.90888E+02 -1.00000E+00  1.12390E-01
      -3    -1     0     0     0   501  0.000000000E+00  0.000000000E+00  9.832084403E+02  9.832084403E+02  0.000000000E+00  0.00000E+00  9.000E+00
      21    -1     0     0   501   502  0.000000000E+00  0.000000000E+00 -4.480870412E+02  4.480870412E+02  0.000000000E+00  0.00000E+00  9.000E+00
      25     1     1     2     0     0  3.122890078E+02 -2.989243158E+02  2.035516732E+02  4.939012600E+02  1.250000000E+02  0.00000E+00  9.000E+00
      25     1     1     2     0     0 -1.292573891E+02  2.447244489E+02 -2.059868976E+02  3.669511282E+02  1.250000000E+02  0.00000E+00  9.000E+00
      -3     1     1     2     0   502 -1.830316187E+02  5.419986693E+01  5.375566236E+02  5.704430932E+02  7.629394531E-06  0.00000E+00  9.000E+00
#rwgt            1           1   2.9178727798740652E-002           6      328721           0
</event>
<event>
      5   9999  3.19816E-02  2.88321E+01 -1.00000E+00  1.54247E-01
      21    -1     0     0   502   511  0.000000000E+00  0.000000000E+00  1.099166284E+03  1.099166284E+03  0.000000000E+00  0.00000E+00  9.000E+00
      21    -1     0     0   501   502  0.000000000E+00  0.000000000E+00 -8.690451294E+01  8.690451294E+01  0.000000000E+00  0.00000E+00  9.000E+00
      25     1     1     2     0     0 -2.244539962E+02  4.605113728E+00  2.155443620E+02  3.353880968E+02  1.250000000E+02  0.00000E+00  9.000E+00
      25     1     1     2     0     0  2.348869865E+02  2.227320984E+01  6.821912793E+02  7.325830559E+02  1.250000000E+02  0.00000E+00  9.000E+00
      21     1     1     2   501   511 -1.043299036E+01 -2.687832356E+01  1.145261296E+02  1.180996440E+02  2.336015456E-06  0.00000E+00  9.000E+00
#rwgt            1           1   2.9401672946196104E-002           6      328779           0
</event>
<event>
      5   9999  3.19816E-02  3.57496E+01 -1.00000E+00  1.47932E-01
      21    -1     0     0   502   512  0.000000000E+00  0.000000000E+00  2.383311184E+02  2.383311184E+02  0.000000000E+00  0.00000E+00  9.000E+00
      21    -1     0     0   501   502  0.000000000E+00  0.000000000E+00 -2.515543811E+03  2.515543811E+03  0.000000000E+00  0.00000E+00  9.000E+00
      25     1     1     2     0     0 -1.392019074E+02 -2.393486844E+02  1.124968398E+02  3.239529329E+02  1.250000000E+02  0.00000E+00  9.000E+00
      25     1     1     2     0     0  1.739033286E+02  2.479420349E+02 -2.362201249E+03  2.384813904E+03  1.250000000E+02  0.00000E+00  9.000E+00
      21     1     1     2   501   512 -3.470142119E+01 -8.593350499E+00 -2.750828406E+01  4.510809237E+01  3.371747881E-07  0.00000E+00  9.000E+00
#rwgt            1           1   2.7393647303043625E-002           6      328947           0
</event>
<event>
      5   9999  3.19816E-02  5.41650E+01 -1.00000E+00  1.37121E-01
      21    -1     0     0   502   501  0.000000000E+00  0.000000000E+00  1.616386637E+02  1.616386637E+02  0.000000000E+00  0.00000E+00  9.000E+00
      21    -1     0     0   501   511  0.000000000E+00  0.000000000E+00 -2.338343914E+02  2.338343914E+02  0.000000000E+00  0.00000E+00  9.000E+00
      25     1     1     2     0     0 -1.038328336E+02  5.976097578E+01  1.878053383E+00  1.731506819E+02  1.250000000E+02  0.00000E+00  9.000E+00
      25     1     1     2     0     0  7.464403997E+01 -1.413360904E+01 -2.337363338E+01  1.481310850E+02  1.250000000E+02  0.00000E+00  9.000E+00
      21     1     1     2   502   511  2.918879368E+01 -4.562736674E+01 -5.070014769E+01  7.419128822E+01  1.507891493E-06  0.00000E+00  9.000E+00
#rwgt            1           1   7.8155425762922073E-002           6      329264           0
</event>
<event>
      5   9999  3.19816E-02  9.05533E+00 -1.00000E+00  2.00875E-01
      21    -1     0     0   512   501  0.000000000E+00  0.000000000E+00  7.796066843E+02  7.796066843E+02  0.000000000E+00  0.00000E+00  9.000E+00
      21    -1     0     0   501   502  0.000000000E+00  0.000000000E+00 -2.322720029E+02  2.322720029E+02  0.000000000E+00  0.00000E+00  9.000E+00
      25     1     1     2     0     0  6.970110761E+01 -6.761485311E+01  6.943801095E+02  7.121929158E+02  1.250000000E+02  0.00000E+00  9.000E+00
      25     1     1     2     0     0 -7.745147030E+01  7.229790015E+01 -1.928097197E+02  2.530341966E+02  1.250000000E+02  0.00000E+00  9.000E+00
      21     1     1     2   512   502  7.750362690E+00 -4.683047037E+00  4.576429161E+01  4.665157487E+01  0.000000000E+00  0.00000E+00  9.000E+00
#rwgt            1           1   3.3087587928527361E-002           6      329330           0
</event>
<event>
      5   9999  3.19816E-02  4.38599E+01 -1.00000E+00  1.42402E-01
      21    -1     0     0   502   501  0.000000000E+00  0.000000000E+00  1.274492204E+02  1.274492204E+02  0.000000000E+00  0.00000E+00  9.000E+00
      21    -1     0     0   511   502  0.000000000E+00  0.000000000E+00 -5.389024640E+02  5.389024640E+02  0.000000000E+00  0.00000E+00  9.000E+00
      25     1     1     2     0     0 -4.582875158E+01  6.305029336E+00  6.128740040E+01  1.467009656E+02  1.250000000E+02  0.00000E+00  9.000E+00
      25     1     1     2     0     0  8.968857355E+01 -6.407653745E+00 -4.361455464E+02  4.625289568E+02  1.250000000E+02  0.00000E+00  9.000E+00
      21     1     1     2   511   501 -4.385982197E+01  1.026244082E-01 -3.659509761E+01  5.712176191E+01  9.536743164E-07  0.00000E+00  9.000E+00
#rwgt            1           1   2.8415190412716958E-002           6      329658           0
</event>
<event>
      5   9999  3.19816E-02  1.95701E+01 -1.00000E+00  1.67152E-01
      21    -1     0     0   502   501  0.000000000E+00  0.000000000E+00  5.840891958E+02  5.840891958E+02  0.000000000E+00  0.00000E+00  9.000E+00
      21    -1     0     0   501   512  0.000000000E+00  0.000000000E+00 -2.905815025E+02  2.905815025E+02  0.000000000E+00  0.00000E+00  9.000E+00
      25     1     1     2     0     0  9.038377445E+01 -1.406526893E+02  3.797793593E+02  4.333702429E+02  1.250000000E+02  0.00000E+00  9.000E+00
      25     1     1     2     0     0 -8.203642791E+01  1.583532495E+02  1.100458857E+02  2.440098852E+02  1.250000000E+02  0.00000E+00  9.000E+00
      21     1     1     2   502   512 -8.347346544E+00 -1.770056018E+01 -1.963175517E+02  1.972905703E+02  2.697398305E-06  0.00000E+00  9.000E+00
#rwgt            1           1   2.7497785552768914E-002           6      329740           0
</event>
<event>
      5   9999  3.19816E-02  9.85038E+00 -1.00000E+00  1.96517E-01
      21    -1     0     0   502   511  0.000000000E+00  0.000000000E+00  1.396754746E+02  1.396754746E+02  0.000000000E+00  0.00000E+00  9.000E+00
      21    -1     0     0   501   502  0.000000000E+00  0.000000000E+00 -5.569932451E+02  5.569932451E+02  0.000000000E+00  0.00000E+00  9.000E+00
      25     1     1     2     0     0 -1.005361190E+02 -9.224758505E+01 -4.097308646E+02  4.495792584E+02  1.250000000E+02  0.00000E+00  9.000E+00
      25     1     1     2     0     0  1.075841358E+02  8.536605258E+01 -5.891297156E+01  1.948267113E+02  1.250000000E+02  0.00000E+00  9.000E+00
      21     1     1     2   501   511 -7.048016870E+00  6.881532469E+00  5.132606557E+01  5.226275000E+01  1.168007728E-06  0.00000E+00  9.000E+00
#rwgt            1           1   2.7986016569796358E-002           6      329888           0
</event>
<event>
      5   9999  3.19816E-02  1.31867E+01 -1.00000E+00  1.82823E-01
      21    -1     0     0   502   501  0.000000000E+00  0.000000000E+00  1.360075154E+02  1.360075154E+02  0.000000000E+00  0.00000E+00  9.000E+00
      21    -1     0     0   512   502  0.000000000E+00  0.000000000E+00 -4.555636053E+03  4.555636053E+03  0.000000000E+00  0.00000E+00  9.000E+00
      25     1     1     2     0     0  2.028740476E+02 -1.734208641E+02 -8.642270546E+01  3.071262921E+02  1.250000000E+02  0.00000E+00  9.000E+00
      25     1     1     2     0     0 -1.905685283E+02  1.781603062E+02 -7.901833089E+02  8.414702136E+02  1.250000000E+02  0.00000E+00  9.000E+00
      21     1     1     2   512   501 -1.230551928E+01 -4.739442078E+00 -3.543022523E+03  3.543047063E+03  4.315837288E-05  0.00000E+00  9.000E+00
#rwgt            1           1   3.1260983700329904E-002           6      330075           0
</event>
<event>
      5   9999  3.19816E-02  6.17151E+01 -1.00000E+00  1.34053E-01
      21    -1     0     0   511   501  0.000000000E+00  0.000000000E+00  1.580683925E+02  1.580683925E+02  0.000000000E+00  0.00000E+00  9.000E+00
      21    -1     0     0   501   502  0.000000000E+00  0.000000000E+00 -9.941291006E+02  9.941291006E+02  0.000000000E+00  0.00000E+00  9.000E+00
      25     1     1     2     0     0 -3.230441727E+02 -4.075988034E+01 -4.234955797E+02  5.486277530E+02  1.250000000E+02  0.00000E+00  9.000E+00
      25     1     1     2     0     0  2.680805034E+02  6.882673754E+01 -4.411333318E+02  5.355631546E+02  1.250000000E+02  0.00000E+00  9.000E+00
      21     1     1     2   511   502  5.496366933E+01 -2.806685720E+01  2.856820337E+01  6.800658544E+01  6.743495762E-07  0.00000E+00  9.000E+00
#rwgt            1           1   2.8974656498411692E-002           6      330339           0
</event>
<event>
      5   9999  3.19816E-02  1.34853E+02 -1.00000E+00  1.18256E-01
      21    -1     0     0   512   501  0.000000000E+00  0.000000000E+00  9.723713562E+01  9.723713562E+01  0.000000000E+00  0.00000E+00  9.000E+00
      21    -1     0     0   501   502  0.000000000E+00  0.000000000E+00 -1.482764922E+03  1.482764922E+03  0.000000000E+00  0.00000E+00  9.000E+00
      25     1     1     2     0     0 -1.532309286E+02  1.372757104E+01 -2.668223682E+02  3.323963596E+02  1.250000000E+02  0.00000E+00  9.000E+00
      25     1     1     2     0     0  5.133696415E+01 -1.020616703E+02 -1.098227507E+03  1.111206878E+03  1.250000000E+02  0.00000E+00  9.000E+00
      21     1     1     2   512   502  1.018939645E+02  8.833409922E+01 -2.047791030E+01  1.363988192E+02  3.363307948E-06  0.00000E+00  9.000E+00
#rwgt            1           1   3.0007563296718182E-002           6      330439           0
</event>
<event>
      5   9999  3.19816E-02  3.43998E+01 -1.00000E+00  1.49023E-01
      21    -1     0     0   502   501  0.000000000E+00  0.000000000E+00  6.785637715E+02  6.785637715E+02  0.000000000E+00  0.00000E+00  9.000E+00
      21    -1     0     0   501   511  0.000000000E+00  0.000000000E+00 -1.036260182E+03  1.036260182E+03  0.000000000E+00  0.00000E+00  9.000E+00
      25     1     1     2     0     0 -3.276272885E+00  1.716632078E+02  5.652144378E+02  6.037974425E+02  1.250000000E+02  0.00000E+00  9.000E+00
      25     1     1     2     0     0 -2.749828161E+01 -1.870344893E+02 -4.328796232E+01  2.307312362E+02  1.250000000E+02  0.00000E+00  9.000E+00
      21     1     1     2   502   511  3.077455449E+01  1.537128154E+01 -8.796228861E+02  8.802952750E+02  0.000000000E+00  0.00000E+00  9.000E+00
#rwgt            1           1   3.3661956337324078E-002           6      330528           0
</event>
<event>
      5   9999  3.19816E-02  1.23965E+02 -1.00000E+00  1.19772E-01
      21    -1     0     0   502   501  0.000000000E+00  0.000000000E+00  2.634269250E+03  2.634269250E+03  0.000000000E+00  0.00000E+00  9.000E+00
      21    -1     0     0   501   512  0.000000000E+00  0.000000000E+00 -6.830136327E+02  6.830136327E+02  0.000000000E+00  0.00000E+00  9.000E+00
      25     1     1     2     0     0 -7.791227705E+02  7.933903257E+02  1.642586485E+03  1.987514996E+03  1.250000000E+02  0.00000E+00  9.000E+00
      25     1     1     2     0     0  6.555814096E+02 -8.036302567E+02  4.537722422E+02  1.138921780E+03  1.250000000E+02  0.00000E+00  9.000E+00
      21     1     1     2   502   512  1.235413609E+02  1.023993100E+01 -1.451031092E+02  1.908461065E+02  3.814697266E-06  0.00000E+00  9.000E+00
#rwgt            2          11   7.3830526735956699E-003           6      330647           0
</event>
<event>
      5   9999  3.19816E-02  2.93657E+02 -1.00000E+00  1.05894E-01
      -4    -1     0     0     0   501  0.000000000E+00  0.000000000E+00  3.756699070E+02  3.756699070E+02  0.000000000E+00  0.00000E+00  9.000E+00
      21    -1     0     0   501   502  0.000000000E+00  0.000000000E+00 -3.862805284E+02  3.862805284E+02  0.000000000E+00  0.00000E+00  9.000E+00
      25     1     1     2     0     0 -2.136085231E+02  2.018413781E+01  9.678926031E+00  2.485048936E+02  1.250000000E+02  0.00000E+00  9.000E+00
      25     1     1     2     0     0 -5.228372435E+01  1.044575728E+02 -1.135474988E+02  2.053363261E+02  1.250000000E+02  0.00000E+00  9.000E+00
      -4     1     1     2     0   502  2.658922474E+02 -1.246417107E+02  9.325795131E+01  3.081092156E+02  4.672030912E-06  0.00000E+00  9.000E+00
#rwgt            2           2   1.4428228469850563E-004           6      330742           0
</event>
<event>
      5   9999  3.19816E-02  1.64627E+02 -1.00000E+00  1.14814E-01
       2    -1     0     0   502     0  0.000000000E+00  0.000000000E+00  2.309216264E+03  2.309216264E+03  0.000000000E+00  0.00000E+00  9.000E+00
      21    -1     0     0   501   502  0.000000000E+00  0.000000000E+00 -2.327146044E+02  2.327146044E+02  0.000000000E+00  0.00000E+00  9.000E+00
      25     1     1     2     0     0  1.534180954E+02 -2.407392670E+01 -1.234053434E+02  2.344579807E+02  1.250000000E+02  0.00000E+00  9.000E+00
      25     1     1     2     0     0 -1.929546204E+02  1.838832706E+02  3.827498653E+02  4.828736917E+02  1.250000000E+02  0.00000E+00  9.000E+00
       2     1     1     2   501     0  3.953652497E+01 -1.598093439E+02  1.817157138E+03  1.824599196E+03  2.157918644E-05  0.00000E+00  9.000E+00
#rwgt            1           1   2.7241089951713118E-002           6      330761           0
</event>
<event>
      5   9999  3.19816E-02  1.16492E+02 -1.00000E+00  1.20918E-01
      21    -1     0     0   502   511  0.000000000E+00  0.000000000E+00  6.145608844E+02  6.145608844E+02  0.000000000E+00  0.00000E+00  9.000E+00
      21    -1     0     0   501   502  0.000000000E+00  0.000000000E+00 -1.260724281E+03  1.260724281E+03  0.000000000E+00  0.00000E+00  9.000E+00
      25     1     1     2     0     0 -3.042662685E+02  2.254118461E+02 -1.024031968E+03  1.098933544E+03  1.250000000E+02  0.00000E+00  9.000E+00
      25     1     1     2     0     0  4.160743436E+02 -2.581137435E+02  4.151922980E+02  6.540261527E+02  1.250000000E+02  0.00000E+00  9.000E+00
      21     1     1     2   501   511 -1.118080752E+02  3.270189739E+01 -3.732372684E+01  1.223254689E+02  0.000000000E+00  0.00000E+00  9.000E+00
#rwgt            1           1   3.0739962424638945E-002           6      330802           0
</event>
<event>
      5   9999  3.19816E-02  6.16964E+01 -1.00000E+00  1.34060E-01
      21    -1     0     0   502   501  0.000000000E+00  0.000000000E+00  1.815249501E+03  1.815249501E+03  0.000000000E+00  0.00000E+00  9.000E+00
      21    -1     0     0   512   502  0.000000000E+00  0.000000000E+00 -1.539542133E+03  1.539542133E+03  0.000000000E+00  0.00000E+00  9.000E+00
      25     1     1     2     0     0  1.437717450E+03 -4.627032312E+02  7.040605930E+02  1.671063154E+03  1.250000000E+02  0.00000E+00  9.000E+00
      25     1     1     2     0     0 -1.470665902E+03  5.148649534E+02 -3.900889396E+02  1.611129572E+03  1.250000000E+02  0.00000E+00  9.000E+00
      21     1     1     2   512   501  3.294845202E+01 -5.216172228E+01 -3.826428564E+01  7.259890713E+01  1.066240300E-06  0.00000E+00  9.000E+00
#rwgt            1           1   3.1294210046869102E-002           6      330921           0
</event>
<event>
      5   9999  3.19816E-02  1.28142E+02 -1.00000E+00  1.19170E-01
      21    -1     0     0   511   501  0.000000000E+00  0.000000000E+00  4.430372317E+02  4.430372317E+02  0.000000000E+00  0.00000E+00  9.000E+00
      21    -1     0     0   501   502  0.000000000E+00  0.000000000E+00 -1.192376043E+03  1.192376043E+03  0.000000000E+00  0.00000E+00  9.000E+00
      25     1     1     2     0     0  1.503082584E+02 -9.549683605E+01 -4.309850960E+02  4.827891581E+02  1.250000000E+02  0.00000E+00  9.000E+00
      25     1     1     2     0     0 -3.165329602E+01  1.438843464E+02 -7.124682139E+02  7.382009158E+02  1.250000000E+02  0.00000E+00  9.000E+00
      21     1     1     2   511   502 -1.186549624E+02 -4.838751032E+01  3.941144986E+02  4.144232007E+02  7.629394531E-06  0.00000E+00  9.000E+00
#rwgt            1           1   3.0211249321742881E-002           6      331037           0
</event>
<event>
      5   9999  3.19816E-02  1.69065E+01 -1.00000E+00  1.72624E-01
      21    -1     0     0   502   512  0.000000000E+00  0.000000000E+00  1.182169416E+02  1.182169416E+02  0.000000000E+00  0.00000E+00  9.000E+00
      21    -1     0     0   501   502  0.000000000E+00  0.000000000E+00 -1.481262675E+03  1.481262675E+03  0.000000000E+00  0.00000E+00  9.000E+00
      25     1     1     2     0     0  5.220636816E+01 -3.097145590E+02 -8.141071543E+02  8.815010333E+02  1.250000000E+02  0.00000E+00  9.000E+00
      25     1     1     2     0     0 -5.082481073E+01  2.928646087E+02 -5.906684701E+02  6.729539969E+02  1.250000000E+02  0.00000E+00  9.000E+00
      21     1     1     2   501   512 -1.381557428E+00  1.684995037E+01  4.172989128E+01  4.502458611E+01  1.719260824E-06  0.00000E+00  9.000E+00
#rwgt            1           1   3.0466763930237607E-002           6      331089           0
</event>
<event>
      5   9999  3.19816E-02  1.71014E+02 -1.00000E+00  1.14181E-01
      21    -1     0     0   511   501  0.000000000E+00  0.000000000E+00  1.600453831E+03  1.600453831E+03  0.000000000E+00  0.00000E+00  9.000E+00
      21    -1     0     0   501   502  0.000000000E+00  0.000000000E+00 -7.229970113E+02  7.229970113E+02  0.000000000E+00  0.00000E+00  9.000E+00
      25     1     1     2     0     0 -1.945791297E+02 -9.852141503E+02  4.168498647E+02  1.094484705E+03  1.250000000E+02  0.00000E+00  9.000E+00
      25     1     1     2     0     0  3.181294458E+02  8.669721176E+02  2.644178825E+02  9.687047091E+02  1.250000000E+02  0.00000E+00  9.000E+00
      21     1     1     2   511   502 -1.235503160E+02  1.182420327E+02  1.961890727E+02  2.602614285E+02  2.697398305E-06  0.00000E+00  9.000E+00
#rwgt            1           1   3.6850682062608310E-002           6      331243           0
</event>
<event>
      5   9999  3.19816E-02  1.15258E+02 -1.00000E+00  1.21116E-01
      21    -1     0     0   502   501  0.000000000E+00  0.000000000E+00  6.064173923E+02  6.064173923E+02  0.000000000E+00  0.00000E+00  9.000E+00
      21    -1     0     0   501   512  0.000000000E+00  0.000000000E+00 -4.339999688E+02  4.339999688E+02  0.000000000E+00  0.00000E+00  9.000E+00
      25     1     1     2     0     0  1.680317321E+02  3.140166908E+02  6.999936683E+01  3.838828682E+02  1.250000000E+02  0.00000E+00  9.000E+00
      25     1     1     2     0     0 -8.093830113E+01 -3.895086301E+02  2.367573120E+02  4.795278994E+02  1.250000000E+02  0.00000E+00  9.000E+00
      21     1     1     2   502   512 -8.709343101E+01  7.549193928E+01 -1.343392553E+02  1.770065935E+02  1.907348633E-06  0.00000E+00  9.000E+00
#rwgt            1           1   2.6540647124281749E-002           6      331344           0
</event>
<event>
      5   9999  3.19816E-02  3.55326E+02 -1.00000E+00  1.03257E-01
       2    -1     0     0   502     0  0.000000000E+00  0.000000000E+00  1.783634800E+03  1.783634800E+03  0.000000000E+00  0.00000E+00  9.000E+00
      21    -1     0     0   501   502  0.000000000E+00  0.000000000E+00 -1.939160771E+02  1.939160771E+02  0.000000000E+00  0.00000E+00  9.000E+00
      25     1     1     2     0     0 -1.213810086E+02 -8.495990220E+01  5.058879529E+02  5.417556230E+02  1.250000000E+02  0.00000E+00  9.000E+00
      25     1     1     2     0     0 -2.006623049E+02  2.351095445E+02  4.323791033E+01  3.362088271E+02  1.250000000E+02  0.00000E+00  9.000E+00
       2     1     1     2   501     0  3.220433135E+02 -1.501496423E+02  1.040592859E+03  1.099586427E+03  1.525878906E-05  0.00000E+00  9.000E+00
#rwgt            2          18   1.6199462682029210E-003           6      331475           0
</event>
<event>
      5   9999  3.19816E-02  2.91719E+01 -1.00000E+00  1.53889E-01
      21    -1     0     0   511   501  0.000000000E+00  0.000000000E+00  4.808130088E+02  4.808130088E+02  0.000000000E+00  0.00000E+00  9.000E+00
      21    -1     0     0   501   502  0.000000000E+00  0.000000000E+00 -4.197273947E+02  4.197273947E+02  0.000000000E+00  0.00000E+00  9.000E+00
      25     1     1     2     0     0 -1.564625607E+02 -3.488465691E+02 -4.569510614E+01  4.048302167E+02  1.250000000E+02  0.00000E+00  9.000E+00
      25     1     1     2     0     0  1.722374619E+02  3.243077486E+02  3.004186938E+00  3.879114386E+02  1.250000000E+02  0.00000E+00  9.000E+00
      21     1     1     2   511   502 -1.577490123E+01  2.453882054E+01  1.037765333E+02  1.077987481E+02  0.000000000E+00  0.00000E+00  9.000E+00
#rwgt            1           1   2.5782994065457594E-002           6      331524           0
</event>
<event>
      5   9999  3.19816E-02  5.11071E+01 -1.00000E+00  1.38535E-01
      21    -1     0     0   502   501  0.000000000E+00  0.000000000E+00  1.446104172E+03  1.446104172E+03  0.000000000E+00  0.00000E+00  9.000E+00
      21    -1     0     0   512   502  0.000000000E+00  0.000000000E+00 -6.049585088E+01  6.049585088E+01  0.000000000E+00  0.00000E+00  9.000E+00
      25     1     1     2     0     0 -1.138857182E+02 -4.954844949E+01  1.506063508E+02  2.318022402E+02  1.250000000E+02  0.00000E+00  9.000E+00
      25     1     1     2     0     0  6.816828579E+01  2.670441682E+01  1.208643626E+03  1.217293907E+03  1.250000000E+02  0.00000E+00  9.000E+00
      21     1     1     2   512   501  4.571743237E+01  2.284403267E+01  2.635834482E+01  5.750387633E+01  1.066240300E-06  0.00000E+00  9.000E+00
#rwgt            1           1   3.2049567581118737E-002           6      331647           0
</event>
<event>
      5   9999  3.19816E-02  4.66225E+01 -1.00000E+00  1.40831E-01
      21    -1     0     0   502   501  0.000000000E+00  0.000000000E+00  1.430480107E+03  1.430480107E+03  0.000000000E+00  0.00000E+00  9.000E+00
      21    -1     0     0   501   511  0.000000000E+00  0.000000000E+00 -2.389742402E+02  2.389742402E+02  0.000000000E+00  0.00000E+00  9.000E+00
      25     1     1     2     0     0 -1.689572496E+02  4.630269582E+02  4.719838639E+02  6.937825913E+02  1.250000000E+02  0.00000E+00  9.000E+00
      25     1     1     2     0     0  1.448717088E+02 -4.231077228E+02  7.748365846E+02  9.033297792E+02  1.250000000E+02  0.00000E+00  9.000E+00
      21     1     1     2   502   511  2.408554080E+01 -3.991923537E+01 -5.531458178E+01  7.234197665E+01  1.168007728E-06  0.00000E+00  9.000E+00
#rwgt            1           1   2.7120834715615660E-002           6      331755           0
</event>
<event>
      5   9999  3.19816E-02  2.89715E+01 -1.00000E+00  1.54100E-01
      21    -1     0     0   502   501  0.000000000E+00  0.000000000E+00  1.029552474E+03  1.029552474E+03  0.000000000E+00  0.00000E+00  9.000E+00
      21    -1     0     0   501   512  0.000000000E+00  0.000000000E+00 -3.472719185E+02  3.472719185E+02  0.000000000E+00  0.00000E+00  9.000E+00
      25     1     1     2     0     0  2.283384439E+02  5.063268899E+02  2.994851798E+02  6.432897772E+02  1.250000000E+02  0.00000E+00  9.000E+00
      25     1     1     2     0     0 -2.560330867E+02 -4.978207843E+02  4.005070712E+02  6.995780077E+02  1.250000000E+02  0.00000E+00  9.000E+00
      21     1     1     2   502   512  2.769464282E+01 -8.506105617E+00 -1.771169520E+01  3.395660791E+01  6.743495762E-07  0.00000E+00  9.000E+00
#rwgt            1           1   3.0520998001214217E-002           6      331891           0
</event>
<event>
      5   9999  3.19816E-02  3.62246E+01 -1.00000E+00  1.47562E-01
      21    -1     0     0   511   501  0.000000000E+00  0.000000000E+00  9.297764616E+02  9.297764616E+02  0.000000000E+00  0.00000E+00  9.000E+00
      21    -1     0     0   501   502  0.000000000E+00  0.000000000E+00 -3.319405546E+02  3.319405546E+02  0.000000000E+00  0.00000E+00  9.000E+00
      25     1     1     2     0     0  1.804319616E+02 -4.089713552E+02  5.435686963E+02  7.147763215E+02  1.250000000E+02  0.00000E+00  9.000E+00
      25     1     1     2     0     0 -2.046600400E+02  3.820414541E+02 -3.317626790E+01  4.522909123E+02  1.250000000E+02  0.00000E+00  9.000E+00
      21     1     1     2   511   502  2.422807835E+01  2.692990114E+01  8.744347858E+01  9.464978237E+01  1.651812370E-06  0.00000E+00  9.000E+00
#rwgt            1           1   3.1082948052950438E-002           6      332089           0
</event>
<event>
      5   9999  3.19816E-02  1.12934E+01 -1.00000E+00  1.89843E-01
      21    -1     0     0   502   501  0.000000000E+00  0.000000000E+00  2.318327695E+03  2.318327695E+03  0.000000000E+00  0.00000E+00  9.000E+00
      21    -1     0     0   512   502  0.000000000E+00  0.000000000E+00 -7.018429484E+01  7.018429484E+01  0.000000000E+00  0.00000E+00  9.000E+00
      25     1     1     2     0     0  1.447836623E+01 -4.998884507E+01  5.634102858E+01  1.466554439E+02  1.250000000E+02  0.00000E+00  9.000E+00
      25     1     1     2     0     0 -2.313538607E+01  5.724117835E+01  2.213239717E+03  2.217626398E+03  1.250000000E+02  0.00000E+00  9.000E+00
      21     1     1     2   512   501  8.657019840E+00 -7.252333283E+00 -2.143734470E+01  2.423014813E+01  1.348699152E-06  0.00000E+00  9.000E+00
#rwgt            1           1   7.8885748223560134E-002           6      332246           0
</event>
<event>
      5   9999  3.19816E-02  5.84095E+01 -1.00000E+00  1.35330E-01
      21    -1     0     0   502   501  0.000000000E+00  0.000000000E+00  3.747247397E+02  3.747247397E+02  0.000000000E+00  0.00000E+00  9.000E+00
       2    -1     0     0   501     0  0.000000000E+00  0.000000000E+00 -2.334103409E+03  2.334103409E+03  0.000000000E+00  0.00000E+00  9.000E+00
      25     1     1     2     0     0  2.151460330E+02 -6.037043543E+02 -7.957962028E+02  1.029399514E+03  1.250000000E+02  0.00000E+00  9.000E+00
      25     1     1     2     0     0 -2.564191475E+02  6.450347781E+02 -2.268578119E+02  7.408846813E+02  1.250000000E+02  0.00000E+00  9.000E+00
       2     1     1     2   502     0  4.127311450E+01 -4.133042390E+01 -9.367246544E+02  9.385439532E+02  0.000000000E+00  0.00000E+00  9.000E+00
#rwgt            1           1   2.9702253882450777E-002           6      332446           0
</event>
<event>
      5   9999  3.19816E-02  3.52888E+02 -1.00000E+00  1.03350E-01
      21    -1     0     0   511   501  0.000000000E+00  0.000000000E+00  1.038279060E+03  1.038279060E+03  0.000000000E+00  0.00000E+00  9.000E+00
      21    -1     0     0   501   502  0.000000000E+00  0.000000000E+00 -2.007173946E+02  2.007173946E+02  0.000000000E+00  0.00000E+00  9.000E+00
      25     1     1     2     0     0  9.601193770E+01 -2.221331260E+02  4.217725766E+01  2.756181034E+02  1.250000000E+02  0.00000E+00  9.000E+00
      25     1     1     2     0     0  4.057721198E+01 -1.032491854E+02  3.994658970E+02  4.330183683E+02  1.250000000E+02  0.00000E+00  9.000E+00
      21     1     1     2   511   502 -1.365891497E+02  3.253823114E+02  3.959185107E+02  5.303599829E+02  0.000000000E+00  0.00000E+00  9.000E+00
#rwgt            1           1   2.9034028294910513E-002           6      332598           0
</event>
<event>
      5   9999  3.19816E-02  1.22387E+02 -1.00000E+00  1.20006E-01
      21    -1     0     0   502   501  0.000000000E+00  0.000000000E+00  3.834311819E+02  3.834311819E+02  0.000000000E+00  0.00000E+00  9.000E+00
       1    -1     0     0   501     0  0.000000000E+00  0.000000000E+00 -2.020232261E+02  2.020232261E+02  0.000000000E+00  0.00000E+00  9.000E+00
      25     1     1     2     0     0  8.116331802E+01 -1.494545729E+01  2.522670854E+02  2.933846166E+02  1.250000000E+02  0.00000E+00  9.000E+00
      25     1     1     2     0     0  2.044844104E+01  8.316224655E+01 -1.778750053E+00  1.515330391E+02  1.250000000E+02  0.00000E+00  9.000E+00
       1     1     1     2   502     0 -1.016117591E+02 -6.821678926E+01 -6.908037948E+01  1.405367523E+02  2.523185073E-06  0.00000E+00  9.000E+00
#rwgt            1           1   2.3259627634413419E-002           6      332649           0
</event>
<event>
      5   9999  3.19816E-02  3.56600E+00 -1.00000E+00  2.75805E-01
      -4    -1     0     0     0   501  0.000000000E+00  0.000000000E+00  3.923325387E+02  3.923325387E+02  0.000000000E+00  0.00000E+00  9.000E+00
      21    -1     0     0   501   502  0.000000000E+00  0.000000000E+00 -6.492339236E+02  6.492339236E+02  0.000000000E+00  0.00000E+00  9.000E+00
      25     1     1     2     0     0 -1.699306028E+02 -4.510847825E+00 -2.213674270E+02  3.058190564E+02  1.250000000E+02  0.00000E+00  9.000E+00
      25     1     1     2     0     0  1.704353424E+02  9.807477110E-01 -3.566690337E+02  4.145925318E+02  1.250000000E+02  0.00000E+00  9.000E+00
      -4     1     1     2     0   502 -5.047396054E-01  3.530100114E+00  3.211350757E+02  3.211548742E+02  3.814697266E-06  0.00000E+00  9.000E+00
#rwgt            1           1   3.2376901821118659E-002           6      332704           0
</event>
<event>
      5   9999  3.19816E-02  1.43624E+02 -1.00000E+00  1.17146E-01
      21    -1     0     0   502   501  0.000000000E+00  0.000000000E+00  1.983231764E+02  1.983231764E+02  0.000000000E+00  0.00000E+00  9.000E+00
      21    -1     0     0   501   511  0.000000000E+00  0.000000000E+00 -4.979450121E+02  4.979450121E+02  0.000000000E+00  0.00000E+00  9.000E+00
      25     1     1     2     0     0  5.878154705E+01 -3.711386114E+01 -1.961877661E+01  1.443696830E+02  1.250000000E+02  0.00000E+00  9.000E+00
      25     1     1     2     0     0  4.940985838E+01  1.315727454E+02  4.775148227E+01  1.940565008E+02  1.250000000E+02  0.00000E+00  9.000E+00
      21     1     1     2   502   511 -1.081914054E+02 -9.445888428E+01 -3.277545413E+02  3.578420048E+02  5.394796609E-06  0.00000E+00  9.000E+00
#rwgt            1           1   5.1468490558874716E-002           6      333075           0
</event>
<event>
      5   9999  3.19816E-02  2.41956E+02 -1.00000E+00  1.08718E-01
      21    -1     0     0   512   501  0.000000000E+00  0.000000000E+00  5.375510682E+02  5.375510682E+02  0.000000000E+00  0.00000E+00  9.000E+00
      21    -1     0     0   501   502  0.000000000E+00  0.000000000E+00 -4.915890371E+02  4.915890371E+02  0.000000000E+00  0.00000E+00  9.000E+00
      25     1     1     2     0     0  1.090613555E+02  3.728863438E+00 -4.850761260E+01  1.728764650E+02  1.250000000E+02  0.00000E+00  9.000E+00
      25     1     1     2     0     0 -3.330655172E+02  8.773069155E+01 -2.439921350E+02  4.402118523E+02  1.250000000E+02  0.00000E+00  9.000E+00
      21     1     1     2   512   502  2.240041617E+02 -9.145955499E+01  3.384617787E+02  4.160517880E+02  5.394796609E-06  0.00000E+00  9.000E+00
#rwgt            2          11   3.9826826834600867E-003           6      333113           0
</event>
<event>
      5   9999  3.19816E-02  1.61329E+01 -1.00000E+00  1.74456E-01
      21    -1     0     0   502   501  0.000000000E+00  0.000000000E+00  5.335707079E+01  5.335707079E+01  0.000000000E+00  0.00000E+00  9.000E+00
      21    -1     0     0   501   511  0.000000000E+00  0.000000000E+00 -2.680493030E+03  2.680493030E+03  0.000000000E+00  0.00000E+00  9.000E+00
      25     1     1     2     0     0 -5.516615688E+01 -3.046450691E+02 -6.914321497E+02  7.678250716E+02  1.250000000E+02  0.00000E+00  9.000E+00
      25     1     1     2     0     0  6.815173742E+01  2.950719329E+02 -1.858020297E+03  1.886684004E+03  1.250000000E+02  0.00000E+00  9.000E+00
      21     1     1     2   502   511 -1.298558054E+01  9.573136157E+00 -7.768351167E+01  7.934102484E+01  0.000000000E+00  0.00000E+00  9.000E+00
#rwgt            1           1   8.0272909378735907E-002           6      333133           0
</event>
<event>
      5   9999  3.19816E-02  1.72678E+01 -1.00000E+00  1.71810E-01
      21    -1     0     0   502   501  0.000000000E+00  0.000000000E+00  9.549653614E+02  9.549653614E+02  0.000000000E+00  0.00000E+00  9.000E+00
       2    -1     0     0   501     0  0.000000000E+00  0.000000000E+00 -1.652587425E+03  1.652587425E+03  0.000000000E+00  0.00000E+00  9.000E+00
      25     1     1     2     0     0 -2.023392448E+02  2.073421955E+02  2.575034131E+02  4.072652254E+02  1.250000000E+02  0.00000E+00  9.000E+00
      25     1     1     2     0     0  2.171856081E+02 -2.161605284E+02  5.785508100E+02  6.665140674E+02  1.250000000E+02  0.00000E+00  9.000E+00
       2     1     1     2   502     0 -1.484636321E+01  8.818332893E+00 -1.533676287E+03  1.533773494E+03  2.157918644E-05  0.00000E+00  9.000E+00
#rwgt            1           1   2.6910396352707235E-002           6      333314           0
</event>
<event>
      5   9999  3.19816E-02  1.97443E+02 -1.00000E+00  1.11852E-01
      21    -1     0     0   502   501  0.000000000E+00  0.000000000E+00  1.356877132E+03  1.356877132E+03  0.000000000E+00  0.00000E+00  9.000E+00
      21    -1     0     0   511   502  0.000000000E+00  0.000000000E+00 -6.634304336E+02  6.634304336E+02  0.000000000E+00  0.00000E+00  9.000E+00
      25     1     1     2     0     0  6.191298027E+02  3.898766208E+02  8.876266673E+02  1.157078905E+03  1.250000000E+02  0.00000E+00  9.000E+00
      25     1     1     2     0     0 -4.301668064E+02 -4.471200111E+02 -2.055484048E+02  6.654584378E+02  1.250000000E+02  0.00000E+00  9.000E+00
      21     1     1     2   511   501 -1.889629963E+02  5.724339028E+01  1.136843603E+01  1.977702228E+02  3.180900589E-06  0.00000E+00  9.000E+00
#rwgt            1           1   1.9762700390174033E-002           6      333475           0
</event>
<event>
      5   9999  3.19816E-02  2.59721E+02 -1.00000E+00  1.07667E-01
       1    -1     0     0   502     0  0.000000000E+00  0.000000000E+00  2.516859645E+03  2.516859645E+03  0.000000000E+00  0.00000E+00  9.000E+00
      21    -1     0     0   501   502  0.000000000E+00  0.000000000E+00 -3.165080275E+02  3.165080275E+02  0.000000000E+00  0.00000E+00  9.000E+00
      25     1     1     2     0     0  3.136600063E+02 -5.954921509E+01  7.348362546E+02  8.108871867E+02  1.250000000E+02  0.00000E+00  9.000E+00
      25     1     1     2     0     0 -9.164183401E+01 -7.521999883E+01 -2.410373879E+02  2.962773976E+02  1.250000000E+02  0.00000E+00  9.000E+00
       1     1     1     2   501     0 -2.220181723E+02  1.347692139E+02  1.706552751E+03  1.726203089E+03  3.051757812E-05  0.00000E+00  9.000E+00
#rwgt            1           1   2.5006312523731773E-002           6      333567           0
</event>
<event>
      5   9999  3.19816E-02  7.65322E+01 -1.00000E+00  1.29288E-01
      21    -1     0     0   502   501  0.000000000E+00  0.000000000E+00  1.084020332E+03  1.084020332E+03  0.000000000E+00  0.00000E+00  9.000E+00
      21    -1     0     0   501   511  0.000000000E+00  0.000000000E+00 -9.835091393E+02  9.835091393E+02  0.000000000E+00  0.00000E+00  9.000E+00
      25     1     1     2     0     0 -1.106028017E+02 -3.865465386E+02  4.384538881E+02  6.078799373E+02  1.250000000E+02  0.00000E+00  9.000E+00
      25     1     1     2     0     0  9.437938628E+01  4.613394050E+02  4.528504486E+02  6.651616675E+02  1.250000000E+02  0.00000E+00  9.000E+00
      21     1     1     2   502   511  1.622341544E+01 -7.479286649E+01 -7.907931444E+02  7.944878660E+02  1.078959322E-05  0.00000E+00  9.000E+00
#rwgt            1           1   2.9351225034208350E-002           6      333612           0
</event>
<event>
      5   9999  3.19816E-02  1.14800E+02 -1.00000E+00  1.21191E-01
      21    -1     0     0   502   512  0.000000000E+00  0.000000000E+00  2.195654155E+02  2.195654155E+02  0.000000000E+00  0.00000E+00  9.000E+00
      21    -1     0     0   501   502  0.000000000E+00  0.000000000E+00 -8.739253351E+02  8.739253351E+02  0.000000000E+00  0.00000E+00  9.000E+00
      25     1     1     2     0     0  2.340096022E+02 -1.460005741E+02 -5.756106569E+02  6.504070186E+02  1.250000000E+02  0.00000E+00  9.000E+00
      25     1     1     2     0     0 -2.529271334E+02  3.277000804E+01 -1.358771666E+02  3.148549073E+02  1.250000000E+02  0.00000E+00  9.000E+00
      21     1     1     2   501   512  1.891753113E+01  1.132305661E+02  5.712790384E+01  1.282288247E+02  2.431401974E-06  0.00000E+00  9.000E+00
#rwgt            1           1   1.2776986255505387E-002           6      333694           0
</event>
<event>
      5   9999  3.19816E-02  7.69080E+01 -1.00000E+00  1.29184E-01
      21    -1     0     0   502   501  0.000000000E+00  0.000000000E+00  8.779465952E+01  8.779465952E+01  0.000000000E+00  0.00000E+00  9.000E+00
       4    -1     0     0   501     0  0.000000000E+00  0.000000000E+00 -8.674369439E+02  8.674369439E+02  0.000000000E+00  0.00000E+00  9.000E+00
      25     1     1     2     0     0 -1.936167161E+00 -9.463914585E+00 -6.323489142E+02  6.446576329E+02  1.250000000E+02  0.00000E+00  9.000E+00
      25     1     1     2     0     0  1.906458403E+01 -6.551243224E+01  2.234915257E+00  1.424265846E+02  1.250000000E+02  0.00000E+00  9.000E+00
       4     1     1     2   502     0 -1.712841687E+01  7.497634683E+01 -1.495282854E+02  1.681473859E+02  1.907348633E-06  0.00000E+00  9.000E+00
#rwgt            1           1   3.3364470690435841E-002           6      333762           0
</event>
<event>
      5   9999  3.19816E-02  6.22101E+01 -1.00000E+00  1.33869E-01
      21    -1     0     0   502   511  0.000000000E+00  0.000000000E+00  5.793335727E+02  5.793335727E+02  0.000000000E+00  0.00000E+00  9.000E+00
      21    -1     0     0   501   502  0.000000000E+00  0.000000000E+00 -8.389494643E+02  8.389494643E+02  0.000000000E+00  0.00000E+00  9.000E+00
      25     1     1     2     0     0  1.016219212E+02  2.959269077E+02 -7.752357508E+01  3.457378403E+02  1.250000000E+02  0.00000E+00  9.000E+00
      25     1     1     2     0     0 -1.357691083E+02 -2.439262691E+02 -5.875196790E+02  6.623727415E+02  1.250000000E+02  0.00000E+00  9.000E+00
      21     1     1     2   501   511  3.414718712E+01 -5.200063854E+01  4.054273624E+02  4.101724551E+02  5.394796609E-06  0.00000E+00  9.000E+00
#rwgt            1           1   3.4740711928143951E-002           6      333838           0
</event>
<event>
      5   9999  3.19816E-02  5.01528E+01 -1.00000E+00  1.39000E-01
      21    -1     0     0   512   501  0.000000000E+00  0.000000000E+00  6.010931055E+02  6.010931055E+02  0.000000000E+00  0.00000E+00  9.000E+00
      21    -1     0     0   501   502  0.000000000E+00  0.000000000E+00 -1.372802124E+02  1.372802124E+02  0.000000000E+00  0.00000E+00  9.000E+00
      25     1     1     2     0     0  2.333109897E+02 -2.313511805E+01  1.609978039E+02  3.106679006E+02  1.250000000E+02  0.00000E+00  9.000E+00
      25     1     1     2     0     0 -2.079713419E+02  6.641571208E+01  2.448478203E+02  3.510535301E+02  1.250000000E+02  0.00000E+00  9.000E+00
      21     1     1     2   512   502 -2.533964779E+01 -4.328059404E+01  5.796726882E+01  7.665188729E+01  0.000000000E+00  0.00000E+00  9.000E+00
#rwgt            1           1   3.0310304070886418E-002           6      333937           0
</event>
<event>
      5   9999  3.19816E-02  2.48984E+01 -1.00000E+00  1.58883E-01
      21    -1     0     0   502   501  0.000000000E+00  0.000000000E+00  2.411157255E+02  2.411157255E+02  0.000000000E+00  0.00000E+00  9.000E+00
      21    -1     0     0   511   502  0.000000000E+00  0.000000000E+00 -2.281499888E+02  2.281499888E+02  0.000000000E+00  0.00000E+00  9.000E+00
      25     1     1     2     0     0  1.859046628E+02  7.948195433E+00  2.886574638E+01  2.260131606E+02  1.250000000E+02  0.00000E+00  9.000E+00
      25     1     1     2     0     0 -1.721032033E+02 -2.867134176E+01 -1.799650535E+00  2.146387597E+02  1.250000000E+02  0.00000E+00  9.000E+00
      21     1     1     2   511   501 -1.380145952E+01  2.072314633E+01 -1.410035915E+01  2.861379400E+01  5.057621821E-07  0.00000E+00  9.000E+00
#rwgt            1           1   2.7033187383586069E-002           6      334013           0
</event>
<event>
      5   9999  3.19816E-02  2.80296E+02 -1.00000E+00  1.06560E-01
       1    -1     0     0   502     0  0.000000000E+00  0.000000000E+00  2.342057207E+03  2.342057207E+03  0.000000000E+00  0.00000E+00  9.000E+00
      21    -1     0     0   501   502  0.000000000E+00  0.000000000E+00 -3.403501822E+02  3.403501822E+02  0.000000000E+00  0.00000E+00  9.000E+00
      25     1     1     2     0     0 -2.952146663E+02 -3.102683383E+02  5.125160847E+01  4.490766843E+02  1.250000000E+02  0.00000E+00  9.000E+00
      25     1     1     2     0     0  3.849990989E+02  4.474087351E+01  1.876871305E+02  4.484166711E+02  1.250000000E+02  0.00000E+00  9.000E+00
       1     1     1     2   501     0 -8.978443262E+01  2.655274648E+02  1.762768286E+03  1.784914034E+03  2.157918644E-05  0.00000E+00  9.000E+00
#rwgt            2          17   8.4746872587993850E-004           6      334279           0
</event>
<event>
      5   9999  3.19816E-02  5.78289E+01 -1.00000E+00  1.35564E-01
      21    -1     0     0   502   511  0.000000000E+00  0.000000000E+00  1.211403547E+03  1.211403547E+03  0.000000000E+00  0.00000E+00  9.000E+00
      21    -1     0     0   501   502  0.000000000E+00  0.000000000E+00 -3.738236172E+01  3.738236172E+01  0.000000000E+00  0.00000E+00  9.000E+00
      25     1     1     2     0     0 -5.864591304E+01  2.716576988E+01  1.410260371E+02  1.992251623E+02  1.250000000E+02  0.00000E+00  9.000E+00
      25     1     1     2     0     0  1.501995336E+01  1.079423951E+01  6.426305895E+02  6.549360191E+02  1.250000000E+02  0.00000E+00  9.000E+00
      21     1     1     2   501   511  4.362595969E+01 -3.796000939E+01  3.903645582E+02  3.946247268E+02  5.394796609E-06  0.00000E+00  9.000E+00
#rwgt            1           1   3.0027985283916887E-002           6      334313           0
</event>
<event>
      5   9999  3.19816E-02  4.91017E+01 -1.00000E+00  1.39526E-01
      21    -1     0     0   502   501  0.000000000E+00  0.000000000E+00  2.287992140E+02  2.287992140E+02  0.000000000E+00  0.00000E+00  9.000E+00
      21    -1     0     0   501   512  0.000000000E+00  0.000000000E+00 -3.283390761E+02  3.283390761E+02  0.000000000E+00  0.00000E+00  9.000E+00
      25     1     1     2     0     0 -9.620295052E+01 -1.024251453E+02  3.807896280E+01  1.918877940E+02  1.250000000E+02  0.00000E+00  9.000E+00
      25     1     1     2     0     0  7.384792738E+01  5.870755408E+01  5.537616153E+01  1.661072321E+02  1.250000000E+02  0.00000E+00  9.000E+00
      21     1     1     2   502   512  2.235502315E+01  4.371759125E+01 -1.929949864E+02  1.991432641E+02  2.697398305E-06  0.00000E+00  9.000E+00
#rwgt            1           1   2.2233798061706587E-002           6      334361           0
</event>
<event>
      5   9999  3.19816E-02  1.49213E+02 -1.00000E+00  1.16484E-01
      21    -1     0     0   511   501  0.000000000E+00  0.000000000E+00  9.495354601E+02  9.495354601E+02  0.000000000E+00  0.00000E+00  9.000E+00
      21    -1     0     0   501   502  0.000000000E+00  0.000000000E+00 -3.792405278E+02  3.792405278E+02  0.000000000E+00  0.00000E+00  9.000E+00
      25     1     1     2     0     0  6.937066934E+01 -4.168198605E+02  5.170802065E+02  6.793732595E+02  1.250000000E+02  0.00000E+00  9.000E+00
      25     1     1     2     0     0 -5.739807028E+01  2.680878070E+02 -1.956292828E+02  3.592512032E+02  1.250000000E+02  0.00000E+00  9.000E+00
      21     1     1     2   511   502 -1.197259905E+01  1.487320535E+02  2.488440087E+02  2.901515251E+02  2.697398305E-06  0.00000E+00  9.000E+00
#rwgt            1           1   3.0850243842992942E-002           6      334493           0
</event>
<event>
      5   9999  3.19816E-02  2.81196E+02 -1.00000E+00  1.06514E-01
      21    -1     0     0   512   501  0.000000000E+00  0.000000000E+00  8.018587274E+02  8.018587274E+02  0.000000000E+00  0.00000E+00  9.000E+00
      21    -1     0     0   501   502  0.000000000E+00  0.000000000E+00 -5.106796286E+02  5.106796286E+02  0.000000000E+00  0.00000E+00  9.000E+00
      25     1     1     2     0     0  3.400956507E+02  1.043893246E+02  1.546057362E+02  4.075415517E+02  1.250000000E+02  0.00000E+00  9.000E+00
      25     1     1     2     0     0 -4.132600518E+02  1.671219282E+02 -1.660979133E+02  4.918608809E+02  1.250000000E+02  0.00000E+00  9.000E+00
      21     1     1     2   512   502  7.316440118E+01 -2.715112527E+02  3.026712759E+02  4.131359234E+02  0.000000000E+00  0.00000E+00  9.000E+00
#rwgt            1           1   3.0105569408214586E-002           6      334601           0
</event>
<event>
      5   9999  3.19816E-02  1.15948E+02 -1.00000E+00  1.21005E-01
      21    -1     0     0   502   511  0.000000000E+00  0.000000000E+00  1.185255924E+03  1.185255924E+03  0.000000000E+00  0.00000E+00  9.000E+00
      21    -1     0     0   501   502  0.000000000E+00  0.000000000E+00 -5.103337053E+02  5.103337053E+02  0.000000000E+00  0.00000E+00  9.000E+00
      25     1     1     2     0     0  3.380294734E+01 -3.134656192E+01 -1.154421590E+01  1.337292605E+02  1.250000000E+02  0.00000E+00  9.000E+00
      25     1     1     2     0     0 -1.362830622E+02 -2.289070057E+01 -4.146820165E+02  4.546242757E+02  1.250000000E+02  0.00000E+00  9.000E+00
      21     1     1     2   501   511  1.024801148E+02  5.423726249E+01  1.101148451E+03  1.107236093E+03  0.000000000E+00  0.00000E+00  9.000E+00
#rwgt            1           1   3.1710942800759756E-002           6      334653           0
</event>
<event>
      5   9999  3.19816E-02  2.27548E+01 -1.00000E+00  1.61874E-01
      21    -1     0     0   502   501  0.000000000E+00  0.000000000E+00  4.487988057E+02  4.487988057E+02  0.000000000E+00  0.00000E+00  9.000E+00
      21    -1     0     0   512   502  0.000000000E+00  0.000000000E+00 -2.050148515E+02  2.050148515E+02  0.000000000E+00  0.00000E+00  9.000E+00
      25     1     1     2     0     0  1.734705761E+01 -2.077751933E+02  1.674643111E+01  2.436737456E+02  1.250000000E+02  0.00000E+00  9.000E+00
      25     1     1     2     0     0 -1.750412914E+00  2.243439813E+02  2.629913446E+02  3.675904422E+02  1.250000000E+02  0.00000E+00  9.000E+00
      21     1     1     2   512   501 -1.559664470E+01 -1.656878802E+01 -3.595382149E+01  4.254946935E+01  8.259061849E-07  0.00000E+00  9.000E+00
#rwgt            1           1   2.6262864553653256E-002           6      334712           0
</event>
<event>
      5   9999  3.19816E-02  2.75608E+01 -1.00000E+00  1.55643E-01
      21    -1     0     0   502   511  0.000000000E+00  0.000000000E+00  3.782995914E+02  3.782995914E+02  0.000000000E+00  0.00000E+00  9.000E+00
      21    -1     0     0   501   502  0.000000000E+00  0.000000000E+00 -5.603432036E+02  5.603432036E+02  0.000000000E+00  0.00000E+00  9.000E+00
      25     1     1     2     0     0 -1.652156114E+01 -3.902051312E+02 -9.562967548E+01  4.210736767E+02  1.250000000E+02  0.00000E+00  9.000E+00
      25     1     1     2     0     0  2.159245832E+01  4.172954135E+02 -1.393650241E+02  4.578747714E+02  1.250000000E+02  0.00000E+00  9.000E+00
      21     1     1     2   501   511 -5.070897180E+00 -2.709028226E+01  5.295108733E+01  5.969434681E+01  9.536743164E-07  0.00000E+00  9.000E+00
#rwgt            1           1   2.4970902401627738E-002           6      334909           0
</event>
<event>
      5   9999  3.19816E-02  4.74782E+01 -1.00000E+00  1.40370E-01
      21    -1     0     0   502   512  0.000000000E+00  0.000000000E+00  3.854132692E+02  3.854132692E+02  0.000000000E+00  0.00000E+00  9.000E+00
      21    -1     0     0   501   502  0.000000000E+00  0.000000000E+00 -2.220977958E+02  2.220977958E+02  0.000000000E+00  0.00000E+00  9.000E+00
      25     1     1     2     0     0  7.269816794E+01  1.063677394E+02 -1.481812830E+02  2.327698697E+02  1.250000000E+02  0.00000E+00  9.000E+00
      25     1     1     2     0     0 -5.920583810E+01 -6.084696230E+01  2.787298297E+02  3.170536265E+02  1.250000000E+02  0.00000E+00  9.000E+00
      21     1     1     2   501   512 -1.349232984E+01 -4.552077712E+01  3.276692662E+01  5.768756881E+01  1.430511475E-06  0.00000E+00  9.000E+00
#rwgt            1           1   2.5316806525562563E-002           6      335077           0
</event>
<event>
      5   9999  3.19816E-02  9.98884E+01 -1.00000E+00  1.23850E-01
      21    -1     0     0   502   511  0.000000000E+00  0.000000000E+00  1.793782749E+03  1.793782749E+03  0.000000000E+00  0.00000E+00  9.000E+00
      21    -1     0     0   501   502  0.000000000E+00  0.000000000E+00 -9.739721575E+02  9.739721575E+02  0.000000000E+00  0.00000E+00  9.000E+00
      25     1     1     2     0     0  3.506916670E+02  3.907369050E+02  1.550521859E+03  1.641768257E+03  1.250000000E+02  0.00000E+00  9.000E+00
      25     1     1     2     0     0 -2.617544362E+02 -4.362106808E+02 -8.323520762E+02  9.834785822E+02  1.250000000E+02  0.00000E+00  9.000E+00
      21     1     1     2   501   511 -8.893723083E+01  4.547377572E+01  1.016408093E+02  1.425080679E+02  2.697398305E-06  0.00000E+00  9.000E+00
#rwgt            1           1   5.7270706927077343E-002           6      335197           0
</event>
<event>
      5   9999  3.19816E-02  1.48048E+01 -1.00000E+00  1.77921E-01
      21    -1     0     0   502   501  0.000000000E+00  0.000000000E+00  6.644183639E+02  6.644183639E+02  0.000000000E+00  0.00000E+00  9.000E+00
      21    -1     0     0   501   512  0.000000000E+00  0.000000000E+00 -3.298805398E+02  3.298805398E+02  0.000000000E+00  0.00000E+00  9.000E+00
      25     1     1     2     0     0  3.445599872E+02 -2.069027771E+02  2.615261235E+02  4.955312878E+02  1.250000000E+02  0.00000E+00  9.000E+00
      25     1     1     2     0     0 -3.302312750E+02  2.106269946E+02  1.367813850E+02  4.333019422E+02  1.250000000E+02  0.00000E+00  9.000E+00
      21     1     1     2   502   512 -1.432871219E+01 -3.724217494E+00 -6.376968443E+01  6.546567376E+01  1.348699152E-06  0.00000E+00  9.000E+00
#rwgt            1           1   2.6445809089417242E-002           6      335342           0
</event>
<event>
      5   9999  3.19816E-02  6.48275E+01 -1.00000E+00  1.32932E-01
      21    -1     0     0   502   511  0.000000000E+00  0.000000000E+00  6.170474426E+02  6.170474426E+02  0.000000000E+00  0.00000E+00  9.000E+00
      21    -1     0     0   501   502  0.000000000E+00  0.000000000E+00 -6.274366696E+02  6.274366696E+02  0.000000000E+00  0.00000E+00  9.000E+00
      25     1     1     2     0     0  6.412437974E+01  1.992147741E+02 -3.924645076E+02  4.620084978E+02  1.250000000E+02  0.00000E+00  9.000E+00
      25     1     1     2     0     0 -8.236549536E+01 -2.614230007E+02 -8.334202853E+01  3.125651194E+02  1.250000000E+02  0.00000E+00  9.000E+00
      21     1     1     2   501   511  1.824111562E+01  6.220822661E+01  4.654173091E+02  4.699104951E+02  5.394796609E-06  0.00000E+00  9.000E+00
#rwgt            1           1   3.4306916558289331E-002           6      335601           0
</event>
<event>
      5   9999  3.19816E-02  1.50270E+01 -1.00000E+00  1.77310E-01
      21    -1     0     0   502   501  0.000000000E+00  0.000000000E+00  8.517949232E+02  8.517949232E+02  0.000000000E+00  0.00000E+00  9.000E+00
      21    -1     0     0   501   512  0.000000000E+00  0.000000000E+00 -8.942839989E+01  8.942839989E+01  0.000000000E+00  0.00000E+00  9.000E+00
      25     1     1     2     0     0  4.533473228E+01  1.674416774E+02  5.198954523E+02  5.621460972E+02  1.250000000E+02  0.00000E+00  9.000E+00
      25     1     1     2     0     0 -6.021006272E+01 -1.695711608E+02  2.700003424E+02  3.477136971E+02  1.250000000E+02  0.00000E+00  9.000E+00
      21     1     1     2   502   512  1.487533044E+01  2.129483389E+00 -2.752927141E+01  3.136352881E+01  4.768371582E-07  0.00000E+00  9.000E+00
#rwgt            1           1   3.3159240926627212E-002           6      335679           0
</event>
<event>
      5   9999  3.19816E-02  5.82935E+01 -1.00000E+00  1.35376E-01
      21    -1     0     0   502   501  0.000000000E+00  0.000000000E+00  2.927165946E+02  2.927165946E+02  0.000000000E+00  0.00000E+00  9.000E+00
      21    -1     0     0   511   502  0.000000000E+00  0.000000000E+00 -1.951236132E+02  1.951236132E+02  0.000000000E+00  0.00000E+00  9.000E+00
      25     1     1     2     0     0 -6.292760032E+01  1.388995193E+02  1.175744289E+02  2.295685207E+02  1.250000000E+02  0.00000E+00  9.000E+00
      25     1     1     2     0     0  5.275183732E+00 -1.475208093E+02  8.031300546E+00  1.935967937E+02  1.250000000E+02  0.00000E+00  9.000E+00
      21     1     1     2   511   501  5.765241658E+01  8.621290007E+00 -2.801274809E+01  6.467489339E+01  9.536743164E-07  0.00000E+00  9.000E+00
#rwgt            2          11   1.8969745082902981E-003           6      335923           0
</event>
<event>
      5   9999  3.19816E-02  1.40055E+01 -1.00000E+00  1.80237E-01
      21    -1     0     0   502   501  0.000000000E+00  0.000000000E+00  1.592727247E+02  1.592727247E+02  0.000000000E+00  0.00000E+00  9.000E+00
      21    -1     0     0   512   502  0.000000000E+00  0.000000000E+00 -5.676607023E+02  5.676607023E+02  0.000000000E+00  0.00000E+00  9.000E+00
      25     1     1     2     0     0 -7.492432029E+01 -1.125802132E+02  3.075746994E+01  1.867055975E+02  1.250000000E+02  0.00000E+00  9.000E+00
      25     1     1     2     0     0  6.945944012E+01  9.968492571E+01 -1.003415850E+02  2.011346115E+02  1.250000000E+02  0.00000E+00  9.000E+00
      21     1     1     2   512   501  5.464880169E+00  1.289528747E+01 -3.388038625E+02  3.390932182E+02  5.394796609E-06  0.00000E+00  9.000E+00
#rwgt            1           1   2.2373128148230476E-002           6      335943           0
</event>
<event>
      5   9999  3.19816E-02  6.12586E+01 -1.00000E+00  1.34223E-01
      21    -1     0     0   502   501  0.000000000E+00  0.000000000E+00  3.320798169E+02  3.320798169E+02  0.000000000E+00  0.00000E+00  9.000E+00
      21    -1     0     0   501   511  0.000000000E+00  0.000000000E+00 -2.987617850E+02  2.987617850E+02  0.000000000E+00  0.00000E+00  9.000E+00
      25     1     1     2     0     0 -9.567514928E+01  5.938280384E+01  2.020661620E+02  2.629368468E+02  1.250000000E+02  0.00000E+00  9.000E+00
      25     1     1     2     0     0  3.443070951E+01 -5.806800424E+01  4.223382361E+01  1.482095231E+02  1.250000000E+02  0.00000E+00  9.000E+00
      21     1     1     2   502   511  6.124443977E+01 -1.314799591E+00 -2.109819538E+02  2.196952319E+02  2.697398305E-06  0.00000E+00  9.000E+00
#rwgt            1           1   2.2720500333604114E-002           6      336091           0
</event>
<event>
      5   9999  3.19816E-02  8.88830E+01 -1.00000E+00  1.26175E-01
      21    -1     0     0   502   501  0.000000000E+00  0.000000000E+00  5.238172323E+02  5.238172323E+02  0.000000000E+00  0.00000E+00  9.000E+00
      21    -1     0     0   501   512  0.000000000E+00  0.000000000E+00 -7.016691802E+02  7.016691802E+02  0.000000000E+00  0.00000E+00  9.000E+00
      25     1     1     2     0     0 -3.101658703E+00 -4.483032093E+02  1.996465418E+02  5.064278126E+02  1.250000000E+02  0.00000E+00  9.000E+00
      25     1     1     2     0     0  7.349628311E+01  5.025690365E+02 -3.256802641E+02  6.161736561E+02  1.250000000E+02  0.00000E+00  9.000E+00
      21     1     1     2   502   512 -7.039462441E+01 -5.426582718E+01 -5.181822562E+01  1.028849438E+02  1.907348633E-06  0.00000E+00  9.000E+00
#rwgt            1           1   3.2579813260642021E-002           6      336131           0
</event>
<event>
      5   9999  3.19816E-02  3.52296E+01 -1.00000E+00  1.48346E-01
      21    -1     0     0   502   501  0.000000000E+00  0.000000000E+00  9.765030883E+02  9.765030883E+02  0.000000000E+00  0.00000E+00  9.000E+00
      21    -1     0     0   501   511  0.000000000E+00  0.000000000E+00 -4.368264582E+02  4.368264582E+02  0.000000000E+00  0.00000E+00  9.000E+00
      25     1     1     2     0     0 -5.415535136E+02 -2.133278927E+02  1.467309081E+02  6.131426891E+02  1.250000000E+02  0.00000E+00  9.000E+00
      25     1     1     2     0     0  5.767549380E+02  2.147358861E+02  4.202280733E+02  7.556284754E+02  1.250000000E+02  0.00000E+00  9.000E+00
      21     1     1     2   502   511 -3.520142435E+01 -1.407993432E+00 -2.728235124E+01  4.455838205E+01  6.743495762E-07  0.00000E+00  9.000E+00
#rwgt            1           1   3.2180448511028359E-002           6      336234           0
</event>
<event>
      5   9999  3.19816E-02  4.75679E+01 -1.00000E+00  1.40323E-01
      21    -1     0     0   502   512  0.000000000E+00  0.000000000E+00  1.922814631E+03  1.922814631E+03  0.000000000E+00  0.00000E+00  9.000E+00
      21    -1     0     0   501   502  0.000000000E+00  0.000000000E+00 -7.351772203E+02  7.351772203E+02  0.000000000E+00  0.00000E+00  9.000E+00
      25     1     1     2     0     0 -4.288961296E+02 -1.833874731E+02  1.725113942E+03  1.791431262E+03  1.250000000E+02  0.00000E+00  9.000E+00
      25     1     1     2     0     0  4.761883305E+02  1.782737358E+02 -5.945623101E+02  7.922538682E+02  1.250000000E+02  0.00000E+00  9.000E+00
      21     1     1     2   501   512 -4.729220096E+01  5.113737287E+00  5.708577902E+01  7.430672074E+01  9.536743164E-07  0.00000E+00  9.000E+00
#rwgt            1           1   2.2283248026082603E-002           6      336474           0
</event>
<event>
      5   9999  3.19816E-02  1.32730E+02 -1.00000E+00  1.18539E-01
      21    -1     0     0   502   511  0.000000000E+00  0.000000000E+00  2.230361170E+02  2.230361170E+02  0.000000000E+00  0.00000E+00  9.000E+00
      21    -1     0     0   501   502  0.000000000E+00  0.000000000E+00 -3.245691805E+02  3.245691805E+02  0.000000000E+00  0.00000E+00  9.000E+00
      25     1     1     2     0     0 -9.112780871E+01 -7.008959395E+01 -2.383047585E+01  1.714926246E+02  1.250000000E+02  0.00000E+00  9.000E+00
      25     1     1     2     0     0  1.978719111E+02 -8.795540085E+00 -6.322016751E+01  2.425952273E+02  1.250000000E+02  0.00000E+00  9.000E+00
      21     1     1     2   501   511 -1.067441024E+02  7.888513403E+01 -1.448242019E+01  1.335174456E+02  1.792108581E-06  0.00000E+00  9.000E+00
#rwgt            1           1   2.2908651204672503E-002           6      336651           0
</event>
<event>
      5   9999  3.19816E-02  2.65735E+01 -1.00000E+00  1.56791E-01
      21    -1     0     0   502   512  0.000000000E+00  0.000000000E+00  6.693180699E+02  6.693180699E+02  0.000000000E+00  0.00000E+00  9.000E+00
      21    -1     0     0   501   502  0.000000000E+00  0.000000000E+00 -2.635434188E+02  2.635434188E+02  0.000000000E+00  0.00000E+00  9.000E+00
      25     1     1     2     0     0 -9.972602901E+01 -1.758369493E+02 -9.197888064E+01  2.548509920E+02  1.250000000E+02  0.00000E+00  9.000E+00
      25     1     1     2     0     0  1.064749196E+02  1.501347477E+02  4.817468540E+01  2.276469883E+02  1.250000000E+02  0.00000E+00  9.000E+00
      21     1     1     2   501   512 -6.748890566E+00  2.570220165E+01  4.495788463E+02  4.503635085E+02  5.394796609E-06  0.00000E+00  9.000E+00
#rwgt            1           1   2.6702831413635213E-002           6      336703           0
</event>
<event>
      5   9999  3.19816E-02  6.29885E+01 -1.00000E+00  1.33585E-01
      21    -1     0     0   502   501  0.000000000E+00  0.000000000E+00  2.480021241E+02  2.480021241E+02  0.000000000E+00  0.00000E+00  9.000E+00
      21    -1     0     0   501   511  0.000000000E+00  0.000000000E+00 -1.886549020E+03  1.886549020E+03  0.000000000E+00  0.00000E+00  9.000E+00
      25     1     1     2     0     0  1.515434009E+01 -4.390013083E+02 -7.683145574E+01  4.631197203E+02  1.250000000E+02  0.00000E+00  9.000E+00
      25     1     1     2     0     0 -4.980270499E+00  5.011627129E+02 -1.484402697E+03  1.571707745E+03  1.250000000E+02  0.00000E+00  9.000E+00
      21     1     1     2   502   511 -1.017406959E+01 -6.216140461E+01 -7.731274316E+01  9.972367908E+01  9.536743164E-07  0.00000E+00  9.000E+00
#rwgt            1           1   2.4953422907066147E-002           6      336889           0
</event>
<event>
      5   9999  3.19816E-02  1.11772E+02 -1.00000E+00  1.21692E-01
      21    -1     0     0   502   501  0.000000000E+00  0.000000000E+00  1.723090082E+03  1.723090082E+03  0.000000000E+00  0.00000E+00  9.000E+00
      21    -1     0     0   501   512  0.000000000E+00  0.000000000E+00 -5.358876399E+02  5.358876399E+02  0.000000000E+00  0.00000E+00  9.000E+00
      25     1     1     2     0     0 -5.748357943E+02  3.467516815E+02  1.174763132E+03  1.358810633E+03  1.250000000E+02  0.00000E+00  9.000E+00
      25     1     1     2     0     0  6.418520795E+02 -4.362045112E+02 -1.024650652E+01  7.861160592E+02  1.250000000E+02  0.00000E+00  9.000E+00
      21     1     1     2   502   512 -6.701628522E+01  8.945282969E+01  2.268581693E+01  1.140510303E+02  1.430511475E-06  0.00000E+00  9.000E+00
#rwgt            1           1   3.1449627620195583E-002           6      337030           0
</event>
<event>
      5   9999  3.19816E-02  2.55905E+01 -1.00000E+00  1.57995E-01
      21    -1     0     0   502   501  0.000000000E+00  0.000000000E+00  7.793318091E+02  7.793318091E+02  0.000000000E+00  0.00000E+00  9.000E+00
      21    -1     0     0   501   511  0.000000000E+00  0.000000000E+00 -1.434981861E+03  1.434981861E+03  0.000000000E+00  0.00000E+00  9.000E+00
      25     1     1     2     0     0 -2.924782469E+02  9.173640106E+02  2.300145753E+01  9.712128087E+02  1.250000000E+02  0.00000E+00  9.000E+00
      25     1     1     2     0     0  3.056902353E+02 -8.954478478E+02 -5.288661189E+02  1.091145151E+03  1.250000000E+02  0.00000E+00  9.000E+00
      21     1     1     2   502   511 -1.321198849E+01 -2.191616280E+01 -1.497853904E+02  1.519557107E+02  1.907348633E-06  0.00000E+00  9.000E+00
#rwgt            1           1   2.1574004907165361E-002           6      337077           0
</event>
<event>
      5   9999  3.19816E-02  3.87256E+01 -1.00000E+00  1.45718E-01
      21    -1     0     0   512   501  0.000000000E+00  0.000000000E+00  4.765121192E+02  4.765121192E+02  0.000000000E+00  0.00000E+00  9.000E+00
      21    -1     0     0   501   502  0.000000000E+00  0.000000000E+00 -2.630240688E+02  2.630240688E+02  0.000000000E+00  0.00000E+00  9.000E+00
      25     1     1     2     0     0  6.349703704E+01 -2.246854483E+02 -1.156435123E+02  2.889876232E+02  1.250000000E+02  0.00000E+00  9.000E+00
      25     1     1     2     0     0 -3.146684515E+01  2.029198166E+02  1.908452161E+02  3.069421946E+02  1.250000000E+02  0.00000E+00  9.000E+00
      21     1     1     2   512   502 -3.203019190E+01  2.176563169E+01  1.382863466E+02  1.436063702E+02  1.907348633E-06  0.00000E+00  9.000E+00
#rwgt            1           1   2.7151165546959743E-002           6      337289           0
</event>
<event>
      5   9999  3.19816E-02  1.01344E+02 -1.00000E+00  1.23568E-01
      21    -1     0     0   502   501  0.000000000E+00  0.000000000E+00  7.870153046E+02  7.870153046E+02  0.000000000E+00  0.00000E+00  9.000E+00
      21    -1     0     0   501   511  0.000000000E+00  0.000000000E+00 -1.503860201E+02  1.503860201E+02  0.000000000E+00  0.00000E+00  9.000E+00
      25     1     1     2     0     0 -3.721552239E+01 -1.050065254E+02  6.679243101E+02  6.885922229E+02  1.250000000E+02  0.00000E+00  9.000E+00
      25     1     1     2     0     0 -4.261936785E+01  4.257989810E+01 -4.646976285E+01  1.463348800E+02  1.250000000E+02  0.00000E+00  9.000E+00
      21     1     1     2   502   511  7.983489024E+01  6.242662728E+01  1.517473727E+01  1.024742218E+02  1.892388805E-06  0.00000E+00  9.000E+00
#rwgt            1           1   2.8579086472089708E-002           6      337410           0
</event>
<event>
      5   9999  3.19816E-02  3.70467E+01 -1.00000E+00  1.46937E-01
      21    -1     0     0   502   512  0.000000000E+00  0.000000000E+00  5.603292115E+02  5.603292115E+02  0.000000000E+00  0.00000E+00  9.000E+00
      21    -1     0     0   501   502  0.000000000E+00  0.000000000E+00 -1.125167517E+02  1.125167517E+02  0.000000000E+00  0.00000E+00  9.000E+00
      25     1     1     2     0     0 -6.985058831E+01  1.407094489E+02  1.204433550E+02  2.341150475E+02  1.250000000E+02  0.00000E+00  9.000E+00
      25     1     1     2     0     0  1.017946097E+02 -1.219467936E+02  1.355714116E+02  2.433881071E+02  1.250000000E+02  0.00000E+00  9.000E+00
      21     1     1     2   501   512 -3.194402135E+01 -1.876265529E+01  1.917976932E+02  1.953428085E+02  0.000000000E+00  0.00000E+00  9.000E+00
#rwgt            1           1   2.4244316839811639E-002           6      337482           0
</event>
<event>
      5   9999  3.19816E-02  5.47730E+01 -1.00000E+00  1.36853E-01
      21    -1     0     0   511   501  0.000000000E+00  0.000000000E+00  4.782651746E+02  4.782651746E+02  0.000000000E+00  0.00000E+00  9.000E+00
      21    -1     0     0   501   502  0.000000000E+00  0.000000000E+00 -1.575824601E+02  1.575824601E+02  0.000000000E+00  0.00000E+00  9.000E+00
      25     1     1     2     0     0 -1.724383206E+02 -2.539498283E+01  1.584393181E+02  2.666606402E+02  1.250000000E+02  0.00000E+00  9.000E+00
      25     1     1     2     0     0  1.176669615E+02  2.497517746E+01 -2.393351052E+01  1.751202052E+02  1.250000000E+02  0.00000E+00  9.000E+00
      21     1     1     2   511   502  5.477135901E+01  4.198053721E-01  1.861769070E+02  1.940667893E+02  0.000000000E+00  0.00000E+00  9.000E+00
#rwgt            1           1   2.8650692252714098E-002           6      337578           0
</event>
<event>
      5   9999  3.19816E-02  1.98198E+01 -1.00000E+00  1.66694E-01
      21    -1     0     0   502   501  0.000000000E+00  0.000000000E+00  8.245266258E+01  8.245266258E+01  0.000000000E+00  0.00000E+00  9.000E+00
      21    -1     0     0   501   512  0.000000000E+00  0.000000000E+00 -2.452448231E+03  2.452448231E+03  0.000000000E+00  0.00000E+00  9.000E+00
      25     1     1     2     0     0 -3.668242338E+01  2.400838975E+02 -1.858923904E+02  3.304040842E+02  1.250000000E+02  0.00000E+00  9.000E+00
      25     1     1     2     0     0  1.693781583E+01 -2.418088106E+02 -1.871773902E+03  1.891539301E+03  1.250000000E+02  0.00000E+00  9.000E+00
      21     1     1     2   502   512  1.974460755E+01  1.724913059E+00 -3.123292763E+02  3.129575078E+02  3.814697266E-06  0.00000E+00  9.000E+00
#rwgt            2          11   2.9907754366795534E-003           6      337756           0
</event>
<event>
      5   9999  3.19816E-02  1.24925E+02 -1.00000E+00  1.19631E-01
      21    -1     0     0   502   511  0.000000000E+00  0.000000000E+00  2.322329328E+02  2.322329328E+02  0.000000000E+00  0.00000E+00  9.000E+00
      21    -1     0     0   501   502  0.000000000E+00  0.000000000E+00 -4.982970382E+02  4.982970382E+02  0.000000000E+00  0.00000E+00  9.000E+00
      25     1     1     2     0     0 -9.281712906E+01 -1.672491136E+02 -2.430820879E+02  3.336183252E+02  1.250000000E+02  0.00000E+00  9.000E+00
      25     1     1     2     0     0 -1.090431166E+01  2.368775995E+02  8.092593899E+00  2.681797741E+02  1.250000000E+02  0.00000E+00  9.000E+00
      21     1     1     2   501   511  1.037214407E+02 -6.962848593E+01 -3.107461134E+01  1.287318717E+02  2.545613826E-06  0.00000E+00  9.000E+00
#rwgt            2          11   3.4177965649282377E-003           6      337791           0
</event>
<event>
      5   9999  3.19816E-02  3.80755E+01 -1.00000E+00  1.46181E-01
      21    -1     0     0   502   501  0.000000000E+00  0.000000000E+00  2.020060555E+02  2.020060555E+02  0.000000000E+00  0.00000E+00  9.000E+00
      21    -1     0     0   501   512  0.000000000E+00  0.000000000E+00 -2.175388442E+03  2.175388442E+03  0.000000000E+00  0.00000E+00  9.000E+00
      25     1     1     2     0     0 -1.006139337E+02 -1.707061760E+02 -1.329136185E+02  2.693599676E+02  1.250000000E+02  0.00000E+00  9.000E+00
      25     1     1     2     0     0  1.084275339E+02  1.334410063E+02  4.902699692E+01  2.181551711E+02  1.250000000E+02  0.00000E+00  9.000E+00
      21     1     1     2   502   512 -7.813600232E+00  3.726516976E+01 -1.889495764E+03  1.889879358E+03  3.051757812E-05  0.00000E+00  9.000E+00
#rwgt            1           1   2.7390831449601982E-002           6      337811           0
</event>
<event>
      5   9999  3.19816E-02  5.88440E+01 -1.00000E+00  1.35156E-01
      21    -1     0     0   502   501  0.000000000E+00  0.000000000E+00  1.895122076E+02  1.895122076E+02  0.000000000E+00  0.00000E+00  9.000E+00
      21    -1     0     0   501   511  0.000000000E+00  0.000000000E+00 -1.029615689E+03  1.029615689E+03  0.000000000E+00  0.00000E+00  9.000E+00
      25     1     1     2     0     0  5.822362487E+01  1.045540243E+02 -1.341753797E+02  2.189738957E+02  1.250000000E+02  0.00000E+00  9.000E+00
      25     1     1     2     0     0 -2.298755301E+01 -5.742621128E+01  1.127630919E+02  1.793508077E+02  1.250000000E+02  0.00000E+00  9.000E+00
      21     1     1     2   502   511 -3.523607186E+01 -4.712781297E+01 -8.186911937E+02  8.208031933E+02  0.000000000E+00  0.00000E+00  9.000E+00
#rwgt            1           1   2.4929958878507588E-002           6      337869           0
</event>
<event>
      5   9999  3.19816E-02  3.87832E+01 -1.00000E+00  1.45677E-01
      21    -1     0     0   502   501  0.000000000E+00  0.000000000E+00  3.620643323E+02  3.620643323E+02  0.000000000E+00  0.00000E+00  9.000E+00
      21    -1     0     0   512   502  0.000000000E+00  0.000000000E+00 -4.637838476E+02  4.637838476E+02  0.000000000E+00  0.00000E+00  9.000E+00
      25     1     1     2     0     0 -3.045439099E+02 -1.902293864E+01 -2.221435813E+02  3.975948138E+02  1.250000000E+02  0.00000E+00  9.000E+00
      25     1     1     2     0     0  2.882310447E+02  5.420851792E+01  1.731522914E+02  3.627980355E+02  1.250000000E+02  0.00000E+00  9.000E+00
      21     1     1     2   512   501  1.631286511E+01 -3.518557928E+01 -5.272822528E+01  6.545533056E+01  9.536743164E-07  0.00000E+00  9.000E+00
#rwgt            1           1   2.8571113058013953E-002           6      337977           0
</event>
<event>
      5   9999  3.19816E-02  2.13212E+02 -1.00000E+00  1.10646E-01
      21    -1     0     0   502   501  0.000000000E+00  0.000000000E+00  9.409947798E+01  9.409947798E+01  0.000000000E+00  0.00000E+00  9.000E+00
      21    -1     0     0   501   511  0.000000000E+00  0.000000000E+00 -2.049881814E+03  2.049881814E+03  0.000000000E+00  0.00000E+00  9.000E+00
      25     1     1     2     0     0 -3.391291691E+00  3.591813666E+02 -4.847958092E+02  6.161775163E+02  1.250000000E+02  0.00000E+00  9.000E+00
      25     1     1     2     0     0  3.959619539E+01 -1.490655228E+02 -7.634083482E+02  7.888001616E+02  1.250000000E+02  0.00000E+00  9.000E+00
      21     1     1     2   502   511 -3.620490370E+01 -2.101158438E+02 -7.075781785E+02  7.390036141E+02  1.078959322E-05  0.00000E+00  9.000E+00
#rwgt            1           1   2.7906130397580234E-002           6      338088           0
</event>
<event>
      5   9999  3.19816E-02  1.94760E+01 -1.00000E+00  1.67326E-01
      21    -1     0     0   502   512  0.000000000E+00  0.000000000E+00  3.627777656E+02  3.627777656E+02  0.000000000E+00  0.00000E+00  9.000E+00
      21    -1     0     0   501   502  0.000000000E+00  0.000000000E+00 -5.592479324E+02  5.592479324E+02  0.000000000E+00  0.00000E+00  9.000E+00
      25     1     1     2     0     0  2.520947795E+02  1.136477932E+02 -4.214656668E+02  5.193514292E+02  1.250000000E+02  0.00000E+00  9.000E+00
      25     1     1     2     0     0 -2.556967211E+02 -1.327877991E+02  2.069292651E+02  3.761092043E+02  1.250000000E+02  0.00000E+00  9.000E+00
      21     1     1     2   501   512  3.601941645E+00  1.914000592E+01  1.806623481E+01  2.656506447E+01  2.384185791E-07  0.00000E+00  9.000E+00
#rwgt            1           1   2.6198280976338098E-002           6      338147           0
</event>
<event>
      5   9999  3.19816E-02  7.78670E+01 -1.00000E+00  1.28920E-01
       2    -1     0     0   502     0  0.000000000E+00  0.000000000E+00  4.533112276E+03  4.533112276E+03  0.000000000E+00  0.00000E+00  9.000E+00
      21    -1     0     0   501   502  0.000000000E+00  0.000000000E+00 -6.499799699E+01  6.499799699E+01  0.000000000E+00  0.00000E+00  9.000E+00
      25     1     1     2     0     0  1.556774916E+02 -4.815270445E+01  2.456920887E+02  3.202245568E+02  1.250000000E+02  0.00000E+00  9.000E+00
      25     1     1     2     0     0 -8.394978001E+01  1.784743399E+01  1.827492784E+02  2.374624080E+02  1.250000000E+02  0.00000E+00  9.000E+00
       2     1     1     2   501     0 -7.172771157E+01  3.030527046E+01  4.039672912E+03  4.040423308E+03  6.103515625E-05  0.00000E+00  9.000E+00
#rwgt            2          18   2.6281735515581591E-003           6      338408           0
</event>
<event>
      5   9999  3.19816E-02  6.59320E+01 -1.00000E+00  1.32551E-01
      21    -1     0     0   502   511  0.000000000E+00  0.000000000E+00  5.815832859E+02  5.815832859E+02  0.000000000E+00  0.00000E+00  9.000E+00
      21    -1     0     0   501   502  0.000000000E+00  0.000000000E+00 -1.200121991E+03  1.200121991E+03  0.000000000E+00  0.00000E+00  9.000E+00
      25     1     1     2     0     0 -1.158919367E+01 -1.380906277E+02 -4.840773495E+02  5.188055620E+02  1.250000000E+02  0.00000E+00  9.000E+00
      25     1     1     2     0     0  2.954484394E+01  2.015305332E+02 -6.761873553E+02  7.171762636E+02  1.250000000E+02  0.00000E+00  9.000E+00
      21     1     1     2   501   511 -1.795565027E+01 -6.343990549E+01  5.417259995E+02  5.457234515E+02  1.078959322E-05  0.00000E+00  9.000E+00
#rwgt            1           1   3.2684932299760001E-002           6      338442           0
</event>
<event>
      5   9999  3.19816E-02  1.95795E+01 -1.00000E+00  1.67134E-01
      21    -1     0     0   502   501  0.000000000E+00  0.000000000E+00  1.971853127E+02  1.971853127E+02  0.000000000E+00  0.00000E+00  9.000E+00
      21    -1     0     0   501   512  0.000000000E+00  0.000000000E+00 -1.554589470E+02  1.554589470E+02  0.000000000E+00  0.00000E+00  9.000E+00
      25     1     1     2     0     0  2.803327240E+01 -2.932264017E+01 -7.652167713E+01  1.520731688E+02  1.250000000E+02  0.00000E+00  9.000E+00
      25     1     1     2     0     0 -4.442054044E+01  4.003780862E+01  1.162799898E+02  1.808929146E+02  1.250000000E+02  0.00000E+00  9.000E+00
      21     1     1     2   502   512  1.638726804E+01 -1.071516845E+01  1.968053040E+00  1.967817628E+01  2.819432010E-07  0.00000E+00  9.000E+00
#rwgt            1           1   2.4615674550424075E-002           6      338506           0
</event>
<event>
      5   9999  3.19816E-02  5.70668E+01 -1.00000E+00  1.35877E-01
      21    -1     0     0   502   511  0.000000000E+00  0.000000000E+00  5.188945025E+02  5.188945025E+02  0.000000000E+00  0.00000E+00  9.000E+00
      21    -1     0     0   501   502  0.000000000E+00  0.000000000E+00 -1.083243227E+03  1.083243227E+03  0.000000000E+00  0.00000E+00  9.000E+00
      25     1     1     2     0     0  1.446165312E+01 -6.087040276E+02 -3.633286638E+02  7.199739236E+02  1.250000000E+02  0.00000E+00  9.000E+00
      25     1     1     2     0     0  2.984554225E+01  5.727388900E+02 -3.766926613E+02  6.974546248E+02  1.250000000E+02  0.00000E+00  9.000E+00
      21     1     1     2   501   511 -4.430719537E+01  3.596513762E+01  1.756726010E+02  1.847091807E+02  4.264961200E-06  0.00000E+00  9.000E+00
#rwgt            1           1   3.1498704951545990E-002           6      338608           0
</event>
<event>
      5   9999  3.19816E-02  6.60612E+01 -1.00000E+00  1.32507E-01
      21    -1     0     0   502   501  0.000000000E+00  0.000000000E+00  9.216728187E+02  9.216728187E+02  0.000000000E+00  0.00000E+00  9.000E+00
      21    -1     0     0   501   512  0.000000000E+00  0.000000000E+00 -2.444508763E+02  2.444508763E+02  0.000000000E+00  0.00000E+00  9.000E+00
      25     1     1     2     0     0  2.766847656E+01  2.539724373E+02  7.002939505E+02  7.558466516E+02  1.250000000E+02  0.00000E+00  9.000E+00
      25     1     1     2     0     0  3.732711271E+01 -2.657898645E+02  6.206741233E+01  3.025143453E+02  1.250000000E+02  0.00000E+00  9.000E+00
      21     1     1     2   502   512 -6.499558926E+01  1.181742723E+01 -8.513942043E+01  1.077626982E+02  1.348699152E-06  0.00000E+00  9.000E+00
#rwgt            1           1   2.9230322748514791E-002           6      338727           0
</event>
<event>
      5   9999  3.19816E-02  8.66719E+01 -1.00000E+00  1.26688E-01
      21    -1     0     0   502   501  0.000000000E+00  0.000000000E+00  7.407207040E+02  7.407207040E+02  0.000000000E+00  0.00000E+00  9.000E+00
      21    -1     0     0   511   502  0.000000000E+00  0.000000000E+00 -3.392523206E+02  3.392523206E+02  0.000000000E+00  0.00000E+00  9.000E+00
      25     1     1     2     0     0  3.690177423E+02  1.119943251E+02 -3.284328599E+01  4.067191961E+02  1.250000000E+02  0.00000E+00  9.000E+00
      25     1     1     2     0     0 -3.688873868E+02 -2.532256690E+01  4.377817019E+02  5.865125361E+02  1.250000000E+02  0.00000E+00  9.000E+00
      21     1     1     2   511   501 -1.303555108E-01 -8.667175825E+01 -3.470032442E+00  8.674129233E+01  9.518098487E-07  0.00000E+00  9.000E+00
#rwgt            1           1   3.0381554313308648E-002           6      338830           0
</event>
<event>
      5   9999  3.19816E-02  1.05319E+02 -1.00000E+00  1.22824E-01
       2    -1     0     0   502     0  0.000000000E+00  0.000000000E+00  7.607780234E+02  7.607780234E+02  0.000000000E+00  0.00000E+00  9.000E+00
      21    -1     0     0   501   502  0.000000000E+00  0.000000000E+00 -1.049400564E+03  1.049400564E+03  0.000000000E+00  0.00000E+00  9.000E+00
      25     1     1     2     0     0 -1.579370481E+02  1.654942181E+01 -9.452193047E+02  9.665829134E+02  1.250000000E+02  0.00000E+00  9.000E+00
      25     1     1     2     0     0  7.109627662E+01  4.303916802E+01 -2.649963850E+01  1.524279547E+02  1.250000000E+02  0.00000E+00  9.000E+00
       2     1     1     2   501     0  8.684077149E+01 -5.958858983E+01  6.830964031E+02  6.911677188E+02  7.629394531E-06  0.00000E+00  9.000E+00
#rwgt            1           1   2.9063585101536636E-002           6      338951           0
</event>
<event>
      5   9999  3.19816E-02  1.24681E+02 -1.00000E+00  1.19667E-01
      21    -1     0     0   502   501  0.000000000E+00  0.000000000E+00  2.169299446E+03  2.169299446E+03  0.000000000E+00  0.00000E+00  9.000E+00
      21    -1     0     0   501   511  0.000000000E+00  0.000000000E+00 -1.013102425E+03  1.013102425E+03  0.000000000E+00  0.00000E+00  9.000E+00
      25     1     1     2     0     0 -4.447586825E+02 -1.023542381E+03  8.483192028E+02  1.407380461E+03  1.250000000E+02  0.00000E+00  9.000E+00
      25     1     1     2     0     0  3.642926439E+02  1.118781311E+03  6.923106772E+02  1.370875569E+03  1.250000000E+02  0.00000E+00  9.000E+00
      21     1     1     2   502   511  8.046603859E+01 -9.523893011E+01 -3.844328591E+02  4.041458405E+02  0.000000000E+00  0.00000E+00  9.000E+00
#rwgt            1           1   7.2538996982416573E-002           6      339040           0
</event>
<event>
      5   9999  3.19816E-02  1.32156E+02 -1.00000E+00  1.18616E-01
      21    -1     0     0   502   501  0.000000000E+00  0.000000000E+00  4.061807282E+02  4.061807282E+02  0.000000000E+00  0.00000E+00  9.000E+00
      21    -1     0     0   512   502  0.000000000E+00  0.000000000E+00 -3.418821344E+02  3.418821344E+02  0.000000000E+00  0.00000E+00  9.000E+00
      25     1     1     2     0     0 -9.044810870E+01 -1.582384798E+02 -3.286527800E+01  2.234399323E+02  1.250000000E+02  0.00000E+00  9.000E+00
      25     1     1     2     0     0  1.937266921E+02  7.578400393E+01  2.320570277E+02  3.357807478E+02  1.250000000E+02  0.00000E+00  9.000E+00
      21     1     1     2   512   501 -1.032785834E+02  8.245447583E+01 -1.348931559E+02  1.888421825E+02  1.907348633E-06  0.00000E+00  9.000E+00
#rwgt            1           1   3.2056939981605491E-002           6      339157           0
</event>
<event>
      5   9999  3.19816E-02  1.47957E+02 -1.00000E+00  1.16630E-01
      21    -1     0     0   502   501  0.000000000E+00  0.000000000E+00  9.945281767E+02  9.945281767E+02  0.000000000E+00  0.00000E+00  9.000E+00
      21    -1     0     0   501   511  0.000000000E+00  0.000000000E+00 -2.734676894E+02  2.734676894E+02  0.000000000E+00  0.00000E+00  9.000E+00
      25     1     1     2     0     0  1.806622096E+02 -1.109969941E+02  3.266671521E+00  2.461601873E+02  1.250000000E+02  0.00000E+00  9.000E+00
      25     1     1     2     0     0 -2.862100462E+02  2.146835328E+02  7.753987101E+02  8.630604668E+02  1.250000000E+02  0.00000E+00  9.000E+00
      21     1     1     2   502   511  1.055478366E+02 -1.036865387E+02 -5.760489422E+01  1.587752120E+02  3.162979880E-06  0.00000E+00  9.000E+00
#rwgt            1           1   2.7445125162187955E-002           6      339199           0
</event>
<event>
      5   9999  3.19816E-02  1.83474E+01 -1.00000E+00  1.69520E-01
      21    -1     0     0   502   512  0.000000000E+00  0.000000000E+00  3.376342329E+02  3.376342329E+02  0.000000000E+00  0.00000E+00  9.000E+00
      21    -1     0     0   501   502  0.000000000E+00  0.000000000E+00 -5.513887375E+02  5.513887375E+02  0.000000000E+00  0.00000E+00  9.000E+00
      25     1     1     2     0     0  1.011048586E+02 -1.066334008E+02 -4.979621257E+02  5.340263601E+02  1.250000000E+02  0.00000E+00  9.000E+00
      25     1     1     2     0     0 -1.130653348E+02  9.272026883E+01  2.712316118E+02  3.325242930E+02  1.250000000E+02  0.00000E+00  9.000E+00
      21     1     1     2   501   512  1.196047623E+01  1.391313196E+01  1.297600932E+01  2.247231743E+01  2.384185791E-07  0.00000E+00  9.000E+00
#rwgt            1           1   2.9761442735505402E-002           6      339244           0
</event>
<event>
      5   9999  3.19816E-02  8.12023E+01 -1.00000E+00  1.28037E-01
      21    -1     0     0   511   501  0.000000000E+00  0.000000000E+00  1.921621507E+03  1.921621507E+03  0.000000000E+00  0.00000E+00  9.000E+00
      21    -1     0     0   501   502  0.000000000E+00  0.000000000E+00 -3.941110801E+02  3.941110801E+02  0.000000000E+00  0.00000E+00  9.000E+00
      25     1     1     2     0     0  4.589725706E+02 -3.370230218E+02  3.302700426E+01  5.839144807E+02  1.250000000E+02  0.00000E+00  9.000E+00
      25     1     1     2     0     0 -3.955920806E+02  2.862615845E+02  4.251501530E+02  6.594061280E+02  1.250000000E+02  0.00000E+00  9.000E+00
      21     1     1     2   511   502 -6.338048994E+01  5.076143721E+01  1.069333269E+03  1.072411978E+03  0.000000000E+00  0.00000E+00  9.000E+00
#rwgt            2          11   1.2958953099859690E-003           6      339494           0
</event>
<event>
      5   9999  3.19816E-02  3.71773E+02 -1.00000E+00  1.02651E-01
      21    -1     0     0   502   501  0.000000000E+00  0.000000000E+00  4.338265689E+02  4.338265689E+02  0.000000000E+00  0.00000E+00  9.000E+00
      21    -1     0     0   501   512  0.000000000E+00  0.000000000E+00 -8.024455508E+02  8.024455508E+02  0.000000000E+00  0.00000E+00  9.000E+00
      25     1     1     2     0     0 -3.868943864E+01  2.113013759E+01  7.226866553E+01  1.509672660E+02  1.250000000E+02  0.00000E+00  9.000E+00
      25     1     1     2     0     0 -1.940192694E+02  2.688039517E+02  1.519790833E+02  3.855148286E+02  1.250000000E+02  0.00000E+00  9.000E+00
      21     1     1     2   502   512  2.327087081E+02 -2.899340892E+02 -5.928667307E+02  6.997900251E+02  7.629394531E-06  0.00000E+00  9.000E+00
#rwgt            2          11   1.4212458959640382E-002           6      339544           0
</event>
<event>
      5   9999  3.19816E-02  1.26211E+01 -1.00000E+00  1.84753E-01
      21    -1     0     0   511   501  0.000000000E+00  0.000000000E+00  7.187320677E+01  7.187320677E+01  0.000000000E+00  0.00000E+00  9.000E+00
      21    -1     0     0   501   502  0.000000000E+00  0.000000000E+00 -7.252444253E+02  7.252444253E+02  0.000000000E+00  0.00000E+00  9.000E+00
      25     1     1     2     0     0 -1.593058849E+02 -3.447134679E+01 -3.463550322E+02  4.026828120E+02  1.250000000E+02  0.00000E+00  9.000E+00
      25     1     1     2     0     0  1.719009882E+02  3.366103340E+01 -3.134963829E+02  3.802472840E+02  1.250000000E+02  0.00000E+00  9.000E+00
      21     1     1     2   511   502 -1.259510330E+01  8.103133955E-01  6.480196537E+00  1.418753615E+01  4.042583694E-07  0.00000E+00  9.000E+00
#rwgt            1           1   3.1717116363706180E-002           6      339564           0
</event>
<event>
      5   9999  3.19816E-02  3.52508E+01 -1.00000E+00  1.48329E-01
      21    -1     0     0   502   512  0.000000000E+00  0.000000000E+00  9.165215416E+02  9.165215416E+02  0.000000000E+00  0.00000E+00  9.000E+00
      21    -1     0     0   501   502  0.000000000E+00  0.000000000E+00 -1.367864307E+02  1.367864307E+02  0.000000000E+00  0.00000E+00  9.000E+00
      25     1     1     2     0     0 -2.580548936E+02  1.875907944E+01  5.410365717E+02  6.126090132E+02  1.250000000E+02  0.00000E+00  9.000E+00
      25     1     1     2     0     0  2.848308356E+02  4.168339221E+00  1.502101292E+02  3.454476268E+02  1.250000000E+02  0.00000E+00  9.000E+00
      21     1     1     2   501   512 -2.677594198E+01 -2.292741866E+01  8.848841001E+01  9.525133229E+01  1.348699152E-06  0.00000E+00  9.000E+00
#rwgt            1           1   2.8253303809739179E-002           6      339739           0
</event>
<event>
      5   9999  3.19816E-02  2.26309E+01 -1.00000E+00  1.62059E-01
      21    -1     0     0   502   501  0.000000000E+00  0.000000000E+00  4.104849980E+02  4.104849980E+02  0.000000000E+00  0.00000E+00  9.000E+00
      21    -1     0     0   501   511  0.000000000E+00  0.000000000E+00 -1.907453871E+02  1.907453871E+02  0.000000000E+00  0.00000E+00  9.000E+00
      25     1     1     2     0     0  1.844421378E+02 -8.480459422E+01  3.471823369E+01  2.409171583E+02  1.250000000E+02  0.00000E+00  9.000E+00
      25     1     1     2     0     0 -2.064059921E+02  9.025851285E+01  2.056844328E+02  3.296681947E+02  1.250000000E+02  0.00000E+00  9.000E+00
      21     1     1     2   502   511  2.196385432E+01 -5.453918631E+00 -2.066305559E+01  3.064503208E+01  5.331201500E-07  0.00000E+00  9.000E+00
#rwgt            1           1   2.4832404568429920E-002           6      339873           0
</event>
<event>
      5   9999  3.19816E-02  9.53460E+01 -1.00000E+00  1.24766E-01
      21    -1     0     0   502   512  0.000000000E+00  0.000000000E+00  4.855536740E+02  4.855536740E+02  0.000000000E+00  0.00000E+00  9.000E+00
      21    -1     0     0   501   502  0.000000000E+00  0.000000000E+00 -2.385571467E+02  2.385571467E+02  0.000000000E+00  0.00000E+00  9.000E+00
      25     1     1     2     0     0  5.433671519E+01  6.750373199E+01 -1.597522168E+02  2.205787914E+02  1.250000000E+02  0.00000E+00  9.000E+00
      25     1     1     2     0     0 -1.456143442E+02 -3.994909508E+01  2.259169418E+02  2.991035473E+02  1.250000000E+02  0.00000E+00  9.000E+00
      21     1     1     2   501   512  9.127762897E+01 -2.755463691E+01  1.808318022E+02  2.044284820E+02  5.046370146E-06  0.00000E+00  9.000E+00
#rwgt            2          11   2.2756862783018831E-003           6      340179           0
</event>
<event>
      5   9999  3.19816E-02  9.44804E+01 -1.00000E+00  1.24947E-01
      21    -1     0     0   502   501  0.000000000E+00  0.000000000E+00  2.576221653E+02  2.576221653E+02  0.000000000E+00  0.00000E+00  9.000E+00
      21    -1     0     0   511   502  0.000000000E+00  0.000000000E+00 -4.715056269E+02  4.715056269E+02  0.000000000E+00  0.00000E+00  9.000E+00
      25     1     1     2     0     0  1.601187872E+02 -2.197310410E+02 -9.846182900E+01  3.150229963E+02  1.250000000E+02  0.00000E+00  9.000E+00
      25     1     1     2     0     0 -1.416599314E+02  1.270713735E+02  4.101786103E+01  2.313485143E+02  1.250000000E+02  0.00000E+00  9.000E+00
      21     1     1     2   511   501 -1.845885578E+01  9.265966753E+01 -1.564394936E+02  1.827562817E+02  1.907348633E-06  0.00000E+00  9.000E+00
#rwgt            1           1   2.6363477078551783E-002           6      340199           0
</event>
<event>
      5   9999  3.19816E-02  1.32340E+02 -1.00000E+00  1.18591E-01
      21    -1     0     0   502   501  0.000000000E+00  0.000000000E+00  2.212394647E+02  2.212394647E+02  0.000000000E+00  0.00000E+00  9.000E+00
      21    -1     0     0   501   512  0.000000000E+00  0.000000000E+00 -1.157827005E+03  1.157827005E+03  0.000000000E+00  0.00000E+00  9.000E+00
      25     1     1     2     0     0 -2.255436434E+02 -1.018423652E+02  4.702418583E+01  2.812082440E+02  1.250000000E+02  0.00000E+00  9.000E+00
      25     1     1     2     0     0  2.312806350E+02  2.340578532E+02 -6.547725225E+02  7.433880999E+02  1.250000000E+02  0.00000E+00  9.000E+00
      21     1     1     2   502   512 -5.736991628E+00 -1.322154880E+02 -3.288392038E+02  3.544701261E+02  3.814697266E-06  0.00000E+00  9.000E+00
#rwgt            1           1   2.9163902418990074E-002           6      340311           0
</event>
<event>
      5   9999  3.19816E-02  9.93729E+00 -1.00000E+00  1.96073E-01
      21    -1     0     0   502   501  0.000000000E+00  0.000000000E+00  2.978496740E+02  2.978496740E+02  0.000000000E+00  0.00000E+00  9.000E+00
      21    -1     0     0   511   502  0.000000000E+00  0.000000000E+00 -3.872484670E+02  3.872484670E+02  0.000000000E+00  0.00000E+00  9.000E+00
      25     1     1     2     0     0  2.125592741E+02  2.071149059E+02  3.211954730E+01  3.236274008E+02  1.250000000E+02  0.00000E+00  9.000E+00
      25     1     1     2     0     0 -2.123846223E+02 -2.170506605E+02 -1.101601786E+02  3.463791015E+02  1.250000000E+02  0.00000E+00  9.000E+00
      21     1     1     2   511   501 -1.746518249E-01  9.935754573E+00 -1.135816175E+01  1.509163876E+01  1.685873940E-07  0.00000E+00  9.000E+00
#rwgt            1           1   3.0807867460450292E-002           6      340387           0
</event>
<event>
      5   9999  3.19816E-02  9.80941E+01 -1.00000E+00  1.24205E-01
      21    -1     0     0   502   512  0.000000000E+00  0.000000000E+00  4.512873618E+02  4.512873618E+02  0.000000000E+00  0.00000E+00  9.000E+00
      21    -1     0     0   501   502  0.000000000E+00  0.000000000E+00 -4.877931382E+02  4.877931382E+02  0.000000000E+00  0.00000E+00  9.000E+00
      25     1     1     2     0     0  1.447866418E+02  3.065486156E+02  9.955340526E+01  3.747947517E+02  1.250000000E+02  0.00000E+00  9.000E+00
      25     1     1     2     0     0 -2.408103858E+02 -3.265957786E+02 -1.743326719E+02  4.589894606E+02  1.250000000E+02  0.00000E+00  9.000E+00
      21     1     1     2   501   512  9.602374396E+01  2.004716294E+01  3.827349029E+01  1.052962877E+02  1.784161275E-06  0.00000E+00  9.000E+00
#rwgt            1           1   3.0382559163517904E-002           6      340615           0
</event>
<event>
      5   9999  3.19816E-02  3.56118E+01 -1.00000E+00  1.48041E-01
      21    -1     0     0   502   501  0.000000000E+00  0.000000000E+00  1.371016011E+03  1.371016011E+03  0.000000000E+00  0.00000E+00  9.000E+00
      21    -1     0     0   511   502  0.000000000E+00  0.000000000E+00 -1.484648165E+02  1.484648165E+02  0.000000000E+00  0.00000E+00  9.000E+00
      25     1     1     2     0     0 -6.289406722E+01 -3.084063112E+02  1.073506661E+03  1.125660547E+03  1.250000000E+02  0.00000E+00  9.000E+00
      25     1     1     2     0     0  8.579958060E+01  2.811383820E+02  1.590599541E+02  3.568268864E+02  1.250000000E+02  0.00000E+00  9.000E+00
      21     1     1     2   511   501 -2.290551338E+01  2.726792919E+01 -1.001542095E+01  3.699339350E+01  2.920019320E-07  0.00000E+00  9.000E+00
#rwgt            1           1   2.7635122586902969E-002           6      340681           0
</event>
<event>
      5   9999  3.19816E-02  3.76356E+01 -1.00000E+00  1.46501E-01
      21    -1     0     0   512   501  0.000000000E+00  0.000000000E+00  4.096601342E+02  4.096601342E+02  0.000000000E+00  0.00000E+00  9.000E+00
      21    -1     0     0   501   502  0.000000000E+00  0.000000000E+00 -6.061672748E+02  6.061672748E+02  0.000000000E+00  0.00000E+00  9.000E+00
      25     1     1     2     0     0  1.676970456E+02 -2.648100667E+01  1.338577803E+01  2.112527440E+02  1.250000000E+02  0.00000E+00  9.000E+00
      25     1     1     2     0     0 -2.052168025E+02  2.943224874E+01 -4.769543224E+02  5.348743955E+02  1.250000000E+02  0.00000E+00  9.000E+00
      21     1     1     2   512   502  3.751975690E+01 -2.951242070E+00  2.670614038E+02  2.697002695E+02  5.394796609E-06  0.00000E+00  9.000E+00
#rwgt            1           1   2.6981540218782560E-002           6      340823           0
</event>
<event>
      5   9999  3.19816E-02  1.39455E+02 -1.00000E+00  1.17662E-01
      21    -1     0     0   502   501  0.000000000E+00  0.000000000E+00  2.668885300E+02  2.668885300E+02  0.000000000E+00  0.00000E+00  9.000E+00
      21    -1     0     0   501   511  0.000000000E+00  0.000000000E+00 -7.793958780E+02  7.793958780E+02  0.000000000E+00  0.00000E+00  9.000E+00
      25     1     1     2     0     0 -2.040832300E+02  1.738096161E+02 -2.599740869E+02  3.937909004E+02  1.250000000E+02  0.00000E+00  9.000E+00
      25     1     1     2     0     0  2.970935822E+02 -2.777169439E+02 -8.387609734E+01  4.336490485E+02  1.250000000E+02  0.00000E+00  9.000E+00
      21     1     1     2   502   511 -9.301035229E+01  1.039073278E+02 -1.686571638E+02  2.188444591E+02  1.907348633E-06  0.00000E+00  9.000E+00
#rwgt            1           1   2.8351352865574997E-002           6      340960           0
</event>
<event>
      5   9999  3.19816E-02  2.30964E+01 -1.00000E+00  1.61371E-01
      21    -1     0     0   512   501  0.000000000E+00  0.000000000E+00  1.009038602E+03  1.009038602E+03  0.000000000E+00  0.00000E+00  9.000E+00
      21    -1     0     0   501   502  0.000000000E+00  0.000000000E+00 -3.821515423E+02  3.821515423E+02  0.000000000E+00  0.00000E+00  9.000E+00
      25     1     1     2     0     0 -4.186046566E+02  9.369812296E+01 -1.062890368E+02  4.592728558E+02  1.250000000E+02  0.00000E+00  9.000E+00
      25     1     1     2     0     0  4.416555985E+02 -9.224990091E+01  4.552371363E+02  6.530203382E+02  1.250000000E+02  0.00000E+00  9.000E+00
      21     1     1     2   512   502 -2.305094188E+01 -1.448222056E+00  2.779389599E+02  2.788969499E+02  3.814697266E-06  0.00000E+00  9.000E+00
#rwgt            1           1   2.7828451562644341E-002           6      341041           0
</event>
<event>
      5   9999  3.19816E-02  5.77140E+01 -1.00000E+00  1.35611E-01
      21    -1     0     0   502   511  0.000000000E+00  0.000000000E+00  4.181419272E+02  4.181419272E+02  0.000000000E+00  0.00000E+00  9.000E+00
      21    -1     0     0   501   502  0.000000000E+00  0.000000000E+00 -9.467406000E+02  9.467406000E+02  0.000000000E+00  0.00000E+00  9.000E+00
      25     1     1     2     0     0  7.784703135E+01 -2.949723470E+00 -7.302722835E+02  7.449774958E+02  1.250000000E+02  0.00000E+00  9.000E+00
      25     1     1     2     0     0 -1.297037980E+02 -2.238361289E+01 -1.670525744E+02  2.466894079E+02  1.250000000E+02  0.00000E+00  9.000E+00
      21     1     1     2   501   511  5.185676661E+01  2.533333636E+01  3.687261851E+02  3.732156236E+02  5.394796609E-06  0.00000E+00  9.000E+00
#rwgt            1           1   3.0417721775367890E-002           6      341229           0
</event>
<event>
      5   9999  3.19816E-02  6.02225E+01 -1.00000E+00  1.34618E-01
      21    -1     0     0   502   501  0.000000000E+00  0.000000000E+00  3.509384699E+02  3.509384699E+02  0.000000000E+00  0.00000E+00  9.000E+00
      21    -1     0     0   501   512  0.000000000E+00  0.000000000E+00 -4.364372562E+02  4.364372562E+02  0.000000000E+00  0.00000E+00  9.000E+00
      25     1     1     2     0     0 -3.571352882E+02 -4.228377240E+01 -3.166822935E+01  3.820489605E+02  1.250000000E+02  0.00000E+00  9.000E+00
      25     1     1     2     0     0  2.994736628E+02  2.490882274E+01 -1.389419381E+00  3.254717417E+02  1.250000000E+02  0.00000E+00  9.000E+00
      21     1     1     2   502   512  5.766162545E+01  1.737494966E+01 -5.244113761E+01  7.985502388E+01  9.536743164E-07  0.00000E+00  9.000E+00
#rwgt            1           1   2.9495005969696390E-002           6      341292           0
</event>
<event>
      5   9999  3.19816E-02  6.22895E+01 -1.00000E+00  1.33840E-01
      21    -1     0     0   511   501  0.000000000E+00  0.000000000E+00  2.236171664E+02  2.236171664E+02  0.000000000E+00  0.00000E+00  9.000E+00
      21    -1     0     0   501   502  0.000000000E+00  0.000000000E+00 -5.819875704E+02  5.819875704E+02  0.000000000E+00  0.00000E+00  9.000E+00
      25     1     1     2     0     0  9.433216336E+00  2.026149521E+02 -3.819757775E+02  4.501914026E+02  1.250000000E+02  0.00000E+00  9.000E+00
      25     1     1     2     0     0 -2.417192178E+01 -2.631356383E+02  1.797390067E+01  2.928697783E+02  1.250000000E+02  0.00000E+00  9.000E+00
      21     1     1     2   511   502  1.473870544E+01  6.052068623E+01  5.631472804E+00  6.254355591E+01  5.022376641E-07  0.00000E+00  9.000E+00
#rwgt            1           1   2.9267807997154723E-002           6      341400           0
</event>
<event>
      5   9999  3.19816E-02  5.42051E+01 -1.00000E+00  1.37104E-01
      21    -1     0     0   502   512  0.000000000E+00  0.000000000E+00  4.376461997E+02  4.376461997E+02  0.000000000E+00  0.00000E+00  9.000E+00
      21    -1     0     0   501   502  0.000000000E+00  0.000000000E+00 -2.493249335E+02  2.493249335E+02  0.000000000E+00  0.00000E+00  9.000E+00
      25     1     1     2     0     0 -6.304134405E+01  1.000125611E+02  4.046257937E+01  1.767454208E+02  1.250000000E+02  0.00000E+00  9.000E+00
      25     1     1     2     0     0  1.095656416E+02 -1.278277295E+02 -1.168331152E+02  2.400406946E+02  1.250000000E+02  0.00000E+00  9.000E+00
      21     1     1     2   501   512 -4.652429758E+01  2.781516837E+01  2.646918019E+02  2.701850179E+02  0.000000000E+00  0.00000E+00  9.000E+00
#rwgt            1           1   2.4707244541568429E-002           6      341506           0
</event>
<event>
      5   9999  3.19816E-02  3.10817E+01 -1.00000E+00  1.51979E-01
      21    -1     0     0   502   511  0.000000000E+00  0.000000000E+00  1.311211891E+02  1.311211891E+02  0.000000000E+00  0.00000E+00  9.000E+00
      21    -1     0     0   501   502  0.000000000E+00  0.000000000E+00 -9.704706864E+02  9.704706864E+02  0.000000000E+00  0.00000E+00  9.000E+00
      25     1     1     2     0     0 -3.294812903E+02  3.058856188E+01 -4.161494982E+02  5.461675435E+02  1.250000000E+02  0.00000E+00  9.000E+00
      25     1     1     2     0     0  3.002823177E+02 -4.124195868E+01 -3.960836526E+02  5.141766519E+02  1.250000000E+02  0.00000E+00  9.000E+00
      21     1     1     2   501   511  2.919897260E+01  1.065339680E+01 -2.711634643E+01  4.124768003E+01  5.840038640E-07  0.00000E+00  9.000E+00
#rwgt            1           1   2.7810035922363488E-002           6      341560           0
</event>
<event>
      5   9999  3.19816E-02  1.09997E+02 -1.00000E+00  1.21995E-01
      21    -1     0     0   502   501  0.000000000E+00  0.000000000E+00  4.759387443E+02  4.759387443E+02  0.000000000E+00  0.00000E+00  9.000E+00
      21    -1     0     0   512   502  0.000000000E+00  0.000000000E+00 -6.595696446E+02  6.595696446E+02  0.000000000E+00  0.00000E+00  9.000E+00
      25     1     1     2     0     0  2.413415934E+02  1.535250248E+00  2.999168846E+02  4.047508609E+02  1.250000000E+02  0.00000E+00  9.000E+00
      25     1     1     2     0     0 -2.091211934E+02  1.036366771E+02 -3.280041495E+01  2.667828735E+02  1.250000000E+02  0.00000E+00  9.000E+00
      21     1     1     2   512   501 -3.222040005E+01 -1.051719273E+02 -4.507473700E+02  4.639746545E+02  0.000000000E+00  0.00000E+00  9.000E+00
#rwgt            1           1   2.8587108330391294E-002           6      341741           0
</event>
<event>
      5   9999  3.19816E-02  3.68566E+01 -1.00000E+00  1.47080E-01
      21    -1     0     0   511   501  0.000000000E+00  0.000000000E+00  3.316939832E+02  3.316939832E+02  0.000000000E+00  0.00000E+00  9.000E+00
      21    -1     0     0   501   502  0.000000000E+00  0.000000000E+00 -2.787600433E+03  2.787600433E+03  0.000000000E+00  0.00000E+00  9.000E+00
      25     1     1     2     0     0  5.455042783E+02 -3.985136745E+02 -2.120887654E+03  2.229389492E+03  1.250000000E+02  0.00000E+00  9.000E+00
      25     1     1     2     0     0 -5.389332779E+02  3.622475884E+02 -4.294776286E+02  7.885102579E+02  1.250000000E+02  0.00000E+00  9.000E+00
      21     1     1     2   511   502 -6.571000361E+00  3.626608606E+01  9.445883335E+01  1.013946657E+02  1.907348633E-06  0.00000E+00  9.000E+00
#rwgt            1           1   1.6319872921392219E-002           6      341792           0
</event>
<event>
      5   9999  3.19816E-02  9.80544E+00 -1.00000E+00  1.96749E-01
      21    -1     0     0   502   501  0.000000000E+00  0.000000000E+00  3.711057759E+02  3.711057759E+02  0.000000000E+00  0.00000E+00  9.000E+00
      21    -1     0     0   501   512  0.000000000E+00  0.000000000E+00 -1.365167894E+02  1.365167894E+02  0.000000000E+00  0.00000E+00  9.000E+00
      25     1     1     2     0     0 -1.406433784E+02  1.729740131E+01  1.023902712E+02  2.149151637E+02  1.250000000E+02  0.00000E+00  9.000E+00
      25     1     1     2     0     0  1.369957390E+02 -2.639912188E+01  1.704224380E+02  2.532460336E+02  1.250000000E+02  0.00000E+00  9.000E+00
      21     1     1     2   502   512  3.647639343E+00  9.101720570E+00 -3.822372267E+01  3.946136801E+01  6.743495762E-07  0.00000E+00  9.000E+00
#rwgt            1           1   2.8308123221474111E-002           6      341969           0
</event>
<event>
      5   9999  3.19816E-02  3.96103E+02 -1.00000E+00  1.01814E-01
      21    -1     0     0   502   501  0.000000000E+00  0.000000000E+00  1.500643834E+03  1.500643834E+03  0.000000000E+00  0.00000E+00  9.000E+00
      21    -1     0     0   501   511  0.000000000E+00  0.000000000E+00 -1.503625459E+03  1.503625459E+03  0.000000000E+00  0.00000E+00  9.000E+00
      25     1     1     2     0     0  8.560729693E+02  5.148036014E+02 -1.062235739E+02  1.012320169E+03  1.250000000E+02  0.00000E+00  9.000E+00
      25     1     1     2     0     0 -1.039947083E+03 -8.656428160E+02  4.840504878E+02  1.442483031E+03  1.250000000E+02  0.00000E+00  9.000E+00
      21     1     1     2   502   511  1.838741139E+02  3.508392146E+02 -3.808085391E+02  5.494660933E+02  7.629394531E-06  0.00000E+00  9.000E+00
#rwgt            2          11   3.9421612764413746E-003           6      342144           0
</event>
<event>
      5   9999  3.19816E-02  1.33956E+02 -1.00000E+00  1.18374E-01
      21    -1     0     0   502   501  0.000000000E+00  0.000000000E+00  2.972206562E+02  2.972206562E+02  0.000000000E+00  0.00000E+00  9.000E+00
      21    -1     0     0   512   502  0.000000000E+00  0.000000000E+00 -4.211951988E+02  4.211951988E+02  0.000000000E+00  0.00000E+00  9.000E+00
      25     1     1     2     0     0 -1.976406789E+01 -7.377542673E+01  6.766568760E+01  1.613600857E+02  1.250000000E+02  0.00000E+00  9.000E+00
      25     1     1     2     0     0 -1.141419963E+02  7.010946647E+01  1.191996797E+02  2.185801826E+02  1.250000000E+02  0.00000E+00  9.000E+00
      21     1     1     2   512   501  1.339060642E+02  3.665960264E+00 -3.108399098E+02  3.384755868E+02  0.000000000E+00  0.00000E+00  9.000E+00
#rwgt            2          11   6.3451829302350439E-003           6      342239           0
</event>
<event>
      5   9999  3.19816E-02  3.15014E+02 -1.00000E+00  1.04907E-01
       2    -1     0     0   502     0  0.000000000E+00  0.000000000E+00  4.087420995E+03  4.087420995E+03  0.000000000E+00  0.00000E+00  9.000E+00
      21    -1     0     0   501   502  0.000000000E+00  0.000000000E+00 -3.212670877E+02  3.212670877E+02  0.000000000E+00  0.00000E+00  9.000E+00
      25     1     1     2     0     0 -1.507172264E+02 -6.258808526E+02  5.921092771E+02  8.835501797E+02  1.250000000E+02  0.00000E+00  9.000E+00
      25     1     1     2     0     0 -1.174058442E+02  7.912408098E+02  8.280028874E+02  1.158041421E+03  1.250000000E+02  0.00000E+00  9.000E+00
       2     1     1     2   501     0  2.681230706E+02 -1.653599572E+02  2.346041743E+03  2.367096482E+03  6.103515625E-05  0.00000E+00  9.000E+00
#rwgt            1           1   3.5567276222794451E-002           6      342259           0
</event>
<event>
      5   9999  3.19816E-02  6.14528E+01 -1.00000E+00  1.34151E-01
      21    -1     0     0   502   501  0.000000000E+00  0.000000000E+00  1.029113107E+03  1.029113107E+03  0.000000000E+00  0.00000E+00  9.000E+00
      21    -1     0     0   511   502  0.000000000E+00  0.000000000E+00 -1.009457816E+02  1.009457816E+02  0.000000000E+00  0.00000E+00  9.000E+00
      25     1     1     2     0     0 -1.146357728E+02  3.222098080E+01  8.407222015E+02  8.582647448E+02  1.250000000E+02  0.00000E+00  9.000E+00
      25     1     1     2     0     0  1.069737361E+02 -9.319423090E+01  3.787808038E+01  1.928426661E+02  1.250000000E+02  0.00000E+00  9.000E+00
      21     1     1     2   511   501  7.662036652E+00  6.097325009E+01  4.956704372E+01  7.895147786E+01  1.168007728E-06  0.00000E+00  9.000E+00
#rwgt            1           1   2.4057007550816387E-002           6      342336           0
</event>
<event>
      5   9999  3.19816E-02  4.04676E+01 -1.00000E+00  1.44528E-01
      21    -1     0     0   502   501  0.000000000E+00  0.000000000E+00  4.339058882E+02  4.339058882E+02  0.000000000E+00  0.00000E+00  9.000E+00
      21    -1     0     0   512   502  0.000000000E+00  0.000000000E+00 -2.672025682E+02  2.672025682E+02  0.000000000E+00  0.00000E+00  9.000E+00
      25     1     1     2     0     0  1.467269922E+02  2.371008040E+02  6.300935050E+01  3.119948393E+02  1.250000000E+02  0.00000E+00  9.000E+00
      25     1     1     2     0     0 -1.867786006E+02 -2.313135079E+02  1.218398794E+02  3.447638914E+02  1.250000000E+02  0.00000E+00  9.000E+00
      21     1     1     2   512   501  4.005160841E+01 -5.787296121E+00 -1.814590988E+01  4.434972579E+01  4.768371582E-07  0.00000E+00  9.000E+00
#rwgt            2          11   2.4063472735255352E-003           6      342563           0
</event>
<event>
      5   9999  3.19816E-02  3.70952E+01 -1.00000E+00  1.46900E-01
      21    -1     0     0   502   501  0.000000000E+00  0.000000000E+00  1.624856502E+02  1.624856502E+02  0.000000000E+00  0.00000E+00  9.000E+00
      21    -1     0     0   501   511  0.000000000E+00  0.000000000E+00 -2.543426892E+02  2.543426892E+02  0.000000000E+00  0.00000E+00  9.000E+00
      25     1     1     2     0     0 -2.548712128E+01 -4.139110680E+01  7.124846830E+01  1.518688951E+02  1.250000000E+02  0.00000E+00  9.000E+00
      25     1     1     2     0     0  6.188224395E+01  3.421843619E+01 -6.047104021E+01  1.558270201E+02  1.250000000E+02  0.00000E+00  9.000E+00
      21     1     1     2   502   511 -3.639512267E+01  7.172670611E+00 -1.026344671E+02  1.091324242E+02  1.348699152E-06  0.00000E+00  9.000E+00
#rwgt            1           1   5.9291564601748704E-002           6      342583           0
</event>
<event>
      5   9999  3.19816E-02  4.35076E+01 -1.00000E+00  1.42612E-01
       2    -1     0     0   502     0  0.000000000E+00  0.000000000E+00  8.990965318E+02  8.990965318E+02  0.000000000E+00  0.00000E+00  9.000E+00
      21    -1     0     0   501   502  0.000000000E+00  0.000000000E+00 -2.636551490E+03  2.636551490E+03  0.000000000E+00  0.00000E+00  9.000E+00
      25     1     1     2     0     0  2.642587490E+02 -4.540084031E+02 -1.465994707E+03  1.562280960E+03  1.250000000E+02  0.00000E+00  9.000E+00
      25     1     1     2     0     0 -2.861588872E+02  4.916022144E+02 -1.046214176E+03  1.197392478E+03  1.250000000E+02  0.00000E+00  9.000E+00
       2     1     1     2   501     0  2.190013823E+01 -3.759381129E+01  7.747539246E+02  7.759745836E+02  0.000000000E+00  0.00000E+00  9.000E+00
#rwgt            1           1   9.4808824981035322E-002           6      342669           0
</event>
<event>
      5   9999  3.19816E-02  1.36223E+02 -1.00000E+00  1.18076E-01
      21    -1     0     0   511   501  0.000000000E+00  0.000000000E+00  6.255556442E+02  6.255556442E+02  0.000000000E+00  0.00000E+00  9.000E+00
      21    -1     0     0   501   502  0.000000000E+00  0.000000000E+00 -2.381526124E+02  2.381526124E+02  0.000000000E+00  0.00000E+00  9.000E+00
      25     1     1     2     0     0 -1.357933999E+02 -1.801116191E+02  2.766087533E+02  3.781764736E+02  1.250000000E+02  0.00000E+00  9.000E+00
      25     1     1     2     0     0  2.454009713E+02  9.922339815E+01 -2.422514205E+01  2.937324922E+02  1.250000000E+02  0.00000E+00  9.000E+00
      21     1     1     2   511   502 -1.096075714E+02  8.088822098E+01  1.350194206E+02  1.917992908E+02  1.907348633E-06  0.00000E+00  9.000E+00
#rwgt            1           1   2.9920303638170085E-002           6      342794           0
</event>
<event>
      5   9999  3.19816E-02  6.89539E+02 -1.00000E+00  9.50418E-02
      21    -1     0     0   502   501  0.000000000E+00  0.000000000E+00  4.141543232E+02  4.141543232E+02  0.000000000E+00  0.00000E+00  9.000E+00
      21    -1     0     0   512   502  0.000000000E+00  0.000000000E+00 -2.472588843E+03  2.472588843E+03  0.000000000E+00  0.00000E+00  9.000E+00
      25     1     1     2     0     0  1.978986883E+02  2.895628879E+02  1.084329061E+02  3.878056885E+02  1.250000000E+02  0.00000E+00  9.000E+00
      25     1     1     2     0     0  4.436285397E+02 -3.676445533E+01 -4.349216206E+02  6.347753323E+02  1.250000000E+02  0.00000E+00  9.000E+00
      21     1     1     2   512   501 -6.415272280E+02 -2.527984326E+02 -1.731945805E+03  1.864162145E+03  3.051757812E-05  0.00000E+00  9.000E+00
#rwgt            1           1   3.1244105262013870E-002           6      342840           0
</event>
<event>
      5   9999  3.19816E-02  2.40650E+01 -1.00000E+00  1.60001E-01
      21    -1     0     0   502   501  0.000000000E+00  0.000000000E+00  7.458934779E+02  7.458934779E+02  0.000000000E+00  0.00000E+00  9.000E+00
      21    -1     0     0   501   511  0.000000000E+00  0.000000000E+00 -6.984175492E+01  6.984175492E+01  0.000000000E+00  0.00000E+00  9.000E+00
      25     1     1     2     0     0 -1.868852190E+02  1.141268113E+01  3.285485034E+02  3.982781107E+02  1.250000000E+02  0.00000E+00  9.000E+00
      25     1     1     2     0     0  1.632513495E+02 -1.594761309E+01  3.221082416E+02  3.824709777E+02  1.250000000E+02  0.00000E+00  9.000E+00
      21     1     1     2   502   511  2.363386949E+01  4.534931955E+00  2.539497795E+01  3.498614440E+01  4.768371582E-07  0.00000E+00  9.000E+00
#rwgt            1           1   2.7297217110082723E-002           6      342923           0
</event>
<event>
      5   9999  3.19816E-02  1.55711E+01 -1.00000E+00  1.75868E-01
      21    -1     0     0   502   501  0.000000000E+00  0.000000000E+00  1.875251731E+02  1.875251731E+02  0.000000000E+00  0.00000E+00  9.000E+00
       2    -1     0     0   501     0  0.000000000E+00  0.000000000E+00 -2.256647163E+03  2.256647163E+03  0.000000000E+00  0.00000E+00  9.000E+00
      25     1     1     2     0     0  1.200096286E+02 -1.243201385E+02  9.889905993E+01  2.350826065E+02  1.250000000E+02  0.00000E+00  9.000E+00
      25     1     1     2     0     0 -1.353755429E+02  1.218006969E+02 -5.745738518E+02  6.155664534E+02  1.250000000E+02  0.00000E+00  9.000E+00
       2     1     1     2   502     0  1.536591422E+01  2.519441625E+00 -1.593447198E+03  1.593523276E+03  0.000000000E+00  0.00000E+00  9.000E+00
#rwgt            1           1   1.9217216508735920E-002           6      343099           0
</event>
<event>
      5   9999  3.19816E-02  1.21763E+02 -1.00000E+00  1.20100E-01
      21    -1     0     0   502   511  0.000000000E+00  0.000000000E+00  1.223122202E+03  1.223122202E+03  0.000000000E+00  0.00000E+00  9.000E+00
      21    -1     0     0   501   502  0.000000000E+00  0.000000000E+00 -4.040660819E+02  4.040660819E+02  0.000000000E+00  0.00000E+00  9.000E+00
      25     1     1     2     0     0 -4.138131709E+02  2.115074301E+02 -1.619326724E+02  5.077636496E+02  1.250000000E+02  0.00000E+00  9.000E+00
      25     1     1     2     0     0  2.925984335E+02 -1.999630268E+02  8.940217431E+02  9.697932422E+02  1.250000000E+02  0.00000E+00  9.000E+00
      21     1     1     2   501   511  1.212147375E+02 -1.154440327E+01  8.696704906E+01  1.496313919E+02  1.348699152E-06  0.00000E+00  9.000E+00
#rwgt            2          11   7.0598947738165566E-003           6      343413           0
</event>
<event>
      5   9999  3.19816E-02  2.42696E+01 -1.00000E+00  1.59721E-01
      21    -1     0     0   502   501  0.000000000E+00  0.000000000E+00  2.095099106E+02  2.095099106E+02  0.000000000E+00  0.00000E+00  9.000E+00
      21    -1     0     0   501   512  0.000000000E+00  0.000000000E+00 -3.490423460E+02  3.490423460E+02  0.000000000E+00  0.00000E+00  9.000E+00
      25     1     1     2     0     0 -1.480968733E+02  5.994934732E+01  8.420533232E+01  2.196409481E+02  1.250000000E+02  0.00000E+00  9.000E+00
      25     1     1     2     0     0  1.316821740E+02 -7.782592703E+01 -1.173006138E+02  2.297422552E+02  1.250000000E+02  0.00000E+00  9.000E+00
      21     1     1     2   502   512  1.641469931E+01  1.787657972E+01 -1.064371539E+02  1.091690533E+02  0.000000000E+00  0.00000E+00  9.000E+00
#rwgt            1           1   3.0070744968020535E-002           6      343448           0
</event>
<event>
      5   9999  3.19816E-02  8.30452E+02 -1.00000E+00  9.29708E-02
      21    -1     0     0   502   501  0.000000000E+00  0.000000000E+00  7.892607103E+02  7.892607103E+02  0.000000000E+00  0.00000E+00  9.000E+00
       2    -1     0     0   501     0  0.000000000E+00  0.000000000E+00 -2.375429340E+03  2.375429340E+03  0.000000000E+00  0.00000E+00  9.000E+00
      25     1     1     2     0     0 -1.339783406E+02  6.066647136E+01 -1.256207969E+03  1.270950069E+03  1.250000000E+02  0.00000E+00  9.000E+00
      25     1     1     2     0     0  2.751216884E+02  7.577029051E+02  2.809751329E+02  8.627732385E+02  1.250000000E+02  0.00000E+00  9.000E+00
       2     1     1     2   502     0 -1.411433478E+02 -8.183693765E+02 -6.109357935E+02  1.030966743E+03  1.705984480E-05  0.00000E+00  9.000E+00
#rwgt            2          13   8.7546216560349275E-004           6      343721           0
</event>
<event>
      5   9999  3.19816E-02  6.23613E+01 -1.00000E+00  1.33814E-01
      21    -1     0     0   502   501  0.000000000E+00  0.000000000E+00  3.380326608E+03  3.380326608E+03  0.000000000E+00  0.00000E+00  9.000E+00
       5    -1     0     0   501     0  0.000000000E+00  0.000000000E+00 -3.172602510E+02  3.172602510E+02  0.000000000E+00  0.00000E+00  9.000E+00
      25     1     1     2     0     0  3.048419917E+02 -8.720490460E+02  1.559552929E+03  1.816928319E+03  1.250000000E+02  0.00000E+00  9.000E+00
      25     1     1     2     0     0 -2.424824062E+02  8.725070265E+02  1.552301476E+03  1.801480253E+03  1.250000000E+02  0.00000E+00  9.000E+00
       5     1     1     2   502     0 -6.235958551E+01 -4.579805339E-01 -4.878804748E+01  7.917828761E+01  1.507891493E-06  0.00000E+00  9.000E+00
#rwgt            1           1   6.0736736169422864E-002           6      343740           0
</event>
<event>
      5   9999  3.19816E-02  4.18806E+01 -1.00000E+00  1.43613E-01
      21    -1     0     0   502   511  0.000000000E+00  0.000000000E+00  1.027852059E+02  1.027852059E+02  0.000000000E+00  0.00000E+00  9.000E+00
      21    -1     0     0   501   502  0.000000000E+00  0.000000000E+00 -4.383648940E+02  4.383648940E+02  0.000000000E+00  0.00000E+00  9.000E+00
      25     1     1     2     0     0  7.743270245E+01  8.869021831E+01 -2.088337140E+02  2.703669698E+02  1.250000000E+02  0.00000E+00  9.000E+00
      25     1     1     2     0     0 -7.023377454E+01 -4.743299300E+01 -1.579687918E+02  2.185447577E+02  1.250000000E+02  0.00000E+00  9.000E+00
      21     1     1     2   501   511 -7.198927911E+00 -4.125722532E+01  3.122281780E+01  5.223837244E+01  1.469710828E-06  0.00000E+00  9.000E+00
#rwgt            1           1   2.5278575288706716E-002           6      343834           0
</event>
<event>
      5   9999  3.19816E-02  6.10332E+01 -1.00000E+00  1.34308E-01
      21    -1     0     0   502   512  0.000000000E+00  0.000000000E+00  1.219622027E+03  1.219622027E+03  0.000000000E+00  0.00000E+00  9.000E+00
      21    -1     0     0   501   502  0.000000000E+00  0.000000000E+00 -7.812262210E+01  7.812262210E+01  0.000000000E+00  0.00000E+00  9.000E+00
      25     1     1     2     0     0 -6.550425888E+01  1.379171571E+02  6.270249344E+02  6.573410215E+02  1.250000000E+02  0.00000E+00  9.000E+00
      25     1     1     2     0     0  4.330607702E+01 -8.106391743E+01  3.760339398E+01  1.596426956E+02  1.250000000E+02  0.00000E+00  9.000E+00
      21     1     1     2   501   512  2.219818186E+01 -5.685323971E+01  4.768710762E+02  4.807609317E+02  7.629394531E-06  0.00000E+00  9.000E+00
#rwgt            1           1   2.6672538325006323E-002           6      343968           0
</event>
<event>
      5   9999  3.19816E-02  7.09847E+01 -1.00000E+00  1.30914E-01
       2    -1     0     0   502     0  0.000000000E+00  0.000000000E+00  1.472749879E+03  1.472749879E+03  0.000000000E+00  0.00000E+00  9.000E+00
      21    -1     0     0   501   502  0.000000000E+00  0.000000000E+00 -9.800026431E+01  9.800026431E+01  0.000000000E+00  0.00000E+00  9.000E+00
      25     1     1     2     0     0 -6.928721086E+01  1.151911574E+02  7.116652714E+01  1.968740585E+02  1.250000000E+02  0.00000E+00  9.000E+00
      25     1     1     2     0     0  7.528401782E+01 -4.446020774E+01  1.366892276E+02  2.048251409E+02  1.250000000E+02  0.00000E+00  9.000E+00
       2     1     1     2   501     0 -5.996806960E+00 -7.073094971E+01  1.166893860E+03  1.169050944E+03  1.525878906E-05  0.00000E+00  9.000E+00
#rwgt            2          18   3.6967805903689787E-003           6      344051           0
</event>
<event>
      5   9999  3.19816E-02  2.51388E+01 -1.00000E+00  1.58571E-01
      21    -1     0     0   511   501  0.000000000E+00  0.000000000E+00  9.035297878E+01  9.035297878E+01  0.000000000E+00  0.00000E+00  9.000E+00
      21    -1     0     0   501   502  0.000000000E+00  0.000000000E+00 -1.215290212E+03  1.215290212E+03  0.000000000E+00  0.00000E+00  9.000E+00
      25     1     1     2     0     0 -1.860869511E+02  1.772902756E+02 -8.816992442E+02  9.268650131E+02  1.250000000E+02  0.00000E+00  9.000E+00
      25     1     1     2     0     0  1.749118967E+02 -1.547718927E+02 -2.169454189E+02  3.424015554E+02  1.250000000E+02  0.00000E+00  9.000E+00
      21     1     1     2   511   502  1.117505445E+01 -2.251838284E+01 -2.629257010E+01  3.637662230E+01  7.539457465E-07  0.00000E+00  9.000E+00
#rwgt            1           1   2.6980209413359386E-002           6      344070           0
</event>
<event>
      5   9999  3.19816E-02  1.47511E+01 -1.00000E+00  1.78071E-01
      21    -1     0     0   502   501  0.000000000E+00  0.000000000E+00  4.914861795E+02  4.914861795E+02  0.000000000E+00  0.00000E+00  9.000E+00
      21    -1     0     0   501   512  0.000000000E+00  0.000000000E+00 -2.010488476E+02  2.010488476E+02  0.000000000E+00  0.00000E+00  9.000E+00
      25     1     1     2     0     0  2.481672724E+01  1.062324803E+02  3.927880253E+02  4.263902469E+02  1.250000000E+02  0.00000E+00  9.000E+00
      25     1     1     2     0     0 -3.047970710E+01 -9.261169294E+01  4.194899809E+00  1.585828976E+02  1.250000000E+02  0.00000E+00  9.000E+00
      21     1     1     2   502   512  5.662979864E+00 -1.362078740E+01 -1.065455931E+02  1.075618827E+02  2.336015456E-06  0.00000E+00  9.000E+00
#rwgt            1           1   2.6825565392618829E-002           6      344226           0
</event>
<event>
      5   9999  3.19816E-02  7.37928E+01 -1.00000E+00  1.30071E-01
      21    -1     0     0   511   501  0.000000000E+00  0.000000000E+00  1.732638900E+02  1.732638900E+02  0.000000000E+00  0.00000E+00  9.000E+00
      21    -1     0     0   501   502  0.000000000E+00  0.000000000E+00 -6.137366723E+02  6.137366723E+02  0.000000000E+00  0.00000E+00  9.000E+00
      25     1     1     2     0     0  1.787248020E+02  9.354572226E+01 -1.817613499E+02  2.989239791E+02  1.250000000E+02  0.00000E+00  9.000E+00
      25     1     1     2     0     0 -2.483050176E+02 -1.181216557E+02 -2.793797017E+02  4.114439513E+02  1.250000000E+02  0.00000E+00  9.000E+00
      21     1     1     2   511   502  6.958021562E+01  2.457593347E+01  2.066826938E+01  7.663263189E+01  1.305872339E-06  0.00000E+00  9.000E+00
#rwgt            1           1   3.0289456127424470E-002           6      344343           0
</event>
<event>
      5   9999  3.19816E-02  2.89721E+01 -1.00000E+00  1.54099E-01
      21    -1     0     0   502   512  0.000000000E+00  0.000000000E+00  1.354848743E+03  1.354848743E+03  0.000000000E+00  0.00000E+00  9.000E+00
      21    -1     0     0   501   502  0.000000000E+00  0.000000000E+00 -1.239670969E+02  1.239670969E+02  0.000000000E+00  0.00000E+00  9.000E+00
      25     1     1     2     0     0 -2.090452175E+02 -2.219664534E+02  7.576341414E+02  8.261982218E+02  1.250000000E+02  0.00000E+00  9.000E+00
      25     1     1     2     0     0  2.379188462E+02  2.195793379E+02  2.505487998E+02  4.280422457E+02  1.250000000E+02  0.00000E+00  9.000E+00
      21     1     1     2   501   512 -2.887362870E+01  2.387115571E+00  2.226987050E+02  2.245753726E+02  2.697398305E-06  0.00000E+00  9.000E+00
#rwgt            1           1   2.9905491122618189E-002           6      344409           0
</event>
<event>
      5   9999  3.19816E-02  2.85676E+01 -1.00000E+00  1.54530E-01
      21    -1     0     0   511   501  0.000000000E+00  0.000000000E+00  7.208404519E+02  7.208404519E+02  0.000000000E+00  0.00000E+00  9.000E+00
      21    -1     0     0   501   502  0.000000000E+00  0.000000000E+00 -7.369006729E+02  7.369006729E+02  0.000000000E+00  0.00000E+00  9.000E+00
      25     1     1     2     0     0 -5.313506313E+01 -4.195633691E+02 -5.813127653E+02  7.296617619E+02  1.250000000E+02  0.00000E+00  9.000E+00
      25     1     1     2     0     0  2.805169048E+01  4.058910561E+02  5.507258160E+02  6.960304384E+02  1.250000000E+02  0.00000E+00  9.000E+00
      21     1     1     2   511   502  2.508337266E+01  1.367231303E+01  1.452672832E+01  3.204892452E+01  2.384185791E-07  0.00000E+00  9.000E+00
#rwgt            1           1   3.0468569420926662E-002           6      344515           0
</event>
<event>
      5   9999  3.19816E-02  3.70939E+01 -1.00000E+00  1.46901E-01
      21    -1     0     0   502   501  0.000000000E+00  0.000000000E+00  1.117901372E+03  1.117901372E+03  0.000000000E+00  0.00000E+00  9.000E+00
      21    -1     0     0   512   502  0.000000000E+00  0.000000000E+00 -6.099816622E+02  6.099816622E+02  0.000000000E+00  0.00000E+00  9.000E+00
      25     1     1     2     0     0  4.993648436E+02 -4.466693461E+01  3.117898764E+02  6.034884498E+02  1.250000000E+02  0.00000E+00  9.000E+00
      25     1     1     2     0     0 -4.649870951E+02  3.073388386E+01  5.710844867E+02  7.476095647E+02  1.250000000E+02  0.00000E+00  9.000E+00
      21     1     1     2   512   501 -3.437774846E+01  1.393305075E+01 -3.749546530E+02  3.767850200E+02  5.394796609E-06  0.00000E+00  9.000E+00
#rwgt            1           1   2.9996686497668384E-002           6      344717           0
</event>
</LesHouchesEvents>
 #Random number generator exit values:            6        344885             0
