<LesHouchesEvents version="3.0">
<!--
file generated with POWHEG-BOX-V2
Input file powheg.input contained:
! ggHH production parameters:
mtdep 2              ! 0: Higgs effective field theory (HEFT)

hmass 125            ! Higgs boson mass
topmass 173          ! top quark mass (THIS VALUE IS HARD CODED IN THE VIRTUAL
hdecaymode -1        ! PDG code for Higgs boson decay products (it affects only the SMC)
!                      allowed values are:
!                      0 all decay channels open
!                      1-6 d dbar, u ubar,..., t tbar (as in HERWIG)
!                      7-9 e+ e-, mu+ mu-, tau+ tau-
!                      10  W+W-
!                      11  ZZ
!                      12  gamma gamma
!                      -1  all decay channels closed

! general parameters:
numevts  3000        ! number of events to be generated
ih1         1        ! hadron 1 (1 for protons, -1 for antiprotons)
ih2         1        ! hadron 2 (1 for protons, -1 for antiprotons)
ebeam1 7000d0        ! energy of beam 1
ebeam2 7000d0        ! energy of beam 2
! To be set only if using LHA pdfs
lhans1 90200         ! pdf set for hadron 1 (LHA numbering)
lhans2 90200 	     ! pdf set for hadron 2 (LHA numbering)
! To be set only if using internal mlm pdf
# ndns1 131          ! pdf set for hadron 1 (mlm numbering)
# ndns2 131          ! pdf set for hadron 2 (mlm numbering)
! To be set only if using different pdf sets for the two incoming hadrons
! QCDLambda5 0.25    ! for not equal pdf sets

! Parameters to allow or not the use of stored data
use-old-grid    1    ! if 1 use old grid if file pwggrids.dat is present (<> 1 regenerate)
use-old-ubound  1    ! if 1 use norm of upper bounding function stored in pwgubound.dat, if present;
!
ncall1  10000        ! number of calls for initializing the integration grid
itmx1       3        ! number of iterations for initializing the integration grid
ncall2  10000        ! number of calls for computing the integral and finding upper bound
itmx2       3        ! number of iterations for computing the integral and finding upper bound
foldcsi     1        ! number of folds on csi integration
foldy       1        ! number of folds on  y  integration
foldphi     1        ! number of folds on phi integration
nubound 10000        ! number of bbarra calls to setup norm of upper bounding function
# icsimax   1        ! <= 100, number of csi subdivision when computing the upper bounds
# iymax     1        ! <= 100, number of y subdivision when computing the upper bounds
# xupbound 2d0       ! increase upper bound for radiation generation

! OPTIONAL PARAMETERS

! scale settings:
#fixedscale   1      ! (dafault 0) Use muren = mufac = 2*m_H
facscfact   1d0      ! (default 1d0) fac scale factor: mufact = muref * facscfact
renscfact   1d0      ! (default 1d0) ren scale factor: muren  = muref * renscfact

! Born, plots and powheg strategy:
#bornonly         1  ! (default 0) if 1 do Born only
# testplots 1
fastbtlbound      1  ! fast evaluation of Btilde upper bounds
storemintupb      1  ! store function calls in binary file for more precise generation
ubexcess_correct  1  ! corrects for error in upper bound estimate
storeinfo_rwgt    1  ! store info to allow for reweighting
softtest          0  ! no check of the soft limit in the real
colltest          0  ! no check of the collinear limit in the real

! PARAMETERS needed for ggHH
hdamp           250

! PARAMETERS for parallel runnning
! -- non parallel (for testing purposes only)
#iseed    547        !  Start the random number generator with seed iseed
#rand1     0         !  skipping  rand2*100000000+rand1 numbers.
#rand2     0         !  (see RM48 short writeup in CERNLIB)

! -- parallel
manyseeds 1          ! Used to perform multiple runs with different random
                     ! seeds in the same directory.
                     ! If set to 1, the program asks for an integer j;
                     ! The file pwgseeds.dat at line j is read, and the
                     ! integer at line j is used to initialize the random
                     ! sequence for the generation of the event.
                     ! The event file is called pwgevents-'j'.lhe
parallelstage 4
xgriditeration 1
maxseeds    1000

! PARAMETERS for reweighting
#rwl_file 'reweight_setup.xml'


! PARAMETERS for Pythia8
#py8tune  xxx
#py8hepmc 1
#py8nohad 1
#py8nompi 1
End of powheg.input content
PDF package: lha
 Random number generator initialized with:            7             0             0
-->
<init>
     2212     2212  7.00000E+03  7.00000E+03     -1     -1     -1     -1     -4      1
  3.38081E-02  5.61572E-05  1.00000E+00   9999
</init>
<event>
      5   9999 -3.79277E-02  1.65740E+02 -1.00000E+00  1.14702E-01
      21    -1     0     0   502   501  0.000000000E+00  0.000000000E+00  5.153666008E+02  5.153666008E+02  0.000000000E+00  0.00000E+00  9.000E+00
      21    -1     0     0   501   511  0.000000000E+00  0.000000000E+00 -1.760255945E+02  1.760255945E+02  0.000000000E+00  0.00000E+00  9.000E+00
      25     1     1     2     0     0  7.985600894E+01 -1.989995519E+02  1.831587592E+02  3.084638307E+02  1.250000000E+02  0.00000E+00  9.000E+00
      25     1     1     2     0     0 -1.272770727E+02  4.018816681E+01  9.653821021E+01  2.067829007E+02  1.250000000E+02  0.00000E+00  9.000E+00
      21     1     1     2   502   511  4.742106380E+01  1.588113851E+02  5.964403692E+01  1.761454639E+02  1.651812370E-06  0.00000E+00  9.000E+00
#rwgt            1           1 -0.25379535319940910                7          16           0
</event>
<event>
      5   9999  3.79277E-02  5.34331E+01 -1.00000E+00  1.37450E-01
      21    -1     0     0   512   501  0.000000000E+00  0.000000000E+00  1.746990124E+02  1.746990124E+02  0.000000000E+00  0.00000E+00  9.000E+00
      21    -1     0     0   501   502  0.000000000E+00  0.000000000E+00 -6.512890355E+02  6.512890355E+02  0.000000000E+00  0.00000E+00  9.000E+00
      25     1     1     2     0     0 -6.429883466E+01 -7.979633355E+01 -5.877235500E+01  1.719912344E+02  1.250000000E+02  0.00000E+00  9.000E+00
      25     1     1     2     0     0  3.991785909E+01  1.273428096E+02 -5.131260724E+02  5.447320376E+02  1.250000000E+02  0.00000E+00  9.000E+00
      21     1     1     2   512   502  2.438097557E+01 -4.754647607E+01  9.530840424E+01  1.092647760E+02  2.336015456E-06  0.00000E+00  9.000E+00
#rwgt            1           1   5.1036850828610425E-002           7         110           0
</event>
<event>
      5   9999  3.79277E-02  2.95328E+01 -1.00000E+00  1.53515E-01
      21    -1     0     0   502   501  0.000000000E+00  0.000000000E+00  7.492955957E+02  7.492955957E+02  0.000000000E+00  0.00000E+00  9.000E+00
      21    -1     0     0   501   511  0.000000000E+00  0.000000000E+00 -1.193610233E+02  1.193610233E+02  0.000000000E+00  0.00000E+00  9.000E+00
      25     1     1     2     0     0  7.290937067E+01  1.694322935E+02  1.313015160E+02  2.586274666E+02  1.250000000E+02  0.00000E+00  9.000E+00
      25     1     1     2     0     0 -5.009962566E+01 -1.881912750E+02  5.228920306E+02  5.718102868E+02  1.250000000E+02  0.00000E+00  9.000E+00
      21     1     1     2   502   511 -2.280974501E+01  1.875898148E+01 -2.425897412E+01  3.821886549E+01  8.920806376E-07  0.00000E+00  9.000E+00
#rwgt            1           1   5.2924523537652486E-002           7         446           0
</event>
<event>
      5   9999  3.79277E-02  3.00041E+01 -1.00000E+00  1.53036E-01
      21    -1     0     0   512   501  0.000000000E+00  0.000000000E+00  6.586100517E+02  6.586100517E+02  0.000000000E+00  0.00000E+00  9.000E+00
      21    -1     0     0   501   502  0.000000000E+00  0.000000000E+00 -2.039192589E+02  2.039192589E+02  0.000000000E+00  0.00000E+00  9.000E+00
      25     1     1     2     0     0  1.400830822E+02 -1.368647307E+02 -1.038697379E+02  2.544978328E+02  1.250000000E+02  0.00000E+00  9.000E+00
      25     1     1     2     0     0 -1.119683811E+02  1.263857368E+02  4.955167281E+02  5.382119478E+02  1.250000000E+02  0.00000E+00  9.000E+00
      21     1     1     2   512   502 -2.811470110E+01  1.047899393E+01  6.304380257E+01  6.981953003E+01  6.743495762E-07  0.00000E+00  9.000E+00
#rwgt            1           1   3.9606809495026887E-002           7         641           0
</event>
<event>
      5   9999  3.79277E-02  8.87617E+00 -1.00000E+00  2.01939E-01
      21    -1     0     0   511   501  0.000000000E+00  0.000000000E+00  2.783552938E+01  2.783552938E+01  0.000000000E+00  0.00000E+00  9.000E+00
      21    -1     0     0   501   502  0.000000000E+00  0.000000000E+00 -7.776736970E+02  7.776736970E+02  0.000000000E+00  0.00000E+00  9.000E+00
      25     1     1     2     0     0 -2.645143296E+01  8.030067360E+00 -5.036769737E+02  5.196918838E+02  1.250000000E+02  0.00000E+00  9.000E+00
      25     1     1     2     0     0  1.762054538E+01 -7.134618732E+00 -2.463907122E+02  2.769382051E+02  1.250000000E+02  0.00000E+00  9.000E+00
      21     1     1     2   511   502  8.830887581E+00 -8.954486286E-01  2.295182114E-01  8.879137477E+00  2.891962798E-07  0.00000E+00  9.000E+00
#rwgt            1           1   2.0120598347803224E-002           7         822           0
</event>
<event>
      5   9999  3.79277E-02  5.18645E+00 -1.00000E+00  2.35771E-01
      21    -1     0     0   502   501  0.000000000E+00  0.000000000E+00  7.974612262E+02  7.974612262E+02  0.000000000E+00  0.00000E+00  9.000E+00
      21    -1     0     0   501   512  0.000000000E+00  0.000000000E+00 -5.353043571E+01  5.353043571E+01  0.000000000E+00  0.00000E+00  9.000E+00
      25     1     1     2     0     0 -9.165560900E+01 -1.038498699E+02  2.136245706E+02  2.836300465E+02  1.250000000E+02  0.00000E+00  9.000E+00
      25     1     1     2     0     0  9.586535393E+01  1.068792751E+02  5.287078488E+02  5.619344579E+02  1.250000000E+02  0.00000E+00  9.000E+00
      21     1     1     2   502   512 -4.209744928E+00 -3.029405192E+00  1.598371006E+00  5.427157455E+00  9.884312124E-08  0.00000E+00  9.000E+00
#rwgt            1           1   3.4974516705609721E-002           7        1018           0
</event>
<event>
      5   9999  3.79277E-02  9.89229E+01 -1.00000E+00  1.24040E-01
      21    -1     0     0   502   511  0.000000000E+00  0.000000000E+00  2.080730364E+03  2.080730364E+03  0.000000000E+00  0.00000E+00  9.000E+00
      21    -1     0     0   501   502  0.000000000E+00  0.000000000E+00 -4.573811669E+01  4.573811669E+01  0.000000000E+00  0.00000E+00  9.000E+00
      25     1     1     2     0     0 -1.104316648E+02 -6.003765017E+01  1.655889839E+02  2.425786133E+02  1.250000000E+02  0.00000E+00  9.000E+00
      25     1     1     2     0     0  1.253560687E+01  4.582120642E+01  1.010905115E+03  1.019711173E+03  1.250000000E+02  0.00000E+00  9.000E+00
      21     1     1     2   501   511  9.789605789E+01  1.421644374E+01  8.584981485E+02  8.641786947E+02  0.000000000E+00  0.00000E+00  9.000E+00
#rwgt            1           1   3.6090518258740358E-002           7        1326           0
</event>
<event>
      5   9999  3.79277E-02  1.20583E+01 -1.00000E+00  1.86807E-01
      21    -1     0     0   512   501  0.000000000E+00  0.000000000E+00  9.598755459E+02  9.598755459E+02  0.000000000E+00  0.00000E+00  9.000E+00
      21    -1     0     0   501   502  0.000000000E+00  0.000000000E+00 -5.767197553E+01  5.767197553E+01  0.000000000E+00  0.00000E+00  9.000E+00
      25     1     1     2     0     0 -6.284964540E+01 -1.525778191E+02  5.468678695E+02  5.847388610E+02  1.250000000E+02  0.00000E+00  9.000E+00
      25     1     1     2     0     0  6.469265942E+01  1.406611810E+02  2.188402435E+02  2.957816090E+02  1.250000000E+02  0.00000E+00  9.000E+00
      21     1     1     2   512   502 -1.843014021E+00  1.191663805E+01  1.364954574E+02  1.370270515E+02  1.907348633E-06  0.00000E+00  9.000E+00
#rwgt            1           1   4.4378041522282377E-002           7        1374           0
</event>
<event>
      5   9999 -3.79277E-02  3.65184E+01 -1.00000E+00  1.47336E-01
      21    -1     0     0   511   501  0.000000000E+00  0.000000000E+00  8.190473137E+02  8.190473137E+02  0.000000000E+00  0.00000E+00  9.000E+00
      21    -1     0     0   501   502  0.000000000E+00  0.000000000E+00 -6.731571878E+01  6.731571878E+01  0.000000000E+00  0.00000E+00  9.000E+00
      25     1     1     2     0     0 -9.230322585E+01 -7.984989615E+01  1.058618907E+02  2.042734229E+02  1.250000000E+02  0.00000E+00  9.000E+00
      25     1     1     2     0     0  5.791727137E+01  9.214624514E+01  3.918834231E+02  4.254914313E+02  1.250000000E+02  0.00000E+00  9.000E+00
      21     1     1     2   511   502  3.438595448E+01 -1.229634899E+01  2.539862812E+02  2.565981783E+02  2.697398305E-06  0.00000E+00  9.000E+00
#rwgt            1           1 -0.20693872636003657                7        1625           0
</event>
<event>
      5   9999  3.79277E-02  1.13367E+02 -1.00000E+00  1.21426E-01
      21    -1     0     0   502   501  0.000000000E+00  0.000000000E+00  5.453860759E+02  5.453860759E+02  0.000000000E+00  0.00000E+00  9.000E+00
      21    -1     0     0   501   512  0.000000000E+00  0.000000000E+00 -1.885266869E+02  1.885266869E+02  0.000000000E+00  0.00000E+00  9.000E+00
      25     1     1     2     0     0 -2.180638000E+01 -8.735657467E+01  3.357452680E+02  3.694002901E+02  1.250000000E+02  0.00000E+00  9.000E+00
      25     1     1     2     0     0  4.191456592E+01  1.989262886E+02 -2.929959855E+01  2.404411895E+02  1.250000000E+02  0.00000E+00  9.000E+00
      21     1     1     2   502   512 -2.010818592E+01 -1.115697139E+02  5.041371948E+01  1.240712832E+02  1.907348633E-06  0.00000E+00  9.000E+00
#rwgt            1           1   4.7271140476451604E-002           7        1763           0
</event>
<event>
      5   9999  3.79277E-02  4.88708E+01 -1.00000E+00  1.39644E-01
      21    -1     0     0   511   501  0.000000000E+00  0.000000000E+00  1.376094841E+02  1.376094841E+02  0.000000000E+00  0.00000E+00  9.000E+00
      21    -1     0     0   501   502  0.000000000E+00  0.000000000E+00 -4.835231789E+02  4.835231789E+02  0.000000000E+00  0.00000E+00  9.000E+00
      25     1     1     2     0     0 -8.582186535E+01  1.317622349E+02 -2.781349579E+01  2.027936628E+02  1.250000000E+02  0.00000E+00  9.000E+00
      25     1     1     2     0     0  1.246991215E+02 -1.021495519E+02 -3.063950175E+02  3.680860071E+02  1.250000000E+02  0.00000E+00  9.000E+00
      21     1     1     2   511   502 -3.887725619E+01 -2.961268304E+01 -1.170518156E+01  5.025299316E+01  2.384185791E-07  0.00000E+00  9.000E+00
#rwgt            1           1   3.5719102241654484E-002           7        1901           0
</event>
<event>
      5   9999  3.79277E-02  6.66702E+01 -1.00000E+00  1.32302E-01
      -2    -1     0     0     0   501  0.000000000E+00  0.000000000E+00  6.238000132E+02  6.238000132E+02  0.000000000E+00  0.00000E+00  9.000E+00
      21    -1     0     0   501   502  0.000000000E+00  0.000000000E+00 -1.601643329E+02  1.601643329E+02  0.000000000E+00  0.00000E+00  9.000E+00
      25     1     1     2     0     0 -1.572111416E+02  5.437980445E+00  3.059798061E+02  3.660513030E+02  1.250000000E+02  0.00000E+00  9.000E+00
      25     1     1     2     0     0  9.140087236E+01  5.235422929E+00 -7.767509384E+01  1.733203662E+02  1.250000000E+02  0.00000E+00  9.000E+00
      -2     1     1     2     0   502  6.581026923E+01 -1.067340337E+01  2.353309681E+02  2.445926769E+02  3.814697266E-06  0.00000E+00  9.000E+00
#rwgt            1           1   3.3021492659421975E-002           7        2216           0
</event>
<event>
      5   9999  3.79277E-02  2.79541E+01 -1.00000E+00  1.55201E-01
      21    -1     0     0   511   501  0.000000000E+00  0.000000000E+00  1.896003807E+02  1.896003807E+02  0.000000000E+00  0.00000E+00  9.000E+00
      21    -1     0     0   501   502  0.000000000E+00  0.000000000E+00 -8.885890568E+02  8.885890568E+02  0.000000000E+00  0.00000E+00  9.000E+00
      25     1     1     2     0     0  2.805468192E+02 -2.406453581E+02 -4.585233866E+02  6.020676060E+02  1.250000000E+02  0.00000E+00  9.000E+00
      25     1     1     2     0     0 -2.912402201E+02  2.148173930E+02 -2.268006347E+02  4.450066359E+02  1.250000000E+02  0.00000E+00  9.000E+00
      21     1     1     2   511   502  1.069340085E+01  2.582796509E+01 -1.366465484E+01  3.111519556E+01  7.539457465E-07  0.00000E+00  9.000E+00
#rwgt            1           1   5.1951683168244764E-002           7        2295           0
</event>
<event>
      5   9999  3.79277E-02  4.69553E+01 -1.00000E+00  1.40650E-01
      21    -1     0     0   502   501  0.000000000E+00  0.000000000E+00  2.987311611E+02  2.987311611E+02  0.000000000E+00  0.00000E+00  9.000E+00
      21    -1     0     0   512   502  0.000000000E+00  0.000000000E+00 -1.483486508E+02  1.483486508E+02  0.000000000E+00  0.00000E+00  9.000E+00
      25     1     1     2     0     0  1.213651356E+02 -1.462347966E+01  1.685717719E+02  2.428678336E+02  1.250000000E+02  0.00000E+00  9.000E+00
      25     1     1     2     0     0 -8.368008900E+01 -1.338791520E+01 -3.375301936E+01  1.547444987E+02  1.250000000E+02  0.00000E+00  9.000E+00
      21     1     1     2   512   501 -3.768504662E+01  2.801139486E+01  1.556375771E+01  4.946747957E+01  2.384185791E-07  0.00000E+00  9.000E+00
#rwgt            1           1   1.5060857897757898E-002           7        2498           0
</event>
<event>
      5   9999  3.79277E-02  7.02674E+01 -1.00000E+00  1.31137E-01
      21    -1     0     0   502   501  0.000000000E+00  0.000000000E+00  8.998196301E+02  8.998196301E+02  0.000000000E+00  0.00000E+00  9.000E+00
      21    -1     0     0   501   511  0.000000000E+00  0.000000000E+00 -9.017479646E+01  9.017479646E+01  0.000000000E+00  0.00000E+00  9.000E+00
      25     1     1     2     0     0  1.433594986E+02  9.290880509E+01  1.819236952E+02  2.791150709E+02  1.250000000E+02  0.00000E+00  9.000E+00
      25     1     1     2     0     0 -1.476732098E+02 -1.630436876E+02  5.539635277E+02  6.090083834E+02  1.250000000E+02  0.00000E+00  9.000E+00
      21     1     1     2   502   511  4.313711190E+00  7.013488256E+01  7.375761065E+01  1.018709722E+02  9.536743164E-07  0.00000E+00  9.000E+00
#rwgt            1           1  0.12931490247114297                7        2714           0
</event>
<event>
      5   9999  3.79277E-02  4.91974E+01 -1.00000E+00  1.39478E-01
      21    -1     0     0   502   501  0.000000000E+00  0.000000000E+00  1.157735307E+03  1.157735307E+03  0.000000000E+00  0.00000E+00  9.000E+00
      21    -1     0     0   512   502  0.000000000E+00  0.000000000E+00 -3.464608355E+02  3.464608355E+02  0.000000000E+00  0.00000E+00  9.000E+00
      25     1     1     2     0     0  1.742952037E+01  1.433295379E+02  2.880057368E+02  3.455711925E+02  1.250000000E+02  0.00000E+00  9.000E+00
      25     1     1     2     0     0 -3.687604947E+01 -1.885204070E+02  8.232913221E+02  8.545954528E+02  1.250000000E+02  0.00000E+00  9.000E+00
      21     1     1     2   512   501  1.944652910E+01  4.519086913E+01 -3.000225875E+02  3.040294972E+02  7.629394531E-06  0.00000E+00  9.000E+00
#rwgt            1           1   3.4827276083580841E-002           7        2834           0
</event>
<event>
      5   9999  3.79277E-02  5.00805E+01 -1.00000E+00  1.39036E-01
      21    -1     0     0   502   501  0.000000000E+00  0.000000000E+00  1.291504656E+03  1.291504656E+03  0.000000000E+00  0.00000E+00  9.000E+00
       4    -1     0     0   501     0  0.000000000E+00  0.000000000E+00 -1.623216169E+02  1.623216169E+02  0.000000000E+00  0.00000E+00  9.000E+00
      25     1     1     2     0     0 -1.783260715E+02 -1.867144521E+02  4.270417563E+02  5.144435208E+02  1.250000000E+02  0.00000E+00  9.000E+00
      25     1     1     2     0     0  2.265449486E+02  2.002419698E+02  7.805491575E+02  8.463459384E+02  1.250000000E+02  0.00000E+00  9.000E+00
       4     1     1     2   502     0 -4.821887713E+01 -1.352751769E+01 -7.840787483E+01  9.303681359E+01  2.336015456E-06  0.00000E+00  9.000E+00
#rwgt            1           1  0.21217875510374370                7        3218           0
</event>
<event>
      5   9999  3.79277E-02  4.85029E+01 -1.00000E+00  1.39833E-01
      21    -1     0     0   511   501  0.000000000E+00  0.000000000E+00  1.445813977E+02  1.445813977E+02  0.000000000E+00  0.00000E+00  9.000E+00
      21    -1     0     0   501   502  0.000000000E+00  0.000000000E+00 -8.318517650E+02  8.318517650E+02  0.000000000E+00  0.00000E+00  9.000E+00
      25     1     1     2     0     0  2.761390205E+01 -1.975437699E+02 -6.725470604E+02  7.125521855E+02  1.250000000E+02  0.00000E+00  9.000E+00
      25     1     1     2     0     0 -3.997536153E+01  1.506425195E+02 -4.747775751E+01  2.053541713E+02  1.250000000E+02  0.00000E+00  9.000E+00
      21     1     1     2   511   502  1.236145949E+01  4.690125047E+01  3.275445063E+01  5.852680593E+01  4.768371582E-07  0.00000E+00  9.000E+00
#rwgt            1           1   3.8014161633605728E-002           7        3337           0
</event>
<event>
      5   9999  3.79277E-02  1.71728E+02 -1.00000E+00  1.14112E-01
      21    -1     0     0   502   512  0.000000000E+00  0.000000000E+00  3.794776695E+02  3.794776695E+02  0.000000000E+00  0.00000E+00  9.000E+00
      21    -1     0     0   501   502  0.000000000E+00  0.000000000E+00 -1.171519353E+03  1.171519353E+03  0.000000000E+00  0.00000E+00  9.000E+00
      25     1     1     2     0     0  1.513452607E+02 -2.564988884E+01 -2.552585978E+02  3.230251638E+02  1.250000000E+02  0.00000E+00  9.000E+00
      25     1     1     2     0     0 -1.825595408E+02  1.945170451E+02 -8.341146342E+02  8.846112648E+02  1.250000000E+02  0.00000E+00  9.000E+00
      21     1     1     2   501   512  3.121428011E+01 -1.688671563E+02  2.973315484E+02  3.433605939E+02  3.814697266E-06  0.00000E+00  9.000E+00
#rwgt            1           1   8.3068524762729121E-002           7        3448           0
</event>
<event>
      5   9999  3.79277E-02  4.25409E+01 -1.00000E+00  1.43201E-01
      21    -1     0     0   502   501  0.000000000E+00  0.000000000E+00  1.613668158E+03  1.613668158E+03  0.000000000E+00  0.00000E+00  9.000E+00
      21    -1     0     0   501   511  0.000000000E+00  0.000000000E+00 -1.247088815E+03  1.247088815E+03  0.000000000E+00  0.00000E+00  9.000E+00
      25     1     1     2     0     0  1.283797377E+02  1.499108968E+02  9.302853578E+02  9.591717682E+02  1.250000000E+02  0.00000E+00  9.000E+00
      25     1     1     2     0     0 -9.145755890E+01 -1.710409591E+02  6.486565812E+02  6.884764739E+02  1.250000000E+02  0.00000E+00  9.000E+00
      21     1     1     2   502   511 -3.692217878E+01  2.113006235E+01 -1.212362596E+03  1.213108730E+03  0.000000000E+00  0.00000E+00  9.000E+00
#rwgt            1           1   2.0567396905310214E-002           7        3519           0
</event>
<event>
      5   9999  3.79277E-02  5.08367E+00 -1.00000E+00  2.37264E-01
      21    -1     0     0   502   512  0.000000000E+00  0.000000000E+00  2.723800457E+02  2.723800457E+02  0.000000000E+00  0.00000E+00  9.000E+00
      21    -1     0     0   501   502  0.000000000E+00  0.000000000E+00 -3.202973350E+02  3.202973350E+02  0.000000000E+00  0.00000E+00  9.000E+00
      25     1     1     2     0     0 -9.198400983E+01  1.637031885E+02 -1.739462924E+02  2.848545324E+02  1.250000000E+02  0.00000E+00  9.000E+00
      25     1     1     2     0     0  8.691169556E+01 -1.633636452E+02  4.645743664E+01  2.280890546E+02  1.250000000E+02  0.00000E+00  9.000E+00
      21     1     1     2   501   512  5.072314271E+00 -3.395433446E-01  7.957156650E+01  7.973379369E+01  9.536743164E-07  0.00000E+00  9.000E+00
#rwgt            1           1   3.3227697010301996E-002           7        3761           0
</event>
<event>
      5   9999  3.79277E-02  2.74683E+01 -1.00000E+00  1.55748E-01
      21    -1     0     0   502   501  0.000000000E+00  0.000000000E+00  4.482062216E+01  4.482062216E+01  0.000000000E+00  0.00000E+00  9.000E+00
      21    -1     0     0   501   511  0.000000000E+00  0.000000000E+00 -6.442923135E+02  6.442923135E+02  0.000000000E+00  0.00000E+00  9.000E+00
      25     1     1     2     0     0  8.488724076E+00  1.294258777E+01 -1.146209625E+02  1.703013037E+02  1.250000000E+02  0.00000E+00  9.000E+00
      25     1     1     2     0     0  9.407228024E+00 -3.378103654E+01 -2.439003948E+02  2.763006640E+02  1.250000000E+02  0.00000E+00  9.000E+00
      21     1     1     2   502   511 -1.789595210E+01  2.083844878E+01 -2.409503341E+02  2.425109679E+02  2.697398305E-06  0.00000E+00  9.000E+00
#rwgt            1           1   6.0799503047371363E-003           7        4202           0
</event>
<event>
      5   9999  3.79277E-02  3.61953E+01 -1.00000E+00  1.47585E-01
      21    -1     0     0   502   501  0.000000000E+00  0.000000000E+00  3.206457727E+02  3.206457727E+02  0.000000000E+00  0.00000E+00  9.000E+00
      21    -1     0     0   501   512  0.000000000E+00  0.000000000E+00 -1.664497784E+02  1.664497784E+02  0.000000000E+00  0.00000E+00  9.000E+00
      25     1     1     2     0     0  9.124862623E+01  6.176488253E+00 -7.668802123E+01  1.728308809E+02  1.250000000E+02  0.00000E+00  9.000E+00
      25     1     1     2     0     0 -6.665697359E+01  2.038199541E+01  2.376728150E+02  2.774381820E+02  1.250000000E+02  0.00000E+00  9.000E+00
      21     1     1     2   502   512 -2.459165264E+01 -2.655848366E+01 -6.788799469E+00  3.682648819E+01  5.127385418E-07  0.00000E+00  9.000E+00
#rwgt            1           1   3.0497153763274703E-002           7        4399           0
</event>
<event>
      5   9999  3.79277E-02  1.17540E+01 -1.00000E+00  1.87979E-01
      21    -1     0     0   502   511  0.000000000E+00  0.000000000E+00  1.986457303E+02  1.986457303E+02  0.000000000E+00  0.00000E+00  9.000E+00
      21    -1     0     0   501   502  0.000000000E+00  0.000000000E+00 -2.604839355E+02  2.604839355E+02  0.000000000E+00  0.00000E+00  9.000E+00
      25     1     1     2     0     0  1.066627014E+02  7.398944990E+01 -1.424830368E+02  2.297341645E+02  1.250000000E+02  0.00000E+00  9.000E+00
      25     1     1     2     0     0 -1.020121062E+02 -8.478423736E+01  3.935271339E+01  1.864630601E+02  1.250000000E+02  0.00000E+00  9.000E+00
      21     1     1     2   501   511 -4.650595165E+00  1.079478746E+01  4.129211827E+01  4.293244115E+01  4.768371582E-07  0.00000E+00  9.000E+00
#rwgt            1           1   6.7762936530498821E-002           7        4508           0
</event>
<event>
      5   9999  3.79277E-02  2.42719E+01 -1.00000E+00  1.59718E-01
      21    -1     0     0   502   501  0.000000000E+00  0.000000000E+00  8.883490979E+01  8.883490979E+01  0.000000000E+00  0.00000E+00  9.000E+00
       2    -1     0     0   501     0  0.000000000E+00  0.000000000E+00 -6.708805396E+02  6.708805396E+02  0.000000000E+00  0.00000E+00  9.000E+00
      25     1     1     2     0     0  4.868737112E+01  8.890212830E+01 -2.433589056E+02  2.917577856E+02  1.250000000E+02  0.00000E+00  9.000E+00
      25     1     1     2     0     0 -5.523354698E+01 -6.552967797E+01 -2.532758516E+01  1.536599166E+02  1.250000000E+02  0.00000E+00  9.000E+00
       2     1     1     2   502     0  6.546175854E+00 -2.337245033E+01 -3.133591391E+02  3.142977472E+02  3.814697266E-06  0.00000E+00  9.000E+00
#rwgt            1           1   5.7943290473820290E-002           7        4809           0
</event>
<event>
      5   9999  3.79277E-02  3.11635E+01 -1.00000E+00  1.51901E-01
      21    -1     0     0   502   501  0.000000000E+00  0.000000000E+00  9.883218966E+02  9.883218966E+02  0.000000000E+00  0.00000E+00  9.000E+00
      21    -1     0     0   501   511  0.000000000E+00  0.000000000E+00 -1.324384521E+02  1.324384521E+02  0.000000000E+00  0.00000E+00  9.000E+00
      25     1     1     2     0     0 -1.266831295E+02  3.567022303E+00  8.443357700E+02  8.628958405E+02  1.250000000E+02  0.00000E+00  9.000E+00
      25     1     1     2     0     0  1.192791400E+02 -3.383819596E+01  7.171408519E+01  1.901064090E+02  1.250000000E+02  0.00000E+00  9.000E+00
      21     1     1     2   502   511  7.403989569E+00  3.027117365E+01 -6.016641077E+01  6.775809915E+01  2.697398305E-06  0.00000E+00  9.000E+00
#rwgt            1           1   2.8514574220987073E-002           7        4908           0
</event>
<event>
      5   9999  3.79277E-02  3.59037E+01 -1.00000E+00  1.47811E-01
      21    -1     0     0   502   501  0.000000000E+00  0.000000000E+00  1.895477805E+01  1.895477805E+01  0.000000000E+00  0.00000E+00  9.000E+00
      21    -1     0     0   512   502  0.000000000E+00  0.000000000E+00 -1.843612585E+03  1.843612585E+03  0.000000000E+00  0.00000E+00  9.000E+00
      25     1     1     2     0     0  5.938384116E+01  1.016321748E+01 -3.191044867E+02  3.479689714E+02  1.250000000E+02  0.00000E+00  9.000E+00
      25     1     1     2     0     0 -2.722908744E+01  5.810068681E+00 -1.248273981E+03  1.254825928E+03  1.250000000E+02  0.00000E+00  9.000E+00
      21     1     1     2   512   501 -3.215475372E+01 -1.597328616E+01 -2.572793398E+02  2.597724634E+02  5.394796609E-06  0.00000E+00  9.000E+00
#rwgt            1           1   6.0889824737511540E-002           7        5098           0
</event>
<event>
      5   9999  3.79277E-02  1.01320E+02 -1.00000E+00  1.23572E-01
      21    -1     0     0   502   501  0.000000000E+00  0.000000000E+00  4.272633435E+01  4.272633435E+01  0.000000000E+00  0.00000E+00  9.000E+00
       2    -1     0     0   501     0  0.000000000E+00  0.000000000E+00 -1.788303647E+03  1.788303647E+03  0.000000000E+00  0.00000E+00  9.000E+00
      25     1     1     2     0     0  1.235843257E+02  1.110497427E+02 -6.685782077E+02  7.001620889E+02  1.250000000E+02  0.00000E+00  9.000E+00
      25     1     1     2     0     0 -2.481910414E+01 -1.336566472E+02 -3.398260352E+02  3.867645556E+02  1.250000000E+02  0.00000E+00  9.000E+00
       2     1     1     2   502     0 -9.876522157E+01  2.260690447E+01 -7.371730694E+02  7.441033365E+02  0.000000000E+00  0.00000E+00  9.000E+00
#rwgt            1           1   4.3254365232336417E-002           7        5242           0
</event>
<event>
      5   9999  3.79277E-02  7.34475E+01 -1.00000E+00  1.30172E-01
      -5    -1     0     0     0   501  0.000000000E+00  0.000000000E+00  4.809246134E+02  4.809246134E+02  0.000000000E+00  0.00000E+00  9.000E+00
      21    -1     0     0   501   502  0.000000000E+00  0.000000000E+00 -6.674024765E+02  6.674024765E+02  0.000000000E+00  0.00000E+00  9.000E+00
      25     1     1     2     0     0 -3.141235318E+02  1.215633539E+02 -5.497489515E+01  3.634535477E+02  1.250000000E+02  0.00000E+00  9.000E+00
      25     1     1     2     0     0  2.439791520E+02 -1.433416627E+02 -4.004820343E+02  5.060469530E+02  1.250000000E+02  0.00000E+00  9.000E+00
      -5     1     1     2     0   502  7.014437983E+01  2.177830878E+01  2.689790663E+02  2.788265892E+02  0.000000000E+00  0.00000E+00  9.000E+00
#rwgt            1           1   4.2245831960011672E-002           7        5322           0
</event>
<event>
      5   9999  3.79277E-02  1.20750E+01 -1.00000E+00  1.86744E-01
      21    -1     0     0   502   511  0.000000000E+00  0.000000000E+00  5.832608801E+02  5.832608801E+02  0.000000000E+00  0.00000E+00  9.000E+00
      21    -1     0     0   501   502  0.000000000E+00  0.000000000E+00 -7.667512057E+01  7.667512057E+01  0.000000000E+00  0.00000E+00  9.000E+00
      25     1     1     2     0     0 -5.474836709E+01 -1.230542210E+02  1.396357824E+02  2.307875142E+02  1.250000000E+02  0.00000E+00  9.000E+00
      25     1     1     2     0     0  5.857128254E+01  1.345081343E+02  2.716082885E+02  3.330451857E+02  1.250000000E+02  0.00000E+00  9.000E+00
      21     1     1     2   501   511 -3.822915451E+00 -1.145391334E+01  9.534168865E+01  9.610330071E+01  1.348699152E-06  0.00000E+00  9.000E+00
#rwgt            1           1   4.3851174075413529E-002           7        5432           0
</event>
<event>
      5   9999  3.79277E-02  3.37713E+01 -1.00000E+00  1.49552E-01
      21    -1     0     0   502   512  0.000000000E+00  0.000000000E+00  1.461048829E+02  1.461048829E+02  0.000000000E+00  0.00000E+00  9.000E+00
      21    -1     0     0   501   502  0.000000000E+00  0.000000000E+00 -2.289950111E+02  2.289950111E+02  0.000000000E+00  0.00000E+00  9.000E+00
      25     1     1     2     0     0 -2.891364818E+01  7.499565691E+01  4.323413859E+01  1.547725374E+02  1.250000000E+02  0.00000E+00  9.000E+00
      25     1     1     2     0     0  3.212059964E+01 -4.137692698E+01 -1.281115511E+02  1.864975939E+02  1.250000000E+02  0.00000E+00  9.000E+00
      21     1     1     2   501   512 -3.206951459E+00 -3.361872993E+01  1.987284364E+00  3.382976262E+01  4.558878702E-07  0.00000E+00  9.000E+00
#rwgt            1           1   4.7705352381891032E-002           7        5629           0
</event>
<event>
      5   9999  3.79277E-02  5.23178E+01 -1.00000E+00  1.37962E-01
      21    -1     0     0   502   501  0.000000000E+00  0.000000000E+00  2.693863086E+01  2.693863086E+01  0.000000000E+00  0.00000E+00  9.000E+00
      21    -1     0     0   501   511  0.000000000E+00  0.000000000E+00 -1.283841859E+03  1.283841859E+03  0.000000000E+00  0.00000E+00  9.000E+00
      25     1     1     2     0     0  4.601826692E+00  2.160192116E+01 -1.913120766E+02  2.295934024E+02  1.250000000E+02  0.00000E+00  9.000E+00
      25     1     1     2     0     0  2.098745697E+01  2.403073565E+01 -6.882615371E+02  7.002477370E+02  1.250000000E+02  0.00000E+00  9.000E+00
      21     1     1     2   502   511 -2.558928366E+01 -4.563265681E+01 -3.773296149E+02  3.809393509E+02  5.394796609E-06  0.00000E+00  9.000E+00
#rwgt            1           1   9.2237493357673908E-002           7        5770           0
</event>
<event>
      5   9999  3.79277E-02  1.04891E+02 -1.00000E+00  1.22902E-01
      21    -1     0     0   502   501  0.000000000E+00  0.000000000E+00  1.128071216E+02  1.128071216E+02  0.000000000E+00  0.00000E+00  9.000E+00
      21    -1     0     0   501   512  0.000000000E+00  0.000000000E+00 -7.327185070E+02  7.327185070E+02  0.000000000E+00  0.00000E+00  9.000E+00
      25     1     1     2     0     0  1.899179140E+02 -1.128872875E+02 -1.801003055E+02  3.112450382E+02  1.250000000E+02  0.00000E+00  9.000E+00
      25     1     1     2     0     0 -1.340188984E+02  2.413252163E+01 -1.989357314E+02  2.715582239E+02  1.250000000E+02  0.00000E+00  9.000E+00
      21     1     1     2   502   512 -5.589901562E+01  8.875476584E+01 -2.408753484E+02  2.627223666E+02  2.697398305E-06  0.00000E+00  9.000E+00
#rwgt            1           1   3.1930216129306639E-002           7        6010           0
</event>
<event>
      5   9999  3.79277E-02  8.80088E+01 -1.00000E+00  1.26375E-01
      21    -1     0     0   502   511  0.000000000E+00  0.000000000E+00  2.286494555E+02  2.286494555E+02  0.000000000E+00  0.00000E+00  9.000E+00
      21    -1     0     0   501   502  0.000000000E+00  0.000000000E+00 -1.446210703E+03  1.446210703E+03  0.000000000E+00  0.00000E+00  9.000E+00
      25     1     1     2     0     0  6.529480225E+01  2.677824632E+02 -1.003950842E+03  1.048576727E+03  1.250000000E+02  0.00000E+00  9.000E+00
      25     1     1     2     0     0 -3.196517479E+01 -3.492360465E+02 -3.180820180E+02  4.896823039E+02  1.250000000E+02  0.00000E+00  9.000E+00
      21     1     1     2   501   511 -3.332962746E+01  8.145358327E+01  1.044716125E+02  1.366011278E+02  4.046097457E-06  0.00000E+00  9.000E+00
#rwgt            1           1   5.4882670179738795E-002           7        6167           0
</event>
<event>
      5   9999  3.79277E-02  1.36368E+02 -1.00000E+00  1.18057E-01
      21    -1     0     0   502   501  0.000000000E+00  0.000000000E+00  1.421883802E+03  1.421883802E+03  0.000000000E+00  0.00000E+00  9.000E+00
      21    -1     0     0   501   512  0.000000000E+00  0.000000000E+00 -1.493884011E+02  1.493884011E+02  0.000000000E+00  0.00000E+00  9.000E+00
      25     1     1     2     0     0 -2.361456173E+02 -2.168820171E+02  2.842439311E+02  4.463431127E+02  1.250000000E+02  0.00000E+00  9.000E+00
      25     1     1     2     0     0  2.748565552E+02  8.612367283E+01  9.206582887E+02  9.727281725E+02  1.250000000E+02  0.00000E+00  9.000E+00
      21     1     1     2   502   512 -3.871093791E+01  1.307583442E+02  6.759318128E+01  1.522009181E+02  2.697398305E-06  0.00000E+00  9.000E+00
#rwgt            1           1   7.1223161954040659E-002           7        6269           0
</event>
<event>
      5   9999  3.79277E-02  5.51598E+01 -1.00000E+00  1.36685E-01
      21    -1     0     0   511   501  0.000000000E+00  0.000000000E+00  6.227611885E+02  6.227611885E+02  0.000000000E+00  0.00000E+00  9.000E+00
      21    -1     0     0   501   502  0.000000000E+00  0.000000000E+00 -2.377383000E+02  2.377383000E+02  0.000000000E+00  0.00000E+00  9.000E+00
      25     1     1     2     0     0 -1.209087020E+02 -1.991118314E+02 -7.307232316E+01  2.742790551E+02  1.250000000E+02  0.00000E+00  9.000E+00
      25     1     1     2     0     0  1.681548161E+02  2.275795643E+02  4.053202222E+02  5.098803612E+02  1.250000000E+02  0.00000E+00  9.000E+00
      21     1     1     2   511   502 -4.724611407E+01 -2.846773283E+01  5.277498954E+01  7.634007223E+01  9.536743164E-07  0.00000E+00  9.000E+00
#rwgt            1           1   3.3723757744336919E-002           7        6399           0
</event>
<event>
      5   9999 -3.79277E-02  2.34982E+01 -1.00000E+00  1.60793E-01
      21    -1     0     0   512   501  0.000000000E+00  0.000000000E+00  1.324728766E+03  1.324728766E+03  0.000000000E+00  0.00000E+00  9.000E+00
      21    -1     0     0   501   502  0.000000000E+00  0.000000000E+00 -3.626371601E+01  3.626371601E+01  0.000000000E+00  0.00000E+00  9.000E+00
      25     1     1     2     0     0 -5.217392735E+01 -1.680229634E+02  6.670414504E+02  7.010871069E+02  1.250000000E+02  0.00000E+00  9.000E+00
      25     1     1     2     0     0  4.638057874E+01  1.452501426E+02  5.292144724E+02  5.647492539E+02  1.250000000E+02  0.00000E+00  9.000E+00
      21     1     1     2   512   502  5.793348604E+00  2.277282078E+01  9.220912698E+01  9.515612095E+01  1.348699152E-06  0.00000E+00  9.000E+00
#rwgt            1           1 -0.24954387165947722                7        6779           0
</event>
<event>
      5   9999  3.79277E-02  1.32251E+01 -1.00000E+00  1.82696E-01
      21    -1     0     0   502   511  0.000000000E+00  0.000000000E+00  1.965096293E+02  1.965096293E+02  0.000000000E+00  0.00000E+00  9.000E+00
      21    -1     0     0   501   502  0.000000000E+00  0.000000000E+00 -2.157270548E+02  2.157270548E+02  0.000000000E+00  0.00000E+00  9.000E+00
      25     1     1     2     0     0  3.630287977E-01 -1.508615479E+02 -6.283101669E+01  2.057476004E+02  1.250000000E+02  0.00000E+00  9.000E+00
      25     1     1     2     0     0 -8.903446558E+00  1.407637589E+02  4.264433630E+01  1.932284829E+02  1.250000000E+02  0.00000E+00  9.000E+00
      21     1     1     2   501   511  8.540417761E+00  1.009778907E+01  9.692548341E-01  1.326060084E+01  2.785760030E-07  0.00000E+00  9.000E+00
#rwgt            1           1   5.3497324643197675E-002           7        6912           0
</event>
<event>
      5   9999  3.79277E-02  2.00021E+02 -1.00000E+00  1.11646E-01
      21    -1     0     0   502   501  0.000000000E+00  0.000000000E+00  3.241614009E+02  3.241614009E+02  0.000000000E+00  0.00000E+00  9.000E+00
      21    -1     0     0   501   512  0.000000000E+00  0.000000000E+00 -1.324497846E+03  1.324497846E+03  0.000000000E+00  0.00000E+00  9.000E+00
      25     1     1     2     0     0 -1.864965184E+02 -2.138591830E+02  1.037938796E+02  3.269783953E+02  1.250000000E+02  0.00000E+00  9.000E+00
      25     1     1     2     0     0  1.643920453E+02  1.506355637E+01 -7.757960937E+00  2.072120683E+02  1.250000000E+02  0.00000E+00  9.000E+00
      21     1     1     2   502   512  2.210447310E+01  1.987956267E+02 -1.096372363E+03  1.114468783E+03  0.000000000E+00  0.00000E+00  9.000E+00
#rwgt            1           1   3.7849599329533308E-002           7        7217           0
</event>
<event>
      5   9999  3.79277E-02  1.57138E+02 -1.00000E+00  1.15599E-01
      21    -1     0     0   502   511  0.000000000E+00  0.000000000E+00  3.289269953E+02  3.289269953E+02  0.000000000E+00  0.00000E+00  9.000E+00
      21    -1     0     0   501   502  0.000000000E+00  0.000000000E+00 -2.620696639E+02  2.620696639E+02  0.000000000E+00  0.00000E+00  9.000E+00
      25     1     1     2     0     0  7.172432616E+01 -1.410599584E+02 -1.324951256E+02  2.412928701E+02  1.250000000E+02  0.00000E+00  9.000E+00
      25     1     1     2     0     0 -3.707375561E-01  1.055852511E+00  5.590290694E+01  1.369357049E+02  1.250000000E+02  0.00000E+00  9.000E+00
      21     1     1     2   501   511 -7.135358860E+01  1.400041059E+02  1.434495501E+02  2.127680843E+02  1.907348633E-06  0.00000E+00  9.000E+00
#rwgt            1           1   3.9083818273917069E-002           7        7321           0
</event>
<event>
      5   9999  3.79277E-02  1.18524E+01 -1.00000E+00  1.87595E-01
      21    -1     0     0   502   501  0.000000000E+00  0.000000000E+00  1.753833079E+02  1.753833079E+02  0.000000000E+00  0.00000E+00  9.000E+00
      21    -1     0     0   501   512  0.000000000E+00  0.000000000E+00 -3.462306511E+02  3.462306511E+02  0.000000000E+00  0.00000E+00  9.000E+00
      25     1     1     2     0     0  1.338761405E+02  9.152026889E+01 -2.275247477E+00  2.047656157E+02  1.250000000E+02  0.00000E+00  9.000E+00
      25     1     1     2     0     0 -1.221017298E+02 -9.016247997E+01 -5.710618076E+01  2.047540502E+02  1.250000000E+02  0.00000E+00  9.000E+00
      21     1     1     2   502   512 -1.177441068E+01 -1.357788919E+00 -1.114659150E+02  1.120942931E+02  1.348699152E-06  0.00000E+00  9.000E+00
#rwgt            1           1   3.8202891072184705E-002           7        7401           0
</event>
<event>
      5   9999  3.79277E-02  3.64542E+01 -1.00000E+00  1.47385E-01
      21    -1     0     0   502   511  0.000000000E+00  0.000000000E+00  4.048587024E+02  4.048587024E+02  0.000000000E+00  0.00000E+00  9.000E+00
      21    -1     0     0   501   502  0.000000000E+00  0.000000000E+00 -1.476951731E+02  1.476951731E+02  0.000000000E+00  0.00000E+00  9.000E+00
      25     1     1     2     0     0 -7.652269140E+01 -1.902660872E+01 -4.507331015E+01  1.545132274E+02  1.250000000E+02  0.00000E+00  9.000E+00
      25     1     1     2     0     0  7.551333744E+01 -1.741364143E+01  6.985988895E+01  1.628216912E+02  1.250000000E+02  0.00000E+00  9.000E+00
      21     1     1     2   501   511  1.009353963E+00  3.644025015E+01  2.323769505E+02  2.352189570E+02  0.000000000E+00  0.00000E+00  9.000E+00
#rwgt            1           1   4.7177930557676641E-002           7        7698           0
</event>
<event>
      5   9999  3.79277E-02  3.65764E+01 -1.00000E+00  1.47292E-01
      21    -1     0     0   502   501  0.000000000E+00  0.000000000E+00  7.577991981E+02  7.577991981E+02  0.000000000E+00  0.00000E+00  9.000E+00
      21    -1     0     0   512   502  0.000000000E+00  0.000000000E+00 -1.423525499E+02  1.423525499E+02  0.000000000E+00  0.00000E+00  9.000E+00
      25     1     1     2     0     0  3.343280078E+01  1.658341808E+02  5.284284568E+02  5.687533399E+02  1.250000000E+02  0.00000E+00  9.000E+00
      25     1     1     2     0     0 -3.594626333E+00 -1.446795413E+02  1.602764124E+02  2.495167718E+02  1.250000000E+02  0.00000E+00  9.000E+00
      21     1     1     2   512   501 -2.983817445E+01 -2.115463945E+01 -7.325822100E+01  8.188163633E+01  1.348699152E-06  0.00000E+00  9.000E+00
#rwgt            1           1   4.3819898554607786E-002           7        7800           0
</event>
<event>
      5   9999  3.79277E-02  2.12436E+01 -1.00000E+00  1.64236E-01
      21    -1     0     0   502   501  0.000000000E+00  0.000000000E+00  2.231798730E+02  2.231798730E+02  0.000000000E+00  0.00000E+00  9.000E+00
      21    -1     0     0   511   502  0.000000000E+00  0.000000000E+00 -2.100977696E+02  2.100977696E+02  0.000000000E+00  0.00000E+00  9.000E+00
      25     1     1     2     0     0  1.116704783E+02  6.411595886E+01 -8.719092379E+01  1.995204478E+02  1.250000000E+02  0.00000E+00  9.000E+00
      25     1     1     2     0     0 -1.203937673E+02 -4.474603271E+01  1.101090285E+02  2.103470104E+02  1.250000000E+02  0.00000E+00  9.000E+00
      21     1     1     2   511   501  8.723288935E+00 -1.936992616E+01 -9.836001272E+00  2.341018433E+01  1.192092896E-07  0.00000E+00  9.000E+00
#rwgt            1           1   4.3175901233378174E-002           7        7892           0
</event>
<event>
      5   9999  3.79277E-02  5.89498E+00 -1.00000E+00  2.26669E-01
       1    -1     0     0   502     0  0.000000000E+00  0.000000000E+00  2.232247616E+03  2.232247616E+03  0.000000000E+00  0.00000E+00  9.000E+00
      21    -1     0     0   501   502  0.000000000E+00  0.000000000E+00 -2.293284138E+02  2.293284138E+02  0.000000000E+00  0.00000E+00  9.000E+00
      25     1     1     2     0     0  1.539853156E+02  8.851672775E+01  2.863308387E+00  2.172093162E+02  1.250000000E+02  0.00000E+00  9.000E+00
      25     1     1     2     0     0 -1.529331458E+02 -8.271640840E+01 -2.830108936E+01  2.160011643E+02  1.250000000E+02  0.00000E+00  9.000E+00
       1     1     1     2   501     0 -1.052169776E+00 -5.800319347E+00  2.028356983E+03  2.028365550E+03  2.157918644E-05  0.00000E+00  9.000E+00
#rwgt            1           1   2.7930020123437684E-002           7        8067           0
</event>
<event>
      5   9999  3.79277E-02  7.03409E+01 -1.00000E+00  1.31114E-01
       2    -1     0     0   502     0  0.000000000E+00  0.000000000E+00  1.209639890E+03  1.209639890E+03  0.000000000E+00  0.00000E+00  9.000E+00
      21    -1     0     0   501   502  0.000000000E+00  0.000000000E+00 -2.137493673E+02  2.137493673E+02  0.000000000E+00  0.00000E+00  9.000E+00
      25     1     1     2     0     0  3.027253957E+02  2.582253430E+02  1.367410528E+02  4.389146939E+02  1.250000000E+02  0.00000E+00  9.000E+00
      25     1     1     2     0     0 -3.004947886E+02 -1.879198181E+02  5.415281948E+02  6.591576153E+02  1.250000000E+02  0.00000E+00  9.000E+00
       2     1     1     2   501     0 -2.230607076E+00 -7.030552489E+01  3.176212755E+02  3.253169486E+02  5.394796609E-06  0.00000E+00  9.000E+00
#rwgt            1           1   3.1893207249082935E-002           7        8362           0
</event>
<event>
      5   9999  3.79277E-02  5.63194E+00 -1.00000E+00  2.29828E-01
      21    -1     0     0   502   511  0.000000000E+00  0.000000000E+00  6.576970502E+01  6.576970502E+01  0.000000000E+00  0.00000E+00  9.000E+00
      21    -1     0     0   501   502  0.000000000E+00  0.000000000E+00 -5.852729744E+02  5.852729744E+02  0.000000000E+00  0.00000E+00  9.000E+00
      25     1     1     2     0     0  7.549599933E+01 -4.364871274E+01 -3.418295250E+02  3.742689944E+02  1.250000000E+02  0.00000E+00  9.000E+00
      25     1     1     2     0     0 -7.317591442E+01  4.878057269E+01 -2.011522461E+02  2.526291449E+02  1.250000000E+02  0.00000E+00  9.000E+00
      21     1     1     2   501   511 -2.320084905E+00 -5.131859948E+00  2.347850165E+01  2.414454018E+01  8.920806376E-07  0.00000E+00  9.000E+00
#rwgt            1           1   4.7350754467163733E-002           7        8568           0
</event>
<event>
      5   9999  3.79277E-02  3.10622E+01 -1.00000E+00  1.51998E-01
      21    -1     0     0   512   501  0.000000000E+00  0.000000000E+00  3.543525781E+02  3.543525781E+02  0.000000000E+00  0.00000E+00  9.000E+00
      21    -1     0     0   501   502  0.000000000E+00  0.000000000E+00 -1.665367469E+02  1.665367469E+02  0.000000000E+00  0.00000E+00  9.000E+00
      25     1     1     2     0     0 -1.044851076E+02  1.084386344E+02  6.372872675E+01  2.058213443E+02  1.250000000E+02  0.00000E+00  9.000E+00
      25     1     1     2     0     0  1.303626054E+02 -1.256204793E+02  3.762306169E+01  2.231936569E+02  1.250000000E+02  0.00000E+00  9.000E+00
      21     1     1     2   512   502 -2.587749777E+01  1.718184487E+01  8.646404285E+01  9.187432389E+01  1.348699152E-06  0.00000E+00  9.000E+00
#rwgt            1           1   4.7772746782821354E-002           7        8934           0
</event>
<event>
      5   9999 -3.79277E-02  1.19190E+01 -1.00000E+00  1.87338E-01
      21    -1     0     0   502   501  0.000000000E+00  0.000000000E+00  1.847802037E+02  1.847802037E+02  0.000000000E+00  0.00000E+00  9.000E+00
      21    -1     0     0   511   502  0.000000000E+00  0.000000000E+00 -3.085817746E+02  3.085817746E+02  0.000000000E+00  0.00000E+00  9.000E+00
      25     1     1     2     0     0 -6.853181707E+01  1.440847541E+02 -1.674889586E+02  2.629345500E+02  1.250000000E+02  0.00000E+00  9.000E+00
      25     1     1     2     0     0  8.024308020E+01 -1.418689384E+02  5.639479687E+01  2.130049781E+02  1.250000000E+02  0.00000E+00  9.000E+00
      21     1     1     2   511   501 -1.171126313E+01 -2.215815755E+00 -1.270740922E+01  1.742245025E+01  1.685873940E-07  0.00000E+00  9.000E+00
#rwgt            1           1 -0.24171171908181743                7        9162           0
</event>
<event>
      5   9999 -3.79277E-02  1.99429E+01 -1.00000E+00  1.66472E-01
      21    -1     0     0   502   501  0.000000000E+00  0.000000000E+00  1.768483485E+02  1.768483485E+02  0.000000000E+00  0.00000E+00  9.000E+00
      21    -1     0     0   501   512  0.000000000E+00  0.000000000E+00 -1.880616036E+02  1.880616036E+02  0.000000000E+00  0.00000E+00  9.000E+00
      25     1     1     2     0     0 -1.163731112E+02 -3.468713392E+01  1.813299472E+01  1.752133093E+02  1.250000000E+02  0.00000E+00  9.000E+00
      25     1     1     2     0     0  1.053774334E+02  1.804937841E+01 -1.507611147E+01  1.651740678E+02  1.250000000E+02  0.00000E+00  9.000E+00
      21     1     1     2   502   512  1.099567778E+01  1.663775550E+01 -1.427013836E+01  2.452257504E+01  1.685873940E-07  0.00000E+00  9.000E+00
#rwgt            1           1 -0.39126766521372008                7        9423           0
</event>
<event>
      5   9999  3.79277E-02  3.27950E+01 -1.00000E+00  1.50400E-01
      21    -1     0     0   502   511  0.000000000E+00  0.000000000E+00  5.934647960E+02  5.934647960E+02  0.000000000E+00  0.00000E+00  9.000E+00
      21    -1     0     0   501   502  0.000000000E+00  0.000000000E+00 -1.203951250E+02  1.203951250E+02  0.000000000E+00  0.00000E+00  9.000E+00
      25     1     1     2     0     0  1.976148181E+02 -1.797654688E+01  9.656954989E+01  2.536246252E+02  1.250000000E+02  0.00000E+00  9.000E+00
      25     1     1     2     0     0 -1.889110566E+02  4.959549753E+01  3.283185675E+02  4.019517166E+02  1.250000000E+02  0.00000E+00  9.000E+00
      21     1     1     2   501   511 -8.703761469E+00 -3.161895065E+01  4.818155360E+01  5.828357926E+01  0.000000000E+00  0.00000E+00  9.000E+00
#rwgt            1           1   3.4871799771049844E-002           7        9670           0
</event>
<event>
      5   9999  3.79277E-02  6.83404E+01 -1.00000E+00  1.31751E-01
      21    -1     0     0   512   501  0.000000000E+00  0.000000000E+00  2.343678537E+02  2.343678537E+02  0.000000000E+00  0.00000E+00  9.000E+00
      21    -1     0     0   501   502  0.000000000E+00  0.000000000E+00 -2.200256539E+02  2.200256539E+02  0.000000000E+00  0.00000E+00  9.000E+00
      25     1     1     2     0     0  6.201438839E+01 -1.135655120E+02 -5.549184890E+01  1.882744145E+02  1.250000000E+02  0.00000E+00  9.000E+00
      25     1     1     2     0     0 -5.679342259E+01  4.542483088E+01 -2.748138617E+01  1.472043977E+02  1.250000000E+02  0.00000E+00  9.000E+00
      21     1     1     2   512   502 -5.220965800E+00  6.814068110E+01  9.731543493E+01  1.189146954E+02  0.000000000E+00  0.00000E+00  9.000E+00
#rwgt            1           1   4.1812334473240405E-002           7        9866           0
</event>
<event>
      5   9999  3.79277E-02  3.98464E+01 -1.00000E+00  1.44944E-01
      21    -1     0     0   502   511  0.000000000E+00  0.000000000E+00  1.599074886E+02  1.599074886E+02  0.000000000E+00  0.00000E+00  9.000E+00
      21    -1     0     0   501   502  0.000000000E+00  0.000000000E+00 -2.284682624E+02  2.284682624E+02  0.000000000E+00  0.00000E+00  9.000E+00
      25     1     1     2     0     0  3.396383080E+01  4.299751484E+01 -1.246353135E+02  1.848277291E+02  1.250000000E+02  0.00000E+00  9.000E+00
      25     1     1     2     0     0 -4.265144181E+01 -8.188527287E+01  4.996794017E+01  1.632364495E+02  1.250000000E+02  0.00000E+00  9.000E+00
      21     1     1     2   501   511  8.687611009E+00  3.888775803E+01  6.106599509E+00  4.031157237E+01  4.915124924E-07  0.00000E+00  9.000E+00
#rwgt            1           1   9.5397278118653020E-003           7       10133           0
</event>
<event>
      5   9999  3.79277E-02  1.29207E+02  7.55638E-03  1.19021E-01
       1    -1     0     0   501     0  0.000000000E+00  0.000000000E+00  2.953355700E+02  2.953355700E+02  0.000000000E+00  0.00000E+00  9.000E+00
      -1    -1     0     0     0   502  0.000000000E+00  0.000000000E+00 -1.947361788E+02  1.947361788E+02  0.000000000E+00  0.00000E+00  9.000E+00
      25     1     1     2     0     0  5.191087708E+01 -6.554236193E+01  1.582213480E+02  2.182877352E+02  1.250000000E+02  0.00000E+00  9.000E+00
      25     1     1     2     0     0  1.359583099E+01 -4.582744702E+01 -1.044997886E+01  1.342356271E+02  1.250000000E+02  0.00000E+00  9.000E+00
      21     1     1     2   501   502 -6.550670807E+01  1.113698089E+02 -4.717197789E+01  1.375483866E+02  1.348699152E-06  0.00000E+00  9.000E+00
#rwgt            3           6   3.3243658323987369E-004           7       10218           0
</event>
<event>
      5   9999  3.79277E-02  2.06073E+01 -1.00000E+00  1.65304E-01
      21    -1     0     0   502   501  0.000000000E+00  0.000000000E+00  5.365527257E+02  5.365527257E+02  0.000000000E+00  0.00000E+00  9.000E+00
       1    -1     0     0   501     0  0.000000000E+00  0.000000000E+00 -1.084790313E+03  1.084790313E+03  0.000000000E+00  0.00000E+00  9.000E+00
      25     1     1     2     0     0 -2.038025681E+02  3.849469568E+01  1.767046368E+02  2.997780129E+02  1.250000000E+02  0.00000E+00  9.000E+00
      25     1     1     2     0     0  1.911225098E+02 -2.225034454E+01  2.540653389E+02  3.423406024E+02  1.250000000E+02  0.00000E+00  9.000E+00
       1     1     1     2   502     0  1.268005836E+01 -1.624435113E+01 -9.790075628E+02  9.792244231E+02  1.078959322E-05  0.00000E+00  9.000E+00
#rwgt            1           1   4.5353558061623014E-002           7       10252           0
</event>
<event>
      5   9999  3.79277E-02  1.09579E+02 -1.00000E+00  1.22067E-01
      21    -1     0     0   502   501  0.000000000E+00  0.000000000E+00  2.140868721E+02  2.140868721E+02  0.000000000E+00  0.00000E+00  9.000E+00
      21    -1     0     0   511   502  0.000000000E+00  0.000000000E+00 -2.672306932E+02  2.672306932E+02  0.000000000E+00  0.00000E+00  9.000E+00
      25     1     1     2     0     0 -7.786509297E+01  8.196587203E+00 -1.010615794E+02  1.787976498E+02  1.250000000E+02  0.00000E+00  9.000E+00
      25     1     1     2     0     0 -2.925301643E+01  1.489796583E+01  1.158746736E+02  1.735788822E+02  1.250000000E+02  0.00000E+00  9.000E+00
      21     1     1     2   511   501  1.071181094E+02 -2.309455304E+01 -6.795691527E+01  1.289410333E+02  0.000000000E+00  0.00000E+00  9.000E+00
#rwgt            1           1   5.2548682334846233E-002           7       10461           0
</event>
<event>
      5   9999  3.79277E-02  3.79087E+01 -1.00000E+00  1.46301E-01
      21    -1     0     0   502   501  0.000000000E+00  0.000000000E+00  1.843406134E+02  1.843406134E+02  0.000000000E+00  0.00000E+00  9.000E+00
      21    -1     0     0   501   512  0.000000000E+00  0.000000000E+00 -2.537396446E+02  2.537396446E+02  0.000000000E+00  0.00000E+00  9.000E+00
      25     1     1     2     0     0  1.059825901E+02 -6.284124703E+01 -3.349245674E+01  1.786842925E+02  1.250000000E+02  0.00000E+00  9.000E+00
      25     1     1     2     0     0 -1.435944920E+02  6.757573410E+01  7.004514393E+00  2.021383714E+02  1.250000000E+02  0.00000E+00  9.000E+00
      21     1     1     2   502   512  3.761190184E+01 -4.734487063E+00 -4.291108883E+01  5.725759402E+01  4.768371582E-07  0.00000E+00  9.000E+00
#rwgt            1           1   4.0839647902792021E-002           7       10587           0
</event>
<event>
      5   9999  3.79277E-02  4.75621E+01 -1.00000E+00  1.40326E-01
      21    -1     0     0   502   511  0.000000000E+00  0.000000000E+00  1.731392870E+02  1.731392870E+02  0.000000000E+00  0.00000E+00  9.000E+00
      21    -1     0     0   501   502  0.000000000E+00  0.000000000E+00 -5.399156261E+02  5.399156261E+02  0.000000000E+00  0.00000E+00  9.000E+00
      25     1     1     2     0     0 -2.088423673E+02 -7.729095499E+01 -2.083900411E+02  3.296064856E+02  1.250000000E+02  0.00000E+00  9.000E+00
      25     1     1     2     0     0  1.781269243E+02  4.097678243E+01 -2.155927413E+02  3.090526297E+02  1.250000000E+02  0.00000E+00  9.000E+00
      21     1     1     2   501   511  3.071544303E+01  3.631417256E+01  5.720644336E+01  7.439579780E+01  0.000000000E+00  0.00000E+00  9.000E+00
#rwgt            1           1   3.5381541580374931E-002           7       10695           0
</event>
<event>
      5   9999  3.79277E-02  5.66444E+01 -1.00000E+00  1.36053E-01
      21    -1     0     0   502   501  0.000000000E+00  0.000000000E+00  1.667987900E+02  1.667987900E+02  0.000000000E+00  0.00000E+00  9.000E+00
      21    -1     0     0   501   512  0.000000000E+00  0.000000000E+00 -1.062957653E+03  1.062957653E+03  0.000000000E+00  0.00000E+00  9.000E+00
      25     1     1     2     0     0 -1.822291691E+02  8.050888452E+01 -4.313037648E+02  4.912607130E+02  1.250000000E+02  0.00000E+00  9.000E+00
      25     1     1     2     0     0  1.650862539E+02 -2.652085219E+01  5.474169602E+01  2.158204812E+02  1.250000000E+02  0.00000E+00  9.000E+00
      21     1     1     2   502   512  1.714291518E+01 -5.398803233E+01 -5.195967940E+02  5.226752486E+02  1.078959322E-05  0.00000E+00  9.000E+00
#rwgt            1           1   3.5482761284625970E-002           7       10858           0
</event>
<event>
      5   9999  3.79277E-02  2.14063E+01 -1.00000E+00  1.63970E-01
      21    -1     0     0   502   501  0.000000000E+00  0.000000000E+00  2.529729782E+02  2.529729782E+02  0.000000000E+00  0.00000E+00  9.000E+00
      21    -1     0     0   501   511  0.000000000E+00  0.000000000E+00 -4.315942169E+02  4.315942169E+02  0.000000000E+00  0.00000E+00  9.000E+00
      25     1     1     2     0     0 -1.143072547E+02 -8.381359428E+01 -2.394315281E+02  3.050300374E+02  1.250000000E+02  0.00000E+00  9.000E+00
      25     1     1     2     0     0  9.660465879E+01  7.177833312E+01  1.849261897E+02  2.535888106E+02  1.250000000E+02  0.00000E+00  9.000E+00
      21     1     1     2   502   511  1.770259594E+01  1.203526116E+01 -1.241159003E+02  1.259483471E+02  1.348699152E-06  0.00000E+00  9.000E+00
#rwgt            1           1   2.3930334016312189E-002           7       11019           0
</event>
<event>
      5   9999  3.79277E-02  7.97863E+00 -1.00000E+00  2.07823E-01
      21    -1     0     0   502   512  0.000000000E+00  0.000000000E+00  5.502135770E+01  5.502135770E+01  0.000000000E+00  0.00000E+00  9.000E+00
      21    -1     0     0   501   502  0.000000000E+00  0.000000000E+00 -1.719823351E+03  1.719823351E+03  0.000000000E+00  0.00000E+00  9.000E+00
      25     1     1     2     0     0  1.517559529E+01  2.083751743E+02 -1.268749281E+03  1.291897926E+03  1.250000000E+02  0.00000E+00  9.000E+00
      25     1     1     2     0     0 -1.562645596E+01 -2.163410541E+02 -4.015930779E+02  4.732331751E+02  1.250000000E+02  0.00000E+00  9.000E+00
      21     1     1     2   501   512  4.508606730E-01  7.965879850E+00  5.540366034E+00  9.713607616E+00  1.460009660E-07  0.00000E+00  9.000E+00
#rwgt            1           1   4.4630843442932167E-002           7       11331           0
</event>
<event>
      5   9999  3.79277E-02  9.13778E+01 -1.00000E+00  1.25615E-01
      21    -1     0     0   502   511  0.000000000E+00  0.000000000E+00  8.068946247E+01  8.068946247E+01  0.000000000E+00  0.00000E+00  9.000E+00
      21    -1     0     0   501   502  0.000000000E+00  0.000000000E+00 -1.461349497E+03  1.461349497E+03  0.000000000E+00  0.00000E+00  9.000E+00
      25     1     1     2     0     0 -4.648599428E+01 -1.758878768E+02 -3.757714640E+02  4.358057893E+02  1.250000000E+02  0.00000E+00  9.000E+00
      25     1     1     2     0     0  1.361719380E+02  1.933902939E+02 -9.735401230E+02  1.009627641E+03  1.250000000E+02  0.00000E+00  9.000E+00
      21     1     1     2   501   511 -8.968594377E+01 -1.750241707E+01 -3.134844777E+01  9.660552930E+01  2.567846683E-06  0.00000E+00  9.000E+00
#rwgt            1           1   7.2564777738229710E-002           7       11723           0
</event>
<event>
      5   9999  3.79277E-02  3.71088E+01 -1.00000E+00  1.46890E-01
       1    -1     0     0   502     0  0.000000000E+00  0.000000000E+00  1.445221594E+02  1.445221594E+02  0.000000000E+00  0.00000E+00  9.000E+00
      21    -1     0     0   501   502  0.000000000E+00  0.000000000E+00 -6.144794886E+02  6.144794886E+02  0.000000000E+00  0.00000E+00  9.000E+00
      25     1     1     2     0     0  5.235458078E+01 -1.634505699E-01  8.892616036E+01  1.620922294E+02  1.250000000E+02  0.00000E+00  9.000E+00
      25     1     1     2     0     0 -7.381336332E+01  3.043853870E+01 -5.285902009E+02  5.490059360E+02  1.250000000E+02  0.00000E+00  9.000E+00
       1     1     1     2   501     0  2.145878253E+01 -3.027508813E+01 -3.029328861E+01  4.790348259E+01  1.066240300E-06  0.00000E+00  9.000E+00
#rwgt            1           1   5.0015560325892952E-002           7       11884           0
</event>
<event>
      5   9999  3.79277E-02  3.26445E+00 -1.00000E+00  2.86162E-01
      21    -1     0     0   502   501  0.000000000E+00  0.000000000E+00  1.959837957E+02  1.959837957E+02  0.000000000E+00  0.00000E+00  9.000E+00
       1    -1     0     0   501     0  0.000000000E+00  0.000000000E+00 -2.231082834E+02  2.231082834E+02  0.000000000E+00  0.00000E+00  9.000E+00
      25     1     1     2     0     0  4.502152144E+01  3.413823852E+01  1.264441481E+02  1.865622665E+02  1.250000000E+02  0.00000E+00  9.000E+00
      25     1     1     2     0     0 -4.261052854E+01 -3.633908799E+01 -7.946363944E+01  1.583529490E+02  1.250000000E+02  0.00000E+00  9.000E+00
       1     1     1     2   502     0 -2.410992907E+00  2.200849469E+00 -7.410499627E+01  7.417686363E+01  9.536743164E-07  0.00000E+00  9.000E+00
#rwgt            1           1   3.0742564312295443E-002           7       12159           0
</event>
<event>
      5   9999  3.79277E-02  2.39505E+01 -1.00000E+00  1.60159E-01
      21    -1     0     0   511   501  0.000000000E+00  0.000000000E+00  5.726969255E+02  5.726969255E+02  0.000000000E+00  0.00000E+00  9.000E+00
      21    -1     0     0   501   502  0.000000000E+00  0.000000000E+00 -1.603189854E+02  1.603189854E+02  0.000000000E+00  0.00000E+00  9.000E+00
      25     1     1     2     0     0 -2.235319888E+02 -1.933220956E+01  6.165254604E+01  2.641331497E+02  1.250000000E+02  0.00000E+00  9.000E+00
      25     1     1     2     0     0  2.466544764E+02  2.557535085E+01  2.806135684E+02  3.947929889E+02  1.250000000E+02  0.00000E+00  9.000E+00
      21     1     1     2   511   502 -2.312248767E+01 -6.243141287E+00  7.011182564E+01  7.408977219E+01  9.536743164E-07  0.00000E+00  9.000E+00
#rwgt            1           1   1.8058309789661921E-002           7       12648           0
</event>
<event>
      5   9999  3.79277E-02  1.59065E+02 -1.00000E+00  1.15393E-01
       3    -1     0     0   502     0  0.000000000E+00  0.000000000E+00  1.827827961E+03  1.827827961E+03  0.000000000E+00  0.00000E+00  9.000E+00
      21    -1     0     0   501   502  0.000000000E+00  0.000000000E+00 -3.145115425E+02  3.145115425E+02  0.000000000E+00  0.00000E+00  9.000E+00
      25     1     1     2     0     0 -1.432390319E+02  5.087042176E+01 -1.120146278E+02  2.264453508E+02  1.250000000E+02  0.00000E+00  9.000E+00
      25     1     1     2     0     0  2.849549066E+02 -1.231071063E+02  5.692275575E+01  3.394405081E+02  1.250000000E+02  0.00000E+00  9.000E+00
       3     1     1     2   501     0 -1.417158747E+02  7.223668451E+01  1.568408290E+03  1.576453644E+03  2.157918644E-05  0.00000E+00  9.000E+00
#rwgt            1           1   3.4270181404547781E-002           7       12776           0
</event>
<event>
      5   9999  3.79277E-02  3.03853E+01 -1.00000E+00  1.52656E-01
      21    -1     0     0   511   501  0.000000000E+00  0.000000000E+00  2.512229897E+02  2.512229897E+02  0.000000000E+00  0.00000E+00  9.000E+00
      21    -1     0     0   501   502  0.000000000E+00  0.000000000E+00 -1.717566213E+02  1.717566213E+02  0.000000000E+00  0.00000E+00  9.000E+00
      25     1     1     2     0     0 -7.215453584E+01 -1.352359934E+02  3.013015690E+01  2.000696811E+02  1.250000000E+02  0.00000E+00  9.000E+00
      25     1     1     2     0     0  4.421712432E+01  1.232874363E+02  2.263883287E+01  1.824622229E+02  1.250000000E+02  0.00000E+00  9.000E+00
      21     1     1     2   511   502  2.793741152E+01  1.194855708E+01  2.669737857E+01  4.044770700E+01  8.920806376E-07  0.00000E+00  9.000E+00
#rwgt            1           1   3.6446195481585682E-002           7       12928           0
</event>
<event>
      5   9999  3.79277E-02  5.16512E+01 -1.00000E+00  1.38275E-01
      21    -1     0     0   502   501  0.000000000E+00  0.000000000E+00  2.743128964E+02  2.743128964E+02  0.000000000E+00  0.00000E+00  9.000E+00
      -1    -1     0     0     0   502  0.000000000E+00  0.000000000E+00 -2.223719530E+02  2.223719530E+02  0.000000000E+00  0.00000E+00  9.000E+00
      25     1     1     2     0     0  3.777952159E+01  8.230154648E+01 -4.516734209E+01  1.608288705E+02  1.250000000E+02  0.00000E+00  9.000E+00
      25     1     1     2     0     0 -8.834294503E+00 -1.250802454E+02  1.707046179E+02  2.459434470E+02  1.250000000E+02  0.00000E+00  9.000E+00
      -1     1     1     2     0   501 -2.894522709E+01  4.277869887E+01 -7.359633244E+01  8.991253192E+01  1.348699152E-06  0.00000E+00  9.000E+00
#rwgt            1           1   2.4072100933471511E-002           7       13184           0
</event>
<event>
      5   9999  3.79277E-02  2.69054E+01 -1.00000E+00  1.56398E-01
      21    -1     0     0   511   501  0.000000000E+00  0.000000000E+00  2.050663261E+02  2.050663261E+02  0.000000000E+00  0.00000E+00  9.000E+00
      21    -1     0     0   501   502  0.000000000E+00  0.000000000E+00 -4.588266350E+02  4.588266350E+02  0.000000000E+00  0.00000E+00  9.000E+00
      25     1     1     2     0     0  1.024872441E+02 -1.167553793E+02 -2.888342790E+02  3.509781966E+02  1.250000000E+02  0.00000E+00  9.000E+00
      25     1     1     2     0     0 -1.173742173E+02  9.434385140E+01 -6.738194172E+01  2.069850122E+02  1.250000000E+02  0.00000E+00  9.000E+00
      21     1     1     2   511   502  1.488697325E+01  2.241152793E+01  1.024559118E+02  1.059297523E+02  1.348699152E-06  0.00000E+00  9.000E+00
#rwgt            1           1   3.4894075146515123E-002           7       13290           0
</event>
<event>
      5   9999 -3.79277E-02  6.38007E+01 -1.00000E+00  1.33293E-01
      21    -1     0     0   502   501  0.000000000E+00  0.000000000E+00  5.469851117E+02  5.469851117E+02  0.000000000E+00  0.00000E+00  9.000E+00
      21    -1     0     0   512   502  0.000000000E+00  0.000000000E+00 -1.729031271E+02  1.729031271E+02  0.000000000E+00  0.00000E+00  9.000E+00
      25     1     1     2     0     0 -1.856055690E+02  1.479546505E+01  2.416104877E+02  3.296497548E+02  1.250000000E+02  0.00000E+00  9.000E+00
      25     1     1     2     0     0  2.420160556E+02 -4.460133245E+01  1.618799005E+02  3.199861750E+02  1.250000000E+02  0.00000E+00  9.000E+00
      21     1     1     2   512   501 -5.641048656E+01  2.980586740E+01 -2.940840364E+01  7.025230907E+01  1.651812370E-06  0.00000E+00  9.000E+00
#rwgt            1           1  -3.0560950063643719E-002           7       13390           0
</event>
<event>
      5   9999 -3.79277E-02  5.52827E+01 -1.00000E+00  1.36632E-01
      21    -1     0     0   511   501  0.000000000E+00  0.000000000E+00  8.370184688E+02  8.370184688E+02  0.000000000E+00  0.00000E+00  9.000E+00
      21    -1     0     0   501   502  0.000000000E+00  0.000000000E+00 -4.923797237E+02  4.923797237E+02  0.000000000E+00  0.00000E+00  9.000E+00
      25     1     1     2     0     0  1.757162157E+02 -2.545853411E+01 -1.597568670E+02  2.695766718E+02  1.250000000E+02  0.00000E+00  9.000E+00
      25     1     1     2     0     0 -1.666260459E+02 -2.907165472E+01 -2.367150206E+02  3.166518613E+02  1.250000000E+02  0.00000E+00  9.000E+00
      21     1     1     2   511   502 -9.090169841E+00  5.453018883E+01  7.411106328E+02  7.431696594E+02  1.078959322E-05  0.00000E+00  9.000E+00
#rwgt            1           1 -0.12402605109436710                7       13524           0
</event>
<event>
      5   9999 -3.79277E-02  7.40291E+01 -1.00000E+00  1.30001E-01
      21    -1     0     0   502   512  0.000000000E+00  0.000000000E+00  4.380461260E+01  4.380461260E+01  0.000000000E+00  0.00000E+00  9.000E+00
      21    -1     0     0   501   502  0.000000000E+00  0.000000000E+00 -1.091007693E+03  1.091007693E+03  0.000000000E+00  0.00000E+00  9.000E+00
      25     1     1     2     0     0  5.847840872E+01  1.365650567E+01 -8.099470138E+02  8.217331620E+02  1.250000000E+02  0.00000E+00  9.000E+00
      25     1     1     2     0     0 -5.328470010E-02  3.180573488E+01 -1.670804716E+02  2.110746114E+02  1.250000000E+02  0.00000E+00  9.000E+00
      21     1     1     2   501   512 -5.842512402E+01 -4.546224054E+01 -7.017559493E+01  1.020045320E+02  1.348699152E-06  0.00000E+00  9.000E+00
#rwgt            1           1  -2.3598736421689477E-002           7       13609           0
</event>
<event>
      5   9999  3.79277E-02  4.84477E+01 -1.00000E+00  1.39862E-01
      21    -1     0     0   502   501  0.000000000E+00  0.000000000E+00  1.612689603E+02  1.612689603E+02  0.000000000E+00  0.00000E+00  9.000E+00
      21    -1     0     0   511   502  0.000000000E+00  0.000000000E+00 -1.429273021E+03  1.429273021E+03  0.000000000E+00  0.00000E+00  9.000E+00
      25     1     1     2     0     0 -1.406349598E+01  3.760385170E+02 -8.816799741E+02  9.667405675E+02  1.250000000E+02  0.00000E+00  9.000E+00
      25     1     1     2     0     0  3.812145492E+01 -3.339862304E+02 -1.606407093E+02  3.929764432E+02  1.250000000E+02  0.00000E+00  9.000E+00
      21     1     1     2   511   501 -2.405795894E+01 -4.205228666E+01 -2.256833777E+02  2.308249708E+02  0.000000000E+00  0.00000E+00  9.000E+00
#rwgt            1           1   3.4725597061763432E-002           7       13717           0
</event>
<event>
      5   9999  3.79277E-02  5.17034E+01 -1.00000E+00  1.38250E-01
      21    -1     0     0   502   501  0.000000000E+00  0.000000000E+00  2.891377218E+02  2.891377218E+02  0.000000000E+00  0.00000E+00  9.000E+00
      21    -1     0     0   501   512  0.000000000E+00  0.000000000E+00 -2.815290789E+02  2.815290789E+02  0.000000000E+00  0.00000E+00  9.000E+00
      25     1     1     2     0     0  1.920085052E+02 -1.693265392E+01 -1.419968142E+02  2.700779075E+02  1.250000000E+02  0.00000E+00  9.000E+00
      25     1     1     2     0     0 -1.407760493E+02  9.970401294E+00  1.606829535E+02  2.477121646E+02  1.250000000E+02  0.00000E+00  9.000E+00
      21     1     1     2   502   512 -5.123245591E+01  6.962252627E+00 -1.107749642E+01  5.287672859E+01  8.344650269E-07  0.00000E+00  9.000E+00
#rwgt            1           1   1.6484739268382276E-002           7       13857           0
</event>
<event>
      5   9999  3.79277E-02  3.96247E+01 -1.00000E+00  1.45094E-01
      21    -1     0     0   502   501  0.000000000E+00  0.000000000E+00  9.878250906E+02  9.878250906E+02  0.000000000E+00  0.00000E+00  9.000E+00
      21    -1     0     0   501   511  0.000000000E+00  0.000000000E+00 -6.322730847E+01  6.322730847E+01  0.000000000E+00  0.00000E+00  9.000E+00
      25     1     1     2     0     0  1.643054439E+02 -4.795571441E+01  3.401396925E+02  4.007693100E+02  1.250000000E+02  0.00000E+00  9.000E+00
      25     1     1     2     0     0 -2.033333245E+02  5.480723891E+01  5.164996010E+02  5.716162280E+02  1.250000000E+02  0.00000E+00  9.000E+00
      21     1     1     2   502   511  3.902788058E+01 -6.851524504E+00  6.795848867E+01  7.866686109E+01  1.348699152E-06  0.00000E+00  9.000E+00
#rwgt            1           1   4.0229626748993226E-002           7       13937           0
</event>
<event>
      5   9999  3.79277E-02  2.31752E+01 -1.00000E+00  1.61257E-01
      21    -1     0     0   502   501  0.000000000E+00  0.000000000E+00  3.360765887E+02  3.360765887E+02  0.000000000E+00  0.00000E+00  9.000E+00
      21    -1     0     0   512   502  0.000000000E+00  0.000000000E+00 -1.830864588E+02  1.830864588E+02  0.000000000E+00  0.00000E+00  9.000E+00
      25     1     1     2     0     0  6.635150740E+01 -3.595661432E+01 -1.144449547E+02  1.855210185E+02  1.250000000E+02  0.00000E+00  9.000E+00
      25     1     1     2     0     0 -5.857844745E+01  5.778935269E+01  2.715948876E+02  3.100964798E+02  1.250000000E+02  0.00000E+00  9.000E+00
      21     1     1     2   512   501 -7.773059945E+00 -2.183273837E+01 -4.159803016E+00  2.354554919E+01  2.064765462E-07  0.00000E+00  9.000E+00
#rwgt            1           1   4.1182719111909127E-002           7       14177           0
</event>
<event>
      5   9999  3.79277E-02  3.80024E+01 -1.00000E+00  1.46234E-01
      21    -1     0     0   502   501  0.000000000E+00  0.000000000E+00  1.656437749E+02  1.656437749E+02  0.000000000E+00  0.00000E+00  9.000E+00
      21    -1     0     0   501   511  0.000000000E+00  0.000000000E+00 -1.387054461E+03  1.387054461E+03  0.000000000E+00  0.00000E+00  9.000E+00
      25     1     1     2     0     0 -2.887556081E+02  2.290403284E+02 -4.315144433E+02  5.810929254E+02  1.250000000E+02  0.00000E+00  9.000E+00
      25     1     1     2     0     0  2.559840442E+02 -2.482811840E+02 -3.060653245E+02  4.862842379E+02  1.250000000E+02  0.00000E+00  9.000E+00
      21     1     1     2   502   511  3.277156395E+01  1.924085562E+01 -4.838309188E+02  4.853210731E+02  7.629394531E-06  0.00000E+00  9.000E+00
#rwgt            1           1   4.5819476245996305E-002           7       14454           0
</event>
<event>
      5   9999  3.79277E-02  1.69132E+01 -1.00000E+00  1.72609E-01
      21    -1     0     0   502   512  0.000000000E+00  0.000000000E+00  1.396646918E+02  1.396646918E+02  0.000000000E+00  0.00000E+00  9.000E+00
      21    -1     0     0   501   502  0.000000000E+00  0.000000000E+00 -2.860099306E+02  2.860099306E+02  0.000000000E+00  0.00000E+00  9.000E+00
      25     1     1     2     0     0  5.120166840E+01 -8.168483754E+01 -1.742126375E+02  2.350937400E+02  1.250000000E+02  0.00000E+00  9.000E+00
      25     1     1     2     0     0 -5.781577545E+01  9.725116419E+01  1.487493235E+01  1.692534089E+02  1.250000000E+02  0.00000E+00  9.000E+00
      21     1     1     2   501   512  6.614107049E+00 -1.556632665E+01  1.299246635E+01  2.132747335E+01  3.769728732E-07  0.00000E+00  9.000E+00
#rwgt            1           1   3.0098516040342291E-002           7       14643           0
</event>
<event>
      5   9999  3.79277E-02  5.06536E+01 -1.00000E+00  1.38754E-01
      21    -1     0     0   502   511  0.000000000E+00  0.000000000E+00  6.963059017E+02  6.963059017E+02  0.000000000E+00  0.00000E+00  9.000E+00
      21    -1     0     0   501   502  0.000000000E+00  0.000000000E+00 -5.031722873E+02  5.031722873E+02  0.000000000E+00  0.00000E+00  9.000E+00
      25     1     1     2     0     0  7.681985160E+01 -1.470292361E+02 -1.826578414E+02  2.766003848E+02  1.250000000E+02  0.00000E+00  9.000E+00
      25     1     1     2     0     0 -1.043285800E+02  1.895621891E+02 -2.151638441E+02  3.297556003E+02  1.250000000E+02  0.00000E+00  9.000E+00
      21     1     1     2   501   511  2.750872841E+01 -4.253295294E+01  5.909552999E+02  5.931222039E+02  1.078959322E-05  0.00000E+00  9.000E+00
#rwgt            1           1  0.18081942277220581                7       14855           0
</event>
<event>
      5   9999 -3.79277E-02  1.08870E+02 -1.00000E+00  1.22190E-01
      21    -1     0     0   502   501  0.000000000E+00  0.000000000E+00  8.486977668E+02  8.486977668E+02  0.000000000E+00  0.00000E+00  9.000E+00
       2    -1     0     0   501     0  0.000000000E+00  0.000000000E+00 -8.203593516E+02  8.203593516E+02  0.000000000E+00  0.00000E+00  9.000E+00
      25     1     1     2     0     0  2.261235930E+02  2.783034938E+02  4.810629991E+02  6.128876921E+02  1.250000000E+02  0.00000E+00  9.000E+00
      25     1     1     2     0     0 -1.188024364E+02 -2.966050364E+02  1.981830776E+02  3.962197607E+02  1.250000000E+02  0.00000E+00  9.000E+00
       2     1     1     2   502     0 -1.073211566E+02  1.830154266E+01 -6.509076616E+02  6.599496655E+02  1.078959322E-05  0.00000E+00  9.000E+00
#rwgt            1           1  -5.2693476100404840E-003           7       14973           0
</event>
<event>
      5   9999 -3.79277E-02  2.15788E+01 -1.00000E+00  1.63692E-01
      21    -1     0     0   502   501  0.000000000E+00  0.000000000E+00  2.803549986E+01  2.803549986E+01  0.000000000E+00  0.00000E+00  9.000E+00
       2    -1     0     0   501     0  0.000000000E+00  0.000000000E+00 -2.063158850E+03  2.063158850E+03  0.000000000E+00  0.00000E+00  9.000E+00
      25     1     1     2     0     0  2.603899288E+01 -1.616726742E+02 -8.720067343E+02  8.960116223E+02  1.250000000E+02  0.00000E+00  9.000E+00
      25     1     1     2     0     0 -5.129596679E+00  1.670056776E+02 -6.733607059E+02  7.049516646E+02  1.250000000E+02  0.00000E+00  9.000E+00
       2     1     1     2   502     0 -2.090939620E+01 -5.333003372E+00 -4.897559099E+02  4.902310630E+02  5.394796609E-06  0.00000E+00  9.000E+00
#rwgt            1           1  -7.2110205022990911E-002           7       15055           0
</event>
<event>
      5   9999  3.79277E-02  4.30917E+01 -1.00000E+00  1.42863E-01
      21    -1     0     0   502   511  0.000000000E+00  0.000000000E+00  1.449267423E+02  1.449267423E+02  0.000000000E+00  0.00000E+00  9.000E+00
      21    -1     0     0   501   502  0.000000000E+00  0.000000000E+00 -1.700865784E+03  1.700865784E+03  0.000000000E+00  0.00000E+00  9.000E+00
      25     1     1     2     0     0  2.725344666E+02 -2.882700127E+01 -6.463860877E+01  3.080733374E+02  1.250000000E+02  0.00000E+00  9.000E+00
      25     1     1     2     0     0 -2.300098726E+02  2.185918307E+01 -1.462462957E+03  1.485868522E+03  1.250000000E+02  0.00000E+00  9.000E+00
      21     1     1     2   501   511 -4.252459405E+01  6.967818198E+00 -2.883747609E+01  5.185066651E+01  5.840038640E-07  0.00000E+00  9.000E+00
#rwgt            1           1  0.13432937889000879                7       15278           0
</event>
<event>
      5   9999  3.79277E-02  3.34313E+01 -1.00000E+00  1.49843E-01
      21    -1     0     0   502   501  0.000000000E+00  0.000000000E+00  5.968826159E+02  5.968826159E+02  0.000000000E+00  0.00000E+00  9.000E+00
      21    -1     0     0   512   502  0.000000000E+00  0.000000000E+00 -1.333015106E+02  1.333015106E+02  0.000000000E+00  0.00000E+00  9.000E+00
      25     1     1     2     0     0 -2.611373665E+01 -1.507957700E+02  4.545144996E+02  4.956104537E+02  1.250000000E+02  0.00000E+00  9.000E+00
      25     1     1     2     0     0  5.622202935E+01  1.362649143E+02 -1.427760802E+01  1.937985901E+02  1.250000000E+02  0.00000E+00  9.000E+00
      21     1     1     2   512   501 -3.010829269E+01  1.453085571E+01  2.334421371E+01  4.077508271E+01  5.840038640E-07  0.00000E+00  9.000E+00
#rwgt            1           1   3.7546481273582351E-002           7       15397           0
</event>
<event>
      5   9999  3.79277E-02  1.42938E+01 -1.00000E+00  1.79380E-01
      21    -1     0     0   502   501  0.000000000E+00  0.000000000E+00  1.702060034E+02  1.702060034E+02  0.000000000E+00  0.00000E+00  9.000E+00
      21    -1     0     0   511   502  0.000000000E+00  0.000000000E+00 -2.371442913E+02  2.371442913E+02  0.000000000E+00  0.00000E+00  9.000E+00
      25     1     1     2     0     0  1.780594487E+01  1.442231953E+01  1.856005266E+01  1.284310341E+02  1.250000000E+02  0.00000E+00  9.000E+00
      25     1     1     2     0     0 -7.807225999E+00 -4.207670708E+00  5.560273961E+01  1.370960318E+02  1.250000000E+02  0.00000E+00  9.000E+00
      21     1     1     2   511   501 -9.998718876E+00 -1.021464882E+01 -1.411010801E+02  1.418232289E+02  1.907348633E-06  0.00000E+00  9.000E+00
#rwgt            1           1   1.6505877967913046E-003           7       15626           0
</event>
<event>
      5   9999  3.79277E-02  6.26886E+01 -1.00000E+00  1.33694E-01
      21    -1     0     0   502   501  0.000000000E+00  0.000000000E+00  1.227657690E+02  1.227657690E+02  0.000000000E+00  0.00000E+00  9.000E+00
      21    -1     0     0   512   502  0.000000000E+00  0.000000000E+00 -4.267726645E+02  4.267726645E+02  0.000000000E+00  0.00000E+00  9.000E+00
      25     1     1     2     0     0 -1.233792097E+02  2.812464345E+01 -2.322319632E+01  1.793815537E+02  1.250000000E+02  0.00000E+00  9.000E+00
      25     1     1     2     0     0  9.556598919E+01 -8.430544621E+01 -2.083371329E+02  2.743531073E+02  1.250000000E+02  0.00000E+00  9.000E+00
      21     1     1     2   512   501  2.781322055E+01  5.618080277E+01 -7.244656633E+01  9.580377242E+01  0.000000000E+00  0.00000E+00  9.000E+00
#rwgt            1           1   3.1368211318410943E-002           7       15884           0
</event>
<event>
      5   9999  3.79277E-02  1.78617E+01 -1.00000E+00  1.70525E-01
      21    -1     0     0   502   511  0.000000000E+00  0.000000000E+00  8.833051845E+02  8.833051845E+02  0.000000000E+00  0.00000E+00  9.000E+00
      21    -1     0     0   501   502  0.000000000E+00  0.000000000E+00 -1.887714100E+02  1.887714100E+02  0.000000000E+00  0.00000E+00  9.000E+00
      25     1     1     2     0     0 -2.596895577E+01  2.100378605E+01  3.895520827E+02  4.104770040E+02  1.250000000E+02  0.00000E+00  9.000E+00
      25     1     1     2     0     0  4.157593487E+01 -1.231677105E+01 -1.535676761E+02  2.027024725E+02  1.250000000E+02  0.00000E+00  9.000E+00
      21     1     1     2   501   511 -1.560697910E+01 -8.687015004E+00  4.585493680E+02  4.588971180E+02  7.629394531E-06  0.00000E+00  9.000E+00
#rwgt            1           1   4.4090457150727534E-002           7       16025           0
</event>
<event>
      5   9999  3.79277E-02  2.32114E+01 -1.00000E+00  1.61204E-01
      21    -1     0     0   502   512  0.000000000E+00  0.000000000E+00  3.299406064E+02  3.299406064E+02  0.000000000E+00  0.00000E+00  9.000E+00
      21    -1     0     0   501   502  0.000000000E+00  0.000000000E+00 -2.803833205E+02  2.803833205E+02  0.000000000E+00  0.00000E+00  9.000E+00
      25     1     1     2     0     0  3.349795657E+01 -1.070271767E+01  2.844340062E+02  3.126729364E+02  1.250000000E+02  0.00000E+00  9.000E+00
      25     1     1     2     0     0 -5.670929376E+01  1.075142497E+01 -2.372624197E+02  2.743173216E+02  1.250000000E+02  0.00000E+00  9.000E+00
      21     1     1     2   501   512  2.321133719E+01 -4.870729412E-02  2.385699368E+00  2.333366898E+01  3.291774099E-07  0.00000E+00  9.000E+00
#rwgt            1           1   2.4601931700001505E-002           7       16218           0
</event>
<event>
      5   9999  3.79277E-02  8.03409E+01 -1.00000E+00  1.28260E-01
      21    -1     0     0   502   511  0.000000000E+00  0.000000000E+00  5.492719155E+02  5.492719155E+02  0.000000000E+00  0.00000E+00  9.000E+00
      21    -1     0     0   501   502  0.000000000E+00  0.000000000E+00 -3.497717722E+02  3.497717722E+02  0.000000000E+00  0.00000E+00  9.000E+00
      25     1     1     2     0     0  5.715234498E+01  2.225481736E+02 -9.074733179E+01  2.768648738E+02  1.250000000E+02  0.00000E+00  9.000E+00
      25     1     1     2     0     0 -1.355862117E+02 -2.051471244E+02 -4.317838146E+01  2.792102005E+02  1.250000000E+02  0.00000E+00  9.000E+00
      21     1     1     2   501   511  7.843386670E+01 -1.740104915E+01  3.334258565E+02  3.429686134E+02  5.394796609E-06  0.00000E+00  9.000E+00
#rwgt            1           1   4.4026228873116240E-002           7       16424           0
</event>
<event>
      5   9999  3.79277E-02  5.81460E+01 -1.00000E+00  1.35436E-01
      21    -1     0     0   502   501  0.000000000E+00  0.000000000E+00  4.788518426E+01  4.788518426E+01  0.000000000E+00  0.00000E+00  9.000E+00
       2    -1     0     0   501     0  0.000000000E+00  0.000000000E+00 -1.847352863E+03  1.847352863E+03  0.000000000E+00  0.00000E+00  9.000E+00
      25     1     1     2     0     0 -3.042806398E+01 -2.013027167E+02 -8.456697949E+02  8.787667796E+02  1.250000000E+02  0.00000E+00  9.000E+00
      25     1     1     2     0     0  8.856604215E+01  2.022657959E+02 -5.179342932E+02  5.767463291E+02  1.250000000E+02  0.00000E+00  9.000E+00
       2     1     1     2   502     0 -5.813797817E+01 -9.630791474E-01 -4.358635909E+02  4.397249389E+02  7.629394531E-06  0.00000E+00  9.000E+00
#rwgt            1           1   3.6141181647103691E-002           7       16525           0
</event>
<event>
      5   9999  3.79277E-02  1.34252E+01 -1.00000E+00  1.82045E-01
       2    -1     0     0   502     0  0.000000000E+00  0.000000000E+00  1.044069428E+03  1.044069428E+03  0.000000000E+00  0.00000E+00  9.000E+00
      21    -1     0     0   501   502  0.000000000E+00  0.000000000E+00 -1.710809850E+02  1.710809850E+02  0.000000000E+00  0.00000E+00  9.000E+00
      25     1     1     2     0     0  5.755790093E+01  1.723419060E+02 -7.298831271E+01  2.323078525E+02  1.250000000E+02  0.00000E+00  9.000E+00
      25     1     1     2     0     0 -6.819045226E+01 -1.641452253E+02  6.270646655E+02  6.636480147E+02  1.250000000E+02  0.00000E+00  9.000E+00
       2     1     1     2   501     0  1.063255133E+01 -8.196680749E+00  3.189120907E+02  3.191945462E+02  0.000000000E+00  0.00000E+00  9.000E+00
#rwgt            1           1   2.0594663859572204E-002           7       16672           0
</event>
<event>
      5   9999  3.79277E-02  5.90336E+01 -1.00000E+00  1.35081E-01
      21    -1     0     0   511   501  0.000000000E+00  0.000000000E+00  5.004318162E+02  5.004318162E+02  0.000000000E+00  0.00000E+00  9.000E+00
      21    -1     0     0   501   502  0.000000000E+00  0.000000000E+00 -6.211335589E+02  6.211335589E+02  0.000000000E+00  0.00000E+00  9.000E+00
      25     1     1     2     0     0  1.621649538E+02 -1.368123948E+01 -2.061359787E+02  2.908636971E+02  1.250000000E+02  0.00000E+00  9.000E+00
      25     1     1     2     0     0 -1.649330493E+02 -4.528742128E+01 -3.403224308E+02  4.008718226E+02  1.250000000E+02  0.00000E+00  9.000E+00
      21     1     1     2   511   502  2.768095441E+00  5.896866076E+01  4.257566668E+02  4.298298554E+02  5.394796609E-06  0.00000E+00  9.000E+00
#rwgt            1           1   4.3915067288712348E-002           7       16986           0
</event>
<event>
      5   9999  3.79277E-02  8.76424E+01 -1.00000E+00  1.26460E-01
      21    -1     0     0   502   501  0.000000000E+00  0.000000000E+00  6.767426599E+02  6.767426599E+02  0.000000000E+00  0.00000E+00  9.000E+00
      21    -1     0     0   501   512  0.000000000E+00  0.000000000E+00 -2.040180190E+02  2.040180190E+02  0.000000000E+00  0.00000E+00  9.000E+00
      25     1     1     2     0     0 -1.022545317E+02 -1.232203080E+02 -2.360812866E+01  2.045032452E+02  1.250000000E+02  0.00000E+00  9.000E+00
      25     1     1     2     0     0  1.524503871E+01  1.127068711E+02  5.487177137E+02  5.741527492E+02  1.250000000E+02  0.00000E+00  9.000E+00
      21     1     1     2   502   512  8.700949300E+01  1.051343692E+01 -5.238494413E+01  1.021046845E+02  2.697398305E-06  0.00000E+00  9.000E+00
#rwgt            1           1   2.8435190641012142E-002           7       17166           0
</event>
<event>
      5   9999  3.79277E-02  1.23280E+02 -1.00000E+00  1.19873E-01
      -1    -1     0     0     0   501  0.000000000E+00  0.000000000E+00  1.624676792E+03  1.624676792E+03  0.000000000E+00  0.00000E+00  9.000E+00
      21    -1     0     0   501   502  0.000000000E+00  0.000000000E+00 -1.007172489E+02  1.007172489E+02  0.000000000E+00  0.00000E+00  9.000E+00
      25     1     1     2     0     0  8.563344878E+01  7.891376677E+01 -4.542876774E+00  1.708979458E+02  1.250000000E+02  0.00000E+00  9.000E+00
      25     1     1     2     0     0 -8.838363014E+01  4.433551667E+01  8.192699922E+02  8.346290339E+02  1.250000000E+02  0.00000E+00  9.000E+00
      -1     1     1     2     0   502  2.750181354E+00 -1.232492834E+02  7.092324277E+02  7.198670613E+02  0.000000000E+00  0.00000E+00  9.000E+00
#rwgt            2           5   2.7099240426221916E-005           7       17380           0
</event>
<event>
      5   9999  3.79277E-02  9.04257E+01 -1.00000E+00  1.25826E-01
      21    -1     0     0   502   501  0.000000000E+00  0.000000000E+00  1.914270169E+02  1.914270169E+02  0.000000000E+00  0.00000E+00  9.000E+00
       2    -1     0     0   501     0  0.000000000E+00  0.000000000E+00 -2.680484248E+03  2.680484248E+03  0.000000000E+00  0.00000E+00  9.000E+00
      25     1     1     2     0     0  5.542369728E+01 -1.128989525E+02 -3.703478848E+02  4.106099310E+02  1.250000000E+02  0.00000E+00  9.000E+00
      25     1     1     2     0     0 -4.623747734E+01  2.294109340E+01  1.435588620E+02  1.972266335E+02  1.250000000E+02  0.00000E+00  9.000E+00
       2     1     1     2   502     0 -9.186219942E+00  8.995785906E+01 -2.262268209E+03  2.264074701E+03  3.051757812E-05  0.00000E+00  9.000E+00
#rwgt            1           1   3.9237404656683898E-002           7       17414           0
</event>
<event>
      5   9999  3.79277E-02  7.73647E+01 -1.00000E+00  1.29058E-01
      21    -1     0     0   502   501  0.000000000E+00  0.000000000E+00  2.409882800E+02  2.409882800E+02  0.000000000E+00  0.00000E+00  9.000E+00
      -2    -1     0     0     0   502  0.000000000E+00  0.000000000E+00 -2.129042345E+02  2.129042345E+02  0.000000000E+00  0.00000E+00  9.000E+00
      25     1     1     2     0     0 -3.382413176E+01 -1.130104468E+02  1.232577195E+02  2.115015329E+02  1.250000000E+02  0.00000E+00  9.000E+00
      25     1     1     2     0     0  3.022043638E+01  3.572971459E+01 -9.701322869E+01  1.650044055E+02  1.250000000E+02  0.00000E+00  9.000E+00
      -2     1     1     2     0   501  3.603695385E+00  7.728073225E+01  1.839554666E+00  7.738657609E+01  2.018763651E-06  0.00000E+00  9.000E+00
#rwgt            1           1   5.0259066246959604E-002           7       17583           0
</event>
<event>
      5   9999  3.79277E-02  1.12346E+02 -1.00000E+00  1.21596E-01
      21    -1     0     0   502   511  0.000000000E+00  0.000000000E+00  6.779443709E+02  6.779443709E+02  0.000000000E+00  0.00000E+00  9.000E+00
      21    -1     0     0   501   502  0.000000000E+00  0.000000000E+00 -2.148767049E+02  2.148767049E+02  0.000000000E+00  0.00000E+00  9.000E+00
      25     1     1     2     0     0 -5.933938227E+01  2.772740459E+02  9.720647392E+01  3.247709307E+02  1.250000000E+02  0.00000E+00  9.000E+00
      25     1     1     2     0     0  3.527362556E+01 -1.675357627E+02  3.024734951E+01  2.141316478E+02  1.250000000E+02  0.00000E+00  9.000E+00
      21     1     1     2   501   511  2.406575671E+01 -1.097382832E+02  3.356138425E+02  3.539184973E+02  5.394796609E-06  0.00000E+00  9.000E+00
#rwgt            1           1   3.4192048300561537E-002           7       17674           0
</event>
<event>
      5   9999  3.79277E-02  7.21296E+01 -1.00000E+00  1.30565E-01
      21    -1     0     0   512   501  0.000000000E+00  0.000000000E+00  2.192669515E+02  2.192669515E+02  0.000000000E+00  0.00000E+00  9.000E+00
      21    -1     0     0   501   502  0.000000000E+00  0.000000000E+00 -7.078728435E+02  7.078728435E+02  0.000000000E+00  0.00000E+00  9.000E+00
      25     1     1     2     0     0 -2.085802947E+02  3.191448220E+01 -1.993424013E+02  3.160485192E+02  1.250000000E+02  0.00000E+00  9.000E+00
      25     1     1     2     0     0  1.409254704E+02 -5.692456904E+01 -4.188544902E+02  4.627790820E+02  1.250000000E+02  0.00000E+00  9.000E+00
      21     1     1     2   512   502  6.765482434E+01  2.501008684E+01  1.295909995E+02  1.483121939E+02  3.814697266E-06  0.00000E+00  9.000E+00
#rwgt            1           1   3.9794341793544769E-002           7       17797           0
</event>
<event>
      5   9999  3.79277E-02  3.79563E+01 -1.00000E+00  1.46267E-01
      21    -1     0     0   502   511  0.000000000E+00  0.000000000E+00  3.247956307E+02  3.247956307E+02  0.000000000E+00  0.00000E+00  9.000E+00
      21    -1     0     0   501   502  0.000000000E+00  0.000000000E+00 -1.542150546E+03  1.542150546E+03  0.000000000E+00  0.00000E+00  9.000E+00
      25     1     1     2     0     0  1.503613815E+01  1.204722626E+02 -1.370085403E+03  1.381122248E+03  1.250000000E+02  0.00000E+00  9.000E+00
      25     1     1     2     0     0  3.021299898E+00 -8.708654477E+01 -1.301595711E+02  2.003988734E+02  1.250000000E+02  0.00000E+00  9.000E+00
      21     1     1     2   501   511 -1.805743804E+01 -3.338571787E+01  2.828900586E+02  2.854250558E+02  5.394796609E-06  0.00000E+00  9.000E+00
#rwgt            1           1   5.7205219151696012E-002           7       17931           0
</event>
<event>
      5   9999  3.79277E-02  1.43721E+01 -1.00000E+00  1.79151E-01
      -1    -1     0     0     0   501  0.000000000E+00  0.000000000E+00  2.516677060E+03  2.516677060E+03  0.000000000E+00  0.00000E+00  9.000E+00
      21    -1     0     0   501   502  0.000000000E+00  0.000000000E+00 -6.351023704E+01  6.351023704E+01  0.000000000E+00  0.00000E+00  9.000E+00
      25     1     1     2     0     0 -1.239741400E+02 -9.890714535E+01  1.948467491E+02  2.806108808E+02  1.250000000E+02  0.00000E+00  9.000E+00
      25     1     1     2     0     0  1.117300119E+02  1.064330426E+02  4.580117786E+02  4.992107546E+02  1.250000000E+02  0.00000E+00  9.000E+00
      -1     1     1     2     0   502  1.224412812E+01 -7.525897215E+00  1.800308295E+03  1.800365661E+03  3.051757812E-05  0.00000E+00  9.000E+00
#rwgt            1           1   3.9056993914356013E-002           7       18229           0
</event>
<event>
      5   9999 -3.79277E-02  2.73071E+01 -1.00000E+00  1.55932E-01
       2    -1     0     0   502     0  0.000000000E+00  0.000000000E+00  1.152129342E+03  1.152129342E+03  0.000000000E+00  0.00000E+00  9.000E+00
      21    -1     0     0   501   502  0.000000000E+00  0.000000000E+00 -7.493554971E+01  7.493554971E+01  0.000000000E+00  0.00000E+00  9.000E+00
      25     1     1     2     0     0 -3.040934099E+00 -7.665941053E+01  1.687721514E+01  1.476338474E+02  1.250000000E+02  0.00000E+00  9.000E+00
      25     1     1     2     0     0  1.336132675E+01  1.019411469E+02  7.174819160E+02  7.355105861E+02  1.250000000E+02  0.00000E+00  9.000E+00
       2     1     1     2   501     0 -1.032039265E+01 -2.528173633E+01  3.428346608E+02  3.439204578E+02  0.000000000E+00  0.00000E+00  9.000E+00
#rwgt            1           1  -9.2459483660165973E-002           7       18449           0
</event>
<event>
      5   9999  3.79277E-02  1.49746E+01 -1.00000E+00  1.77453E-01
      21    -1     0     0   502   501  0.000000000E+00  0.000000000E+00  1.213110056E+02  1.213110056E+02  0.000000000E+00  0.00000E+00  9.000E+00
      21    -1     0     0   501   511  0.000000000E+00  0.000000000E+00 -3.890451859E+02  3.890451859E+02  0.000000000E+00  0.00000E+00  9.000E+00
      25     1     1     2     0     0  1.439978282E+02 -1.220234115E+01 -2.444466874E+02  3.102635245E+02  1.250000000E+02  0.00000E+00  9.000E+00
      25     1     1     2     0     0 -1.296334922E+02  7.970879338E+00 -1.077916974E+01  1.805811942E+02  1.250000000E+02  0.00000E+00  9.000E+00
      21     1     1     2   502   511 -1.436433608E+01  4.231461812E+00 -1.250832320E+01  1.951147276E+01  2.384185791E-07  0.00000E+00  9.000E+00
#rwgt            1           1   5.9515131494164861E-002           7       18615           0
</event>
<event>
      5   9999  3.79277E-02  8.68097E+00 -1.00000E+00  2.03137E-01
      21    -1     0     0   502   501  0.000000000E+00  0.000000000E+00  5.901175425E+02  5.901175425E+02  0.000000000E+00  0.00000E+00  9.000E+00
      21    -1     0     0   501   512  0.000000000E+00  0.000000000E+00 -7.776369714E+01  7.776369714E+01  0.000000000E+00  0.00000E+00  9.000E+00
      25     1     1     2     0     0  1.010335093E+02 -2.067563004E+01  4.523719493E+02  4.805212089E+02  1.250000000E+02  0.00000E+00  9.000E+00
      25     1     1     2     0     0 -9.396965641E+01  2.572153673E+01  7.072493388E+01  1.735480050E+02  1.250000000E+02  0.00000E+00  9.000E+00
      21     1     1     2   502   512 -7.063852843E+00 -5.045906689E+00 -1.074303786E+01  1.381202569E+01  2.384185791E-07  0.00000E+00  9.000E+00
#rwgt            1           1   4.4352458670843545E-002           7       18851           0
</event>
<event>
      5   9999  3.79277E-02  8.56226E+00 -1.00000E+00  2.03887E-01
      21    -1     0     0   502   501  0.000000000E+00  0.000000000E+00  1.893212861E+02  1.893212861E+02  0.000000000E+00  0.00000E+00  9.000E+00
      21    -1     0     0   501   511  0.000000000E+00  0.000000000E+00 -4.193549923E+02  4.193549923E+02  0.000000000E+00  0.00000E+00  9.000E+00
      25     1     1     2     0     0  1.388005015E+02  2.104525544E+01 -2.086213893E+02  2.808137569E+02  1.250000000E+02  0.00000E+00  9.000E+00
      25     1     1     2     0     0 -1.390878613E+02 -2.960269280E+01  9.451982322E+01  2.116146251E+02  1.250000000E+02  0.00000E+00  9.000E+00
      21     1     1     2   502   511  2.873598601E-01  8.557437358E+00 -1.159321401E+02  1.162478964E+02  0.000000000E+00  0.00000E+00  9.000E+00
#rwgt            1           1   2.4142339917490683E-002           7       19047           0
</event>
<event>
      5   9999  3.79277E-02  1.42604E+01 -1.00000E+00  1.79478E-01
      21    -1     0     0   502   512  0.000000000E+00  0.000000000E+00  4.910354952E+02  4.910354952E+02  0.000000000E+00  0.00000E+00  9.000E+00
      21    -1     0     0   501   502  0.000000000E+00  0.000000000E+00 -7.353028256E+01  7.353028256E+01  0.000000000E+00  0.00000E+00  9.000E+00
      25     1     1     2     0     0  5.148250085E+01  4.456645937E+01  3.350390409E+02  3.640230434E+02  1.250000000E+02  0.00000E+00  9.000E+00
      25     1     1     2     0     0 -6.510866345E+01 -4.036085022E+01  3.464875838E+01  1.506441925E+02  1.250000000E+02  0.00000E+00  9.000E+00
      21     1     1     2   501   512  1.362616260E+01 -4.205609159E+00  4.781741339E+01  4.989854186E+01  9.536743164E-07  0.00000E+00  9.000E+00
#rwgt            1           1   2.1652837925423052E-002           7       19393           0
</event>
<event>
      5   9999  3.79277E-02  4.11815E+01 -1.00000E+00  1.44060E-01
      21    -1     0     0   502   501  0.000000000E+00  0.000000000E+00  1.458023250E+03  1.458023250E+03  0.000000000E+00  0.00000E+00  9.000E+00
      21    -1     0     0   511   502  0.000000000E+00  0.000000000E+00 -2.629179325E+02  2.629179325E+02  0.000000000E+00  0.00000E+00  9.000E+00
      25     1     1     2     0     0  9.209651358E+01 -2.524465662E+02  1.244312684E+03  1.279120828E+03  1.250000000E+02  0.00000E+00  9.000E+00
      25     1     1     2     0     0 -5.430942670E+01  2.360741843E+02  9.745381449E+01  2.894870987E+02  1.250000000E+02  0.00000E+00  9.000E+00
      21     1     1     2   511   501 -3.778708688E+01  1.637238187E+01 -1.466611811E+02  1.523332559E+02  4.264961200E-06  0.00000E+00  9.000E+00
#rwgt            1           1   3.8766150995636947E-002           7       19604           0
</event>
<event>
      5   9999  3.79277E-02  1.94144E+01 -1.00000E+00  1.67441E-01
      21    -1     0     0   512   501  0.000000000E+00  0.000000000E+00  1.209567539E+02  1.209567539E+02  0.000000000E+00  0.00000E+00  9.000E+00
      21    -1     0     0   501   502  0.000000000E+00  0.000000000E+00 -5.236296687E+02  5.236296687E+02  0.000000000E+00  0.00000E+00  9.000E+00
      25     1     1     2     0     0 -2.336001193E+01 -2.291796054E+00 -4.662054781E+02  4.832426826E+02  1.250000000E+02  0.00000E+00  9.000E+00
      25     1     1     2     0     0  8.185429657E+00 -9.818199454E+00  6.572954838E+01  1.418054013E+02  1.250000000E+02  0.00000E+00  9.000E+00
      21     1     1     2   512   502  1.517458228E+01  1.210999551E+01 -2.196985032E+00  1.953833876E+01  1.519626234E-07  0.00000E+00  9.000E+00
#rwgt            1           1   4.2565512822475976E-002           7       19729           0
</event>
<event>
      5   9999  3.79277E-02  1.98415E+01 -1.00000E+00  1.66655E-01
      21    -1     0     0   511   501  0.000000000E+00  0.000000000E+00  6.339203051E+01  6.339203051E+01  0.000000000E+00  0.00000E+00  9.000E+00
      21    -1     0     0   501   502  0.000000000E+00  0.000000000E+00 -8.082510344E+02  8.082510344E+02  0.000000000E+00  0.00000E+00  9.000E+00
      25     1     1     2     0     0  1.498661105E+02 -7.928897873E+00 -5.155695948E+02  5.513254262E+02  1.250000000E+02  0.00000E+00  9.000E+00
      25     1     1     2     0     0 -1.588875821E+02  2.560090605E+01 -2.108891799E+02  2.932574233E+02  1.250000000E+02  0.00000E+00  9.000E+00
      21     1     1     2   511   502  9.021471574E+00 -1.767200818E+01 -1.840022921E+01  2.706021540E+01  3.371747881E-07  0.00000E+00  9.000E+00
#rwgt            1           1   4.2433038929855033E-002           7       20011           0
</event>
<event>
      5   9999  3.79277E-02  1.10391E+02 -1.00000E+00  1.21927E-01
      21    -1     0     0   502   512  0.000000000E+00  0.000000000E+00  5.506410276E+02  5.506410276E+02  0.000000000E+00  0.00000E+00  9.000E+00
      21    -1     0     0   501   502  0.000000000E+00  0.000000000E+00 -4.427913324E+02  4.427913324E+02  0.000000000E+00  0.00000E+00  9.000E+00
      25     1     1     2     0     0  8.902774669E+01  8.760758082E+01 -3.518054914E+02  3.936916708E+02  1.250000000E+02  0.00000E+00  9.000E+00
      25     1     1     2     0     0  2.134491222E+01 -8.962372719E+01  3.262657788E+01  1.586742302E+02  1.250000000E+02  0.00000E+00  9.000E+00
      21     1     1     2   501   512 -1.103726589E+02  2.016146374E+00  4.270286087E+02  4.410664591E+02  9.344061824E-06  0.00000E+00  9.000E+00
#rwgt            1           1   4.1692197413392119E-002           7       20112           0
</event>
<event>
      5   9999  3.79277E-02  4.93099E+01 -1.00000E+00  1.39421E-01
      21    -1     0     0   511   501  0.000000000E+00  0.000000000E+00  1.665951655E+03  1.665951655E+03  0.000000000E+00  0.00000E+00  9.000E+00
      21    -1     0     0   501   502  0.000000000E+00  0.000000000E+00 -3.495105071E+01  3.495105071E+01  0.000000000E+00  0.00000E+00  9.000E+00
      25     1     1     2     0     0 -8.507684611E+01  8.952794020E+01  6.547122371E+02  6.778837918E+02  1.250000000E+02  0.00000E+00  9.000E+00
      25     1     1     2     0     0  4.335150761E+01 -1.158045540E+02  3.220196657E+02  3.668946893E+02  1.250000000E+02  0.00000E+00  9.000E+00
      21     1     1     2   511   502  4.172533850E+01  2.627661382E+01  6.542687016E+02  6.561242247E+02  1.078959322E-05  0.00000E+00  9.000E+00
#rwgt            1           1   2.3068484035957810E-002           7       20176           0
</event>
<event>
      5   9999  3.79277E-02  3.23278E+01 -1.00000E+00  1.50819E-01
      21    -1     0     0   502   501  0.000000000E+00  0.000000000E+00  1.969141365E+02  1.969141365E+02  0.000000000E+00  0.00000E+00  9.000E+00
      21    -1     0     0   512   502  0.000000000E+00  0.000000000E+00 -3.890741957E+02  3.890741957E+02  0.000000000E+00  0.00000E+00  9.000E+00
      25     1     1     2     0     0 -1.189410249E+02 -1.661126885E+00  6.348887939E+01  1.838628961E+02  1.250000000E+02  0.00000E+00  9.000E+00
      25     1     1     2     0     0  9.330094677E+01  2.135048561E+01 -1.370447329E+01  1.580307644E+02  1.250000000E+02  0.00000E+00  9.000E+00
      21     1     1     2   512   501  2.564007812E+01 -1.968935872E+01 -2.419444654E+02  2.440946718E+02  2.697398305E-06  0.00000E+00  9.000E+00
#rwgt            1           1   4.2950593592418734E-002           7       20261           0
</event>
<event>
      5   9999  3.79277E-02  1.78089E+01 -1.00000E+00  1.70637E-01
      21    -1     0     0   511   501  0.000000000E+00  0.000000000E+00  4.178218667E+02  4.178218667E+02  0.000000000E+00  0.00000E+00  9.000E+00
      21    -1     0     0   501   502  0.000000000E+00  0.000000000E+00 -1.179485832E+02  1.179485832E+02  0.000000000E+00  0.00000E+00  9.000E+00
      25     1     1     2     0     0  8.306908399E+01  1.008841510E+02  2.522837918E+01  1.825912258E+02  1.250000000E+02  0.00000E+00  9.000E+00
      25     1     1     2     0     0 -7.185929420E+01 -8.704588567E+01  1.447738194E+02  2.220927805E+02  1.250000000E+02  0.00000E+00  9.000E+00
      21     1     1     2   511   502 -1.120978978E+01 -1.383826535E+01  1.298710850E+02  1.310864436E+02  1.907348633E-06  0.00000E+00  9.000E+00
#rwgt            1           1   6.5062443295115555E-002           7       20631           0
</event>
<event>
      5   9999  3.79277E-02  7.66866E+01 -1.00000E+00  1.29245E-01
      21    -1     0     0   502   501  0.000000000E+00  0.000000000E+00  2.911911036E+02  2.911911036E+02  0.000000000E+00  0.00000E+00  9.000E+00
      21    -1     0     0   501   512  0.000000000E+00  0.000000000E+00 -1.545215114E+03  1.545215114E+03  0.000000000E+00  0.00000E+00  9.000E+00
      25     1     1     2     0     0 -5.455246628E+01 -1.096763229E+02  2.427605116E+02  2.992700008E+02  1.250000000E+02  0.00000E+00  9.000E+00
      25     1     1     2     0     0  5.655993354E+01  3.301598318E+01 -2.429629203E+02  2.809716389E+02  1.250000000E+02  0.00000E+00  9.000E+00
      21     1     1     2   502   512 -2.007467261E+00  7.666033968E+01 -1.253821601E+03  1.256164578E+03  1.525878906E-05  0.00000E+00  9.000E+00
#rwgt            1           1   4.6645559436706903E-002           7       20839           0
</event>
<event>
      5   9999  3.79277E-02  5.98431E+01 -1.00000E+00  1.34764E-01
      21    -1     0     0   502   501  0.000000000E+00  0.000000000E+00  3.096692338E+02  3.096692338E+02  0.000000000E+00  0.00000E+00  9.000E+00
      21    -1     0     0   501   511  0.000000000E+00  0.000000000E+00 -5.197576418E+02  5.197576418E+02  0.000000000E+00  0.00000E+00  9.000E+00
      25     1     1     2     0     0  3.279276150E+01 -1.345575280E+02 -4.499557765E-01  1.865644553E+02  1.250000000E+02  0.00000E+00  9.000E+00
      25     1     1     2     0     0  1.141854088E+01  9.422694374E+01  1.856299230E+02  2.430896302E+02  1.250000000E+02  0.00000E+00  9.000E+00
      21     1     1     2   502   511 -4.421130239E+01  4.033058421E+01 -3.952683752E+02  3.997727901E+02  0.000000000E+00  0.00000E+00  9.000E+00
#rwgt            1           1   3.9643033419555516E-002           7       21069           0
</event>
<event>
      5   9999  3.79277E-02  7.79711E+01 -1.00000E+00  1.28892E-01
      21    -1     0     0   502   501  0.000000000E+00  0.000000000E+00  2.244488613E+03  2.244488613E+03  0.000000000E+00  0.00000E+00  9.000E+00
      21    -1     0     0   501   512  0.000000000E+00  0.000000000E+00 -6.160637587E+01  6.160637587E+01  0.000000000E+00  0.00000E+00  9.000E+00
      25     1     1     2     0     0 -8.008653271E+01 -2.069258877E+02  1.021249253E+03  1.052524210E+03  1.250000000E+02  0.00000E+00  9.000E+00
      25     1     1     2     0     0  5.329581846E+01  2.801498846E+02  1.125239387E+03  1.167524338E+03  1.250000000E+02  0.00000E+00  9.000E+00
      21     1     1     2   502   512  2.679071425E+01 -7.322399685E+01  3.639359739E+01  8.604644104E+01  1.348699152E-06  0.00000E+00  9.000E+00
#rwgt            1           1   6.1205862240269047E-002           7       21246           0
</event>
<event>
      5   9999  3.79277E-02  2.64953E+01 -1.00000E+00  1.56884E-01
      21    -1     0     0   502   511  0.000000000E+00  0.000000000E+00  3.060542429E+02  3.060542429E+02  0.000000000E+00  0.00000E+00  9.000E+00
      21    -1     0     0   501   502  0.000000000E+00  0.000000000E+00 -3.702300009E+02  3.702300009E+02  0.000000000E+00  0.00000E+00  9.000E+00
      25     1     1     2     0     0  1.351879237E+02  1.248826545E+02 -2.677644191E+02  3.481296256E+02  1.250000000E+02  0.00000E+00  9.000E+00
      25     1     1     2     0     0 -1.555294048E+02 -1.079054751E+02  1.616494531E+02  2.785471827E+02  1.250000000E+02  0.00000E+00  9.000E+00
      21     1     1     2   501   511  2.034148112E+01 -1.697717939E+01  4.193920806E+01  4.960743540E+01  6.743495762E-07  0.00000E+00  9.000E+00
#rwgt            1           1   3.5784270970408545E-002           7       21345           0
</event>
<event>
      5   9999  3.79277E-02  1.66937E+02 -1.00000E+00  1.14582E-01
      21    -1     0     0   512   501  0.000000000E+00  0.000000000E+00  1.306038421E+03  1.306038421E+03  0.000000000E+00  0.00000E+00  9.000E+00
      21    -1     0     0   501   502  0.000000000E+00  0.000000000E+00 -1.560361937E+02  1.560361937E+02  0.000000000E+00  0.00000E+00  9.000E+00
      25     1     1     2     0     0 -2.645977295E+02  2.901417476E+02  3.197911928E+02  5.216182503E+02  1.250000000E+02  0.00000E+00  9.000E+00
      25     1     1     2     0     0  1.158039758E+02 -2.144557537E+02  4.850784680E+02  5.570708673E+02  1.250000000E+02  0.00000E+00  9.000E+00
      21     1     1     2   512   502  1.487937537E+02 -7.568599384E+01  3.451325669E+02  3.833854973E+02  0.000000000E+00  0.00000E+00  9.000E+00
#rwgt            1           1   2.9721518412049015E-002           7       21657           0
</event>
<event>
      5   9999  3.79277E-02  2.38662E+01 -1.00000E+00  1.60276E-01
      21    -1     0     0   502   501  0.000000000E+00  0.000000000E+00  6.313511706E+02  6.313511706E+02  0.000000000E+00  0.00000E+00  9.000E+00
      21    -1     0     0   501   511  0.000000000E+00  0.000000000E+00 -2.441400278E+02  2.441400278E+02  0.000000000E+00  0.00000E+00  9.000E+00
      25     1     1     2     0     0 -2.921519754E+02 -5.176369440E+01  4.389585642E+01  3.249370755E+02  1.250000000E+02  0.00000E+00  9.000E+00
      25     1     1     2     0     0  2.732803944E+02  6.637392518E+01  3.907871298E+02  4.974205994E+02  1.250000000E+02  0.00000E+00  9.000E+00
      21     1     1     2   502   511  1.887158107E+01 -1.461023078E+01 -4.747184332E+01  5.313352354E+01  6.743495762E-07  0.00000E+00  9.000E+00
#rwgt            1           1   2.4360070385718826E-002           7       21707           0
</event>
<event>
      5   9999 -3.79277E-02  4.49066E+01 -1.00000E+00  1.41791E-01
      21    -1     0     0   502   512  0.000000000E+00  0.000000000E+00  6.594777133E+02  6.594777133E+02  0.000000000E+00  0.00000E+00  9.000E+00
      21    -1     0     0   501   502  0.000000000E+00  0.000000000E+00 -9.595331734E+01  9.595331734E+01  0.000000000E+00  0.00000E+00  9.000E+00
      25     1     1     2     0     0  4.190422880E+01  5.401102278E+01 -2.088618075E+01  1.439944010E+02  1.250000000E+02  0.00000E+00  9.000E+00
      25     1     1     2     0     0  1.712142232E+00 -4.332388425E+01  4.771840343E+02  4.951863215E+02  1.250000000E+02  0.00000E+00  9.000E+00
      21     1     1     2   501   512 -4.361637103E+01 -1.068713853E+01  1.072265424E+02  1.162503081E+02  2.336015456E-06  0.00000E+00  9.000E+00
#rwgt            1           1  -2.6586641084042940E-002           7       21865           0
</event>
<event>
      5   9999  3.79277E-02  1.15311E+02 -1.00000E+00  1.21108E-01
      21    -1     0     0   502   511  0.000000000E+00  0.000000000E+00  3.373821386E+02  3.373821386E+02  0.000000000E+00  0.00000E+00  9.000E+00
      21    -1     0     0   501   502  0.000000000E+00  0.000000000E+00 -2.060252997E+02  2.060252997E+02  0.000000000E+00  0.00000E+00  9.000E+00
      25     1     1     2     0     0 -8.582230337E+01  1.565248480E+02  5.106686906E+01  2.238265420E+02  1.250000000E+02  0.00000E+00  9.000E+00
      25     1     1     2     0     0  1.376349108E+02 -5.350955446E+01  4.108229699E+01  1.977862387E+02  1.250000000E+02  0.00000E+00  9.000E+00
      21     1     1     2   501   511 -5.181260744E+01 -1.030152936E+02  3.920767293E+01  1.217946576E+02  8.259061849E-07  0.00000E+00  9.000E+00
#rwgt            1           1   3.4469001841425449E-002           7       21977           0
</event>
<event>
      5   9999  3.79277E-02  6.69407E+01 -1.00000E+00  1.32211E-01
      21    -1     0     0   512   501  0.000000000E+00  0.000000000E+00  3.830125563E+02  3.830125563E+02  0.000000000E+00  0.00000E+00  9.000E+00
      21    -1     0     0   501   502  0.000000000E+00  0.000000000E+00 -2.555462525E+02  2.555462525E+02  0.000000000E+00  0.00000E+00  9.000E+00
      25     1     1     2     0     0  1.842049185E+02 -8.811988607E+01 -1.149017913E+02  2.655635290E+02  1.250000000E+02  0.00000E+00  9.000E+00
      25     1     1     2     0     0 -1.716673584E+02  2.236378388E+01  2.065155626E+02  2.970580724E+02  1.250000000E+02  0.00000E+00  9.000E+00
      21     1     1     2   512   502 -1.253756007E+01  6.575610219E+01  3.585253246E+01  7.593720742E+01  1.430511475E-06  0.00000E+00  9.000E+00
#rwgt            2          11   2.7679997196885311E-003           7       22249           0
</event>
<event>
      5   9999  3.79277E-02  3.24258E+01 -1.00000E+00  1.50731E-01
       2    -1     0     0   502     0  0.000000000E+00  0.000000000E+00  2.350613961E+03  2.350613961E+03  0.000000000E+00  0.00000E+00  9.000E+00
      21    -1     0     0   501   502  0.000000000E+00  0.000000000E+00 -4.065439545E+01  4.065439545E+01  0.000000000E+00  0.00000E+00  9.000E+00
      25     1     1     2     0     0  2.739380096E+01  1.174182752E+02  2.367878627E+02  2.936510916E+02  1.250000000E+02  0.00000E+00  9.000E+00
      25     1     1     2     0     0  4.828405152E+00 -1.137904939E+02  5.814113323E+02  6.055045230E+02  1.250000000E+02  0.00000E+00  9.000E+00
       2     1     1     2   501     0 -3.222220611E+01 -3.627781303E+00  1.491760371E+03  1.492112742E+03  0.000000000E+00  0.00000E+00  9.000E+00
#rwgt            1           1   4.7445485785893173E-002           7       22344           0
</event>
<event>
      5   9999  3.79277E-02  5.66210E+00 -1.00000E+00  2.29454E-01
      21    -1     0     0   502   511  0.000000000E+00  0.000000000E+00  2.416985335E+03  2.416985335E+03  0.000000000E+00  0.00000E+00  9.000E+00
      21    -1     0     0   501   502  0.000000000E+00  0.000000000E+00 -1.899127084E+01  1.899127084E+01  0.000000000E+00  0.00000E+00  9.000E+00
      25     1     1     2     0     0 -7.105988137E+01 -1.748663558E+01  3.041583573E+02  3.368866211E+02  1.250000000E+02  0.00000E+00  9.000E+00
      25     1     1     2     0     0  6.553374621E+01  1.625326021E+01  1.964528270E+03  1.969658641E+03  1.250000000E+02  0.00000E+00  9.000E+00
      21     1     1     2   501   511  5.526135158E+00  1.233375370E+00  1.293074368E+02  1.294313432E+02  1.907348633E-06  0.00000E+00  9.000E+00
#rwgt            1           1   9.3828639293355290E-002           7       22443           0
</event>
<event>
      5   9999 -3.89473E-02  6.54824E+01 -1.00000E+00  1.32705E-01
      21    -1     0     0   502   501  0.000000000E+00  0.000000000E+00  7.194053600E+02  7.194053600E+02  0.000000000E+00  0.00000E+00  9.000E+00
      21    -1     0     0   501   512  0.000000000E+00  0.000000000E+00 -1.306358283E+02  1.306358283E+02  0.000000000E+00  0.00000E+00  9.000E+00
      25     1     1     2     0     0 -3.857605565E+01  2.462862079E+02  3.715676151E+02  4.645777662E+02  1.250000000E+02  0.00000E+00  9.000E+00
      25     1     1     2     0     0  9.502998209E-02 -1.933036329E+02  2.220005036E+02  3.198054520E+02  1.250000000E+02  0.00000E+00  9.000E+00
      21     1     1     2   502   512  3.848102567E+01 -5.298257496E+01 -4.798587049E+00  6.565796999E+01  1.525459754E-06  0.00000E+00  9.000E+00
#rwgt            1           1 -0.25687097155763922                7       22810           0
</event>
<event>
      5   9999  3.79277E-02  6.04049E+01 -1.00000E+00  1.34547E-01
      21    -1     0     0   502   501  0.000000000E+00  0.000000000E+00  8.848820551E+01  8.848820551E+01  0.000000000E+00  0.00000E+00  9.000E+00
       2    -1     0     0   501     0  0.000000000E+00  0.000000000E+00 -8.598196667E+02  8.598196667E+02  0.000000000E+00  0.00000E+00  9.000E+00
      25     1     1     2     0     0 -7.381095745E+01 -1.539318765E+02 -1.591633560E+02  2.647660363E+02  1.250000000E+02  0.00000E+00  9.000E+00
      25     1     1     2     0     0  1.342152469E+02  1.536538723E+02 -5.305114651E+02  5.819713563E+02  1.250000000E+02  0.00000E+00  9.000E+00
       2     1     1     2   502     0 -6.040428943E+01  2.780042685E-01 -8.165664000E+01  1.015704796E+02  1.907348633E-06  0.00000E+00  9.000E+00
#rwgt            1           1   4.5378458954635069E-002           7       22927           0
</event>
<event>
      5   9999  3.79277E-02  4.88008E+01 -1.00000E+00  1.39680E-01
      21    -1     0     0   502   501  0.000000000E+00  0.000000000E+00  2.000844910E+02  2.000844910E+02  0.000000000E+00  0.00000E+00  9.000E+00
      21    -1     0     0   511   502  0.000000000E+00  0.000000000E+00 -2.806976373E+02  2.806976373E+02  0.000000000E+00  0.00000E+00  9.000E+00
      25     1     1     2     0     0 -1.658446058E+02 -6.542695771E+00  2.872783604E+01  2.097558788E+02  1.250000000E+02  0.00000E+00  9.000E+00
      25     1     1     2     0     0  1.385645363E+02 -3.392109658E+01 -5.393320679E+01  1.971916892E+02  1.250000000E+02  0.00000E+00  9.000E+00
      21     1     1     2   511   501  2.728006953E+01  4.046379235E+01 -5.540777562E+01  7.383456023E+01  1.168007728E-06  0.00000E+00  9.000E+00
#rwgt            1           1   4.7522394679417081E-002           7       23041           0
</event>
<event>
      5   9999  3.79277E-02  1.15556E+02 -1.00000E+00  1.21068E-01
      21    -1     0     0   502   512  0.000000000E+00  0.000000000E+00  3.227491078E+02  3.227491078E+02  0.000000000E+00  0.00000E+00  9.000E+00
      21    -1     0     0   501   502  0.000000000E+00  0.000000000E+00 -3.750307180E+02  3.750307180E+02  0.000000000E+00  0.00000E+00  9.000E+00
      25     1     1     2     0     0 -1.287044758E+02 -8.690168316E+00 -2.599282268E+01  1.814965232E+02  1.250000000E+02  0.00000E+00  9.000E+00
      25     1     1     2     0     0  4.448452623E+01  8.781149831E+01 -2.314231562E+02  2.808405411E+02  1.250000000E+02  0.00000E+00  9.000E+00
      21     1     1     2   501   512  8.421994957E+01 -7.912132999E+01  2.051343686E+02  2.354427615E+02  2.697398305E-06  0.00000E+00  9.000E+00
#rwgt            1           1   5.2525915578624474E-002           7       23143           0
</event>
<event>
      5   9999  3.79277E-02  4.44030E+01 -1.00000E+00  1.42082E-01
      21    -1     0     0   502   501  0.000000000E+00  0.000000000E+00  2.452563601E+02  2.452563601E+02  0.000000000E+00  0.00000E+00  9.000E+00
      21    -1     0     0   501   511  0.000000000E+00  0.000000000E+00 -6.333803564E+02  6.333803564E+02  0.000000000E+00  0.00000E+00  9.000E+00
      25     1     1     2     0     0 -5.662539682E+01 -6.195278965E+00  2.064744366E+02  2.479949798E+02  1.250000000E+02  0.00000E+00  9.000E+00
      25     1     1     2     0     0  5.397998309E+01  5.051938514E+01 -5.452408555E+02  5.642505094E+02  1.250000000E+02  0.00000E+00  9.000E+00
      21     1     1     2   502   511  2.645413733E+00 -4.432410618E+01 -4.935757740E+01  6.639122720E+01  9.536743164E-07  0.00000E+00  9.000E+00
#rwgt            1           1   5.7331158775068655E-002           7       23192           0
</event>
<event>
      5   9999  3.79277E-02  4.20185E+01 -1.00000E+00  1.43526E-01
      21    -1     0     0   502   501  0.000000000E+00  0.000000000E+00  6.840230168E+02  6.840230168E+02  0.000000000E+00  0.00000E+00  9.000E+00
      21    -1     0     0   501   512  0.000000000E+00  0.000000000E+00 -1.981815672E+02  1.981815672E+02  0.000000000E+00  0.00000E+00  9.000E+00
      25     1     1     2     0     0  1.085211418E+02  3.376746272E+01  9.475881926E+01  1.937041909E+02  1.250000000E+02  0.00000E+00  9.000E+00
      25     1     1     2     0     0 -1.206560858E+02  6.460653965E+00  5.224290196E+02  5.505966869E+02  1.250000000E+02  0.00000E+00  9.000E+00
      21     1     1     2   502   512  1.213494399E+01 -4.022811669E+01 -1.313463892E+02  1.379037062E+02  0.000000000E+00  0.00000E+00  9.000E+00
#rwgt            1           1   4.1784210790056973E-002           7       23436           0
</event>
<event>
      5   9999  3.79277E-02  5.25058E+01 -1.00000E+00  1.37875E-01
      21    -1     0     0   502   501  0.000000000E+00  0.000000000E+00  5.554288205E+02  5.554288205E+02  0.000000000E+00  0.00000E+00  9.000E+00
      21    -1     0     0   501   511  0.000000000E+00  0.000000000E+00 -2.500657982E+02  2.500657982E+02  0.000000000E+00  0.00000E+00  9.000E+00
      25     1     1     2     0     0 -5.973017389E+01 -2.690212408E+01 -1.350552465E+00  1.411320018E+02  1.250000000E+02  0.00000E+00  9.000E+00
      25     1     1     2     0     0  8.333229817E+00  1.616818008E+01  4.732122151E+02  4.897812300E+02  1.250000000E+02  0.00000E+00  9.000E+00
      21     1     1     2   502   511  5.139694407E+01  1.073394400E+01 -1.664986403E+02  1.745813869E+02  2.697398305E-06  0.00000E+00  9.000E+00
#rwgt            1           1   3.9314853083275238E-002           7       23609           0
</event>
<event>
      5   9999  3.79277E-02  2.21687E+02 -1.00000E+00  1.10044E-01
      21    -1     0     0   502   501  0.000000000E+00  0.000000000E+00  3.175117737E+02  3.175117737E+02  0.000000000E+00  0.00000E+00  9.000E+00
      -1    -1     0     0     0   502  0.000000000E+00  0.000000000E+00 -1.050473145E+03  1.050473145E+03  0.000000000E+00  0.00000E+00  9.000E+00
      25     1     1     2     0     0  3.809715272E+00  5.365554050E+01  1.533502103E+02  2.050237009E+02  1.250000000E+02  0.00000E+00  9.000E+00
      25     1     1     2     0     0 -1.643719131E+02  9.920073775E+01  1.996756740E+01  2.299622054E+02  1.250000000E+02  0.00000E+00  9.000E+00
      -1     1     1     2     0   501  1.605621978E+02 -1.528562782E+02 -9.062791493E+02  9.329990127E+02  0.000000000E+00  0.00000E+00  9.000E+00
#rwgt            2          10   1.3367193743904252E-004           7       24045           0
</event>
<event>
      5   9999  3.79277E-02  2.93187E+01 -1.00000E+00  1.53736E-01
      21    -1     0     0   502   511  0.000000000E+00  0.000000000E+00  7.667021603E+01  7.667021603E+01  0.000000000E+00  0.00000E+00  9.000E+00
      21    -1     0     0   501   502  0.000000000E+00  0.000000000E+00 -7.236221381E+02  7.236221381E+02  0.000000000E+00  0.00000E+00  9.000E+00
      25     1     1     2     0     0 -2.754011728E+01 -5.600464589E+01 -1.084904027E+02  1.768902086E+02  1.250000000E+02  0.00000E+00  9.000E+00
      25     1     1     2     0     0  1.630990803E+01  2.892199897E+01 -5.675509656E+02  5.821010167E+02  1.250000000E+02  0.00000E+00  9.000E+00
      21     1     1     2   501   511  1.123020924E+01  2.708264692E+01  2.908944620E+01  4.130112884E+01  5.840038640E-07  0.00000E+00  9.000E+00
#rwgt            1           1   4.1542565709244868E-002           7       24274           0
</event>
<event>
      5   9999  3.79277E-02  2.55298E+01 -1.00000E+00  1.58072E-01
      21    -1     0     0   502   501  0.000000000E+00  0.000000000E+00  1.119242227E+02  1.119242227E+02  0.000000000E+00  0.00000E+00  9.000E+00
      21    -1     0     0   501   512  0.000000000E+00  0.000000000E+00 -2.988458761E+02  2.988458761E+02  0.000000000E+00  0.00000E+00  9.000E+00
      25     1     1     2     0     0  1.017685194E+02  3.866341697E+01 -1.471881405E+02  2.216777843E+02  1.250000000E+02  0.00000E+00  9.000E+00
      25     1     1     2     0     0 -9.513024375E+01 -1.401174371E+01 -2.517288024E+01  1.597021169E+02  1.250000000E+02  0.00000E+00  9.000E+00
      21     1     1     2   502   512 -6.638275604E+00 -2.465167326E+01 -1.456063264E+01  2.939019769E+01  6.078504936E-07  0.00000E+00  9.000E+00
#rwgt            1           1   4.1789613730888214E-002           7       24491           0
</event>
<event>
      5   9999  3.79277E-02  2.56158E+01 -1.00000E+00  1.57963E-01
      21    -1     0     0   502   501  0.000000000E+00  0.000000000E+00  1.417963124E+02  1.417963124E+02  0.000000000E+00  0.00000E+00  9.000E+00
      21    -1     0     0   501   511  0.000000000E+00  0.000000000E+00 -1.585131207E+03  1.585131207E+03  0.000000000E+00  0.00000E+00  9.000E+00
      25     1     1     2     0     0 -4.512114429E+01 -1.111886314E+02 -1.259890670E+02  2.142360251E+02  1.250000000E+02  0.00000E+00  9.000E+00
      25     1     1     2     0     0  3.598572012E+01  8.725722319E+01  3.467756573E+01  1.604254612E+02  1.250000000E+02  0.00000E+00  9.000E+00
      21     1     1     2   502   511  9.135424174E+00  2.393140825E+01 -1.352023393E+03  1.352266033E+03  1.525878906E-05  0.00000E+00  9.000E+00
#rwgt            1           1   3.8669461610307973E-002           7       24636           0
</event>
<event>
      5   9999  3.79277E-02  1.00808E+02 -1.00000E+00  1.23671E-01
      21    -1     0     0   502   501  0.000000000E+00  0.000000000E+00  7.021276373E+02  7.021276373E+02  0.000000000E+00  0.00000E+00  9.000E+00
      21    -1     0     0   512   502  0.000000000E+00  0.000000000E+00 -9.357646629E+01  9.357646629E+01  0.000000000E+00  0.00000E+00  9.000E+00
      25     1     1     2     0     0 -3.545588382E+00  1.012502795E+02  2.263717017E+02  2.777288923E+02  1.250000000E+02  0.00000E+00  9.000E+00
      25     1     1     2     0     0 -1.393050243E+01 -2.005320359E+02  3.250430870E+02  4.021009385E+02  1.250000000E+02  0.00000E+00  9.000E+00
      21     1     1     2   512   501  1.747609081E+01  9.928175641E+01  5.713638230E+01  1.158742728E+02  2.023048729E-06  0.00000E+00  9.000E+00
#rwgt            1           1   3.8057750135587091E-002           7       24911           0
</event>
<event>
      5   9999  3.79277E-02  3.48759E+01 -1.00000E+00  1.48632E-01
      21    -1     0     0   502   501  0.000000000E+00  0.000000000E+00  1.653541551E+02  1.653541551E+02  0.000000000E+00  0.00000E+00  9.000E+00
       2    -1     0     0   501     0  0.000000000E+00  0.000000000E+00 -2.278983970E+03  2.278983970E+03  0.000000000E+00  0.00000E+00  9.000E+00
      25     1     1     2     0     0  1.049701465E+01  1.758217525E+02 -2.222488939E+02  3.099081264E+02  1.250000000E+02  0.00000E+00  9.000E+00
      25     1     1     2     0     0 -4.485964715E+01 -1.698601639E+02  2.560209734E+01  2.171297553E+02  1.250000000E+02  0.00000E+00  9.000E+00
       2     1     1     2   502     0  3.436263250E+01 -5.961588529E+00 -1.916983018E+03  1.917300243E+03  0.000000000E+00  0.00000E+00  9.000E+00
#rwgt            1           1   3.7608754997903379E-002           7       25048           0
</event>
<event>
      5   9999  3.79277E-02  6.85600E+01 -1.00000E+00  1.31680E-01
      21    -1     0     0   511   501  0.000000000E+00  0.000000000E+00  1.990981911E+02  1.990981911E+02  0.000000000E+00  0.00000E+00  9.000E+00
      21    -1     0     0   501   502  0.000000000E+00  0.000000000E+00 -2.064852780E+02  2.064852780E+02  0.000000000E+00  0.00000E+00  9.000E+00
      25     1     1     2     0     0  1.435357975E+01 -3.651709540E+01 -8.982061911E+01  1.588466780E+02  1.250000000E+02  0.00000E+00  9.000E+00
      25     1     1     2     0     0 -7.315332811E+01  7.177412078E+01  7.360445350E+01  1.776106680E+02  1.250000000E+02  0.00000E+00  9.000E+00
      21     1     1     2   511   502  5.879974836E+01 -3.525702538E+01  8.829078743E+00  6.912612297E+01  6.307962682E-07  0.00000E+00  9.000E+00
#rwgt            1           1   4.7782341655118160E-002           7       25286           0
</event>
<event>
      5   9999  3.79277E-02  1.05564E+02 -1.00000E+00  1.22779E-01
      21    -1     0     0   512   501  0.000000000E+00  0.000000000E+00  1.047710013E+02  1.047710013E+02  0.000000000E+00  0.00000E+00  9.000E+00
      21    -1     0     0   501   502  0.000000000E+00  0.000000000E+00 -7.226369258E+02  7.226369258E+02  0.000000000E+00  0.00000E+00  9.000E+00
      25     1     1     2     0     0 -9.249517262E+01 -1.903214195E+02 -3.038643559E+02  3.908147214E+02  1.250000000E+02  0.00000E+00  9.000E+00
      25     1     1     2     0     0  1.211157690E+02  8.871137717E+01 -2.294056985E+02  3.013149722E+02  1.250000000E+02  0.00000E+00  9.000E+00
      21     1     1     2   512   502 -2.862059640E+01  1.016100423E+02 -8.459587011E+01  1.352782336E+02  1.651812370E-06  0.00000E+00  9.000E+00
#rwgt            1           1   4.3835933238906430E-002           7       25394           0
</event>
<event>
      5   9999  3.79277E-02  5.48746E+01 -1.00000E+00  1.36809E-01
      21    -1     0     0   502   501  0.000000000E+00  0.000000000E+00  5.673481939E+01  5.673481939E+01  0.000000000E+00  0.00000E+00  9.000E+00
      -2    -1     0     0     0   502  0.000000000E+00  0.000000000E+00 -1.472509660E+03  1.472509660E+03  0.000000000E+00  0.00000E+00  9.000E+00
      25     1     1     2     0     0 -1.365312791E+02  1.191023488E+02 -4.813490346E+02  5.292901405E+02  1.250000000E+02  0.00000E+00  9.000E+00
      25     1     1     2     0     0  1.908890834E+02 -1.266154328E+02 -5.188956384E+02  5.808164887E+02  1.250000000E+02  0.00000E+00  9.000E+00
      -2     1     1     2     0   501 -5.435780424E+01  7.513083993E+00 -4.155301681E+02  4.191378507E+02  0.000000000E+00  0.00000E+00  9.000E+00
#rwgt            1           1   3.3099731296563996E-002           7       25540           0
</event>
<event>
      5   9999  3.79277E-02  8.68574E+01 -1.00000E+00  1.26644E-01
      21    -1     0     0   502   501  0.000000000E+00  0.000000000E+00  5.198381193E+01  5.198381193E+01  0.000000000E+00  0.00000E+00  9.000E+00
       1    -1     0     0   501     0  0.000000000E+00  0.000000000E+00 -1.142034447E+03  1.142034447E+03  0.000000000E+00  0.00000E+00  9.000E+00
      25     1     1     2     0     0  1.052577314E+01  5.714804920E+01 -7.366455469E+02  7.494320204E+02  1.250000000E+02  0.00000E+00  9.000E+00
      25     1     1     2     0     0  4.706513067E+01 -1.221672737E+02 -2.134293346E+02  2.798518361E+02  1.250000000E+02  0.00000E+00  9.000E+00
       1     1     1     2   502     0 -5.759090381E+01  6.501922446E+01 -1.399757531E+02  1.647344020E+02  0.000000000E+00  0.00000E+00  9.000E+00
#rwgt            1           1   4.1751107997537208E-002           7       25696           0
</event>
<event>
      5   9999  3.79277E-02  1.09798E+01 -1.00000E+00  1.91179E-01
      21    -1     0     0   502   501  0.000000000E+00  0.000000000E+00  1.093449781E+02  1.093449781E+02  0.000000000E+00  0.00000E+00  9.000E+00
      21    -1     0     0   511   502  0.000000000E+00  0.000000000E+00 -5.069702088E+02  5.069702088E+02  0.000000000E+00  0.00000E+00  9.000E+00
      25     1     1     2     0     0  5.178397109E+01 -1.158167386E+02 -7.617421620E+00  1.782641908E+02  1.250000000E+02  0.00000E+00  9.000E+00
      25     1     1     2     0     0 -5.226791619E+01  1.267858603E+02 -3.451333260E+02  3.918527812E+02  1.250000000E+02  0.00000E+00  9.000E+00
      21     1     1     2   511   501  4.839450988E-01 -1.096912169E+01 -4.487448303E+01  4.619821490E+01  8.259061849E-07  0.00000E+00  9.000E+00
#rwgt            1           1   3.5561345423165011E-002           7       25825           0
</event>
<event>
      5   9999  3.79277E-02  4.13108E+01 -1.00000E+00  1.43977E-01
      21    -1     0     0   512   501  0.000000000E+00  0.000000000E+00  2.334313824E+02  2.334313824E+02  0.000000000E+00  0.00000E+00  9.000E+00
      21    -1     0     0   501   502  0.000000000E+00  0.000000000E+00 -3.266640648E+02  3.266640648E+02  0.000000000E+00  0.00000E+00  9.000E+00
      25     1     1     2     0     0  1.955369005E+02 -2.775636517E+01 -1.810653467E+02  2.956598638E+02  1.250000000E+02  0.00000E+00  9.000E+00
      25     1     1     2     0     0 -1.593172536E+02  4.762391548E+01  7.583100809E+01  2.214167256E+02  1.250000000E+02  0.00000E+00  9.000E+00
      21     1     1     2   512   502 -3.621964692E+01 -1.986755031E+01  1.200165620E+01  4.301885784E+01  6.078504936E-07  0.00000E+00  9.000E+00
#rwgt            1           1   3.5156799996735835E-002           7       26192           0
</event>
<event>
      5   9999  3.79277E-02  2.43082E+01 -1.00000E+00  1.59669E-01
      21    -1     0     0   502   511  0.000000000E+00  0.000000000E+00  1.900940324E+02  1.900940324E+02  0.000000000E+00  0.00000E+00  9.000E+00
      21    -1     0     0   501   502  0.000000000E+00  0.000000000E+00 -2.018153799E+02  2.018153799E+02  0.000000000E+00  0.00000E+00  9.000E+00
      25     1     1     2     0     0 -9.419997905E+01  6.651715303E+01 -6.132579918E+01  1.807872267E+02  1.250000000E+02  0.00000E+00  9.000E+00
      25     1     1     2     0     0  9.282685949E+01 -9.078654651E+01  3.804246206E+01  1.842043751E+02  1.250000000E+02  0.00000E+00  9.000E+00
      21     1     1     2   501   511  1.373119562E+00  2.426939348E+01  1.156198963E+01  2.691781048E+01  2.920019320E-07  0.00000E+00  9.000E+00
#rwgt            1           1   3.6239022527252779E-002           7       26352           0
</event>
<event>
      5   9999  3.79277E-02  1.95661E+02 -1.00000E+00  1.11996E-01
      21    -1     0     0   502   512  0.000000000E+00  0.000000000E+00  4.664574052E+02  4.664574052E+02  0.000000000E+00  0.00000E+00  9.000E+00
      21    -1     0     0   501   502  0.000000000E+00  0.000000000E+00 -7.995931025E+02  7.995931025E+02  0.000000000E+00  0.00000E+00  9.000E+00
      25     1     1     2     0     0 -1.799442008E+00  1.677805975E+02  2.040562860E+01  2.102259655E+02  1.250000000E+02  0.00000E+00  9.000E+00
      25     1     1     2     0     0 -1.645549420E+02 -2.707829419E+02 -6.305558852E+02  7.166780692E+02  1.250000000E+02  0.00000E+00  9.000E+00
      21     1     1     2   501   512  1.663543840E+02  1.030023445E+02  2.770145593E+02  3.391464730E+02  3.814697266E-06  0.00000E+00  9.000E+00
#rwgt            2          11   1.9860623478632267E-003           7       26614           0
</event>
<event>
      5   9999  3.79277E-02  5.01587E+01 -1.00000E+00  1.38997E-01
      21    -1     0     0   502   501  0.000000000E+00  0.000000000E+00  9.742428806E+01  9.742428806E+01  0.000000000E+00  0.00000E+00  9.000E+00
      -2    -1     0     0     0   502  0.000000000E+00  0.000000000E+00 -5.562918488E+02  5.562918488E+02  0.000000000E+00  0.00000E+00  9.000E+00
      25     1     1     2     0     0  3.266592576E+01  1.164938057E+02 -2.975901582E+02  3.447067909E+02  1.250000000E+02  0.00000E+00  9.000E+00
      25     1     1     2     0     0 -7.488080002E+01 -8.940499656E+01 -3.688964939E+01  1.748892045E+02  1.250000000E+02  0.00000E+00  9.000E+00
      -2     1     1     2     0   501  4.221487426E+01 -2.708880915E+01 -1.243877531E+02  1.341201414E+02  1.907348633E-06  0.00000E+00  9.000E+00
#rwgt            1           1   4.3712020256974307E-002           7       26634           0
</event>
<event>
      5   9999  3.79277E-02  2.22918E+01 -1.00000E+00  1.62573E-01
      21    -1     0     0   502   501  0.000000000E+00  0.000000000E+00  2.941487877E+01  2.941487877E+01  0.000000000E+00  0.00000E+00  9.000E+00
      21    -1     0     0   501   511  0.000000000E+00  0.000000000E+00 -1.969772882E+03  1.969772882E+03  0.000000000E+00  0.00000E+00  9.000E+00
      25     1     1     2     0     0  6.817566258E+01 -7.001044406E+01 -3.119373008E+02  3.499703742E+02  1.250000000E+02  0.00000E+00  9.000E+00
      25     1     1     2     0     0 -6.543509788E+01  4.788777851E+01 -5.293182547E+02  5.498889034E+02  1.250000000E+02  0.00000E+00  9.000E+00
      21     1     1     2   502   511 -2.740564700E+00  2.212266554E+01 -1.099102448E+03  1.099328483E+03  1.525878906E-05  0.00000E+00  9.000E+00
#rwgt            1           1   4.6217654642965622E-002           7       26710           0
</event>
<event>
      5   9999  3.79277E-02  1.56106E+02 -1.00000E+00  1.15711E-01
       2    -1     0     0   502     0  0.000000000E+00  0.000000000E+00  1.203243789E+03  1.203243789E+03  0.000000000E+00  0.00000E+00  9.000E+00
      21    -1     0     0   501   502  0.000000000E+00  0.000000000E+00 -1.855139463E+02  1.855139463E+02  0.000000000E+00  0.00000E+00  9.000E+00
      25     1     1     2     0     0 -2.042979960E+01 -2.470649579E+02  1.003054737E+02  2.952027408E+02  1.250000000E+02  0.00000E+00  9.000E+00
      25     1     1     2     0     0 -1.350872053E+02  2.606129875E+02  2.423249203E+02  4.006420464E+02  1.250000000E+02  0.00000E+00  9.000E+00
       2     1     1     2   501     0  1.555170049E+02 -1.354802962E+01  6.750994489E+02  6.929129483E+02  7.629394531E-06  0.00000E+00  9.000E+00
#rwgt            1           1   4.6936309854101792E-002           7       26823           0
</event>
<event>
      5   9999  3.79277E-02  2.94306E+01 -1.00000E+00  1.53620E-01
      21    -1     0     0   502   501  0.000000000E+00  0.000000000E+00  6.702481265E+02  6.702481265E+02  0.000000000E+00  0.00000E+00  9.000E+00
      21    -1     0     0   501   511  0.000000000E+00  0.000000000E+00 -7.737210032E+01  7.737210032E+01  0.000000000E+00  0.00000E+00  9.000E+00
      25     1     1     2     0     0  6.048848136E+01  9.810425373E+01  6.976815806E+01  1.837821995E+02  1.250000000E+02  0.00000E+00  9.000E+00
      25     1     1     2     0     0 -3.408474657E+01 -1.111043466E+02  4.931152767E+02  5.218176136E+02  1.250000000E+02  0.00000E+00  9.000E+00
      21     1     1     2   502   511 -2.640373479E+01  1.300009289E+01  2.999259141E+01  4.202041367E+01  3.371747881E-07  0.00000E+00  9.000E+00
#rwgt            1           1   3.2571840912471575E-002           7       26866           0
</event>
<event>
      5   9999  3.79277E-02  4.31383E+01 -1.00000E+00  1.42835E-01
      21    -1     0     0   502   501  0.000000000E+00  0.000000000E+00  3.845249734E+01  3.845249734E+01  0.000000000E+00  0.00000E+00  9.000E+00
      21    -1     0     0   501   512  0.000000000E+00  0.000000000E+00 -9.849252439E+02  9.849252439E+02  0.000000000E+00  0.00000E+00  9.000E+00
      25     1     1     2     0     0 -2.348045964E+00 -9.123597447E+01 -2.295527191E+02  2.768554988E+02  1.250000000E+02  0.00000E+00  9.000E+00
      25     1     1     2     0     0  1.408788290E+01  4.972588130E+01 -3.220471634E+02  3.493000246E+02  1.250000000E+02  0.00000E+00  9.000E+00
      21     1     1     2   502   512 -1.173983694E+01  4.151009317E+01 -3.948728641E+02  3.972222179E+02  0.000000000E+00  0.00000E+00  9.000E+00
#rwgt            1           1   9.6049241399172341E-002           7       26965           0
</event>
<event>
      5   9999  3.79277E-02  7.32239E+01 -1.00000E+00  1.30238E-01
      21    -1     0     0   502   511  0.000000000E+00  0.000000000E+00  1.317302613E+03  1.317302613E+03  0.000000000E+00  0.00000E+00  9.000E+00
      21    -1     0     0   501   502  0.000000000E+00  0.000000000E+00 -7.077543091E+01  7.077543091E+01  0.000000000E+00  0.00000E+00  9.000E+00
      25     1     1     2     0     0  8.822753940E+00  1.842836118E+02  4.418545511E+02  4.948724430E+02  1.250000000E+02  0.00000E+00  9.000E+00
      25     1     1     2     0     0 -1.517397109E+01 -2.572315702E+02  4.681262226E+02  5.487854685E+02  1.250000000E+02  0.00000E+00  9.000E+00
      21     1     1     2   501   511  6.351217151E+00  7.294795841E+01  3.365464085E+02  3.444201325E+02  3.814697266E-06  0.00000E+00  9.000E+00
#rwgt            1           1   4.0911354276255377E-002           7       27023           0
</event>
<event>
      5   9999  3.79277E-02  1.58047E+01 -1.00000E+00  1.75272E-01
      21    -1     0     0   512   501  0.000000000E+00  0.000000000E+00  6.538037176E+02  6.538037176E+02  0.000000000E+00  0.00000E+00  9.000E+00
      21    -1     0     0   501   502  0.000000000E+00  0.000000000E+00 -3.952545351E+02  3.952545351E+02  0.000000000E+00  0.00000E+00  9.000E+00
      25     1     1     2     0     0  1.710837029E+02 -5.202475300E-01 -3.279685410E+02  3.904590477E+02  1.250000000E+02  0.00000E+00  9.000E+00
      25     1     1     2     0     0 -1.628574417E+02  1.401534413E+01  2.594363997E+02  3.311362584E+02  1.250000000E+02  0.00000E+00  9.000E+00
      21     1     1     2   512   502 -8.226261284E+00 -1.349509660E+01  3.270813238E+02  3.274629466E+02  3.814697266E-06  0.00000E+00  9.000E+00
#rwgt            1           1   3.1819398646321322E-002           7       27101           0
</event>
<event>
      5   9999 -3.79277E-02  3.56961E+01 -1.00000E+00  1.47974E-01
      21    -1     0     0   502   501  0.000000000E+00  0.000000000E+00  1.883961225E+02  1.883961225E+02  0.000000000E+00  0.00000E+00  9.000E+00
      21    -1     0     0   511   502  0.000000000E+00  0.000000000E+00 -5.309925821E+02  5.309925821E+02  0.000000000E+00  0.00000E+00  9.000E+00
      25     1     1     2     0     0 -2.114528486E+02  4.364910031E+01  6.572316309E+00  2.495711251E+02  1.250000000E+02  0.00000E+00  9.000E+00
      25     1     1     2     0     0  2.449857456E+02 -3.141158726E+01 -2.915194613E+02  4.020115666E+02  1.250000000E+02  0.00000E+00  9.000E+00
      21     1     1     2   511   501 -3.353289698E+01 -1.223751305E+01 -5.764931464E+01  6.780601289E+01  6.743495762E-07  0.00000E+00  9.000E+00
#rwgt            1           1  -3.0496811236915358E-002           7       27453           0
</event>
<event>
      5   9999  3.79277E-02  6.44093E+00 -1.00000E+00  2.20793E-01
      21    -1     0     0   502   501  0.000000000E+00  0.000000000E+00  7.421797505E+02  7.421797505E+02  0.000000000E+00  0.00000E+00  9.000E+00
      21    -1     0     0   501   512  0.000000000E+00  0.000000000E+00 -1.917148053E+02  1.917148053E+02  0.000000000E+00  0.00000E+00  9.000E+00
      25     1     1     2     0     0  3.806379017E+01 -1.801366186E+02  9.298304721E+01  2.411822973E+02  1.250000000E+02  0.00000E+00  9.000E+00
      25     1     1     2     0     0 -4.442889429E+01  1.791512404E+02  5.533825137E+02  5.965955918E+02  1.250000000E+02  0.00000E+00  9.000E+00
      21     1     1     2   502   512  6.365104111E+00  9.853781439E-01 -9.590061575E+01  9.611666673E+01  0.000000000E+00  0.00000E+00  9.000E+00
#rwgt            1           1   3.6365946395393832E-002           7       27616           0
</event>
<event>
      5   9999  3.79277E-02  3.23490E+01 -1.00000E+00  1.50800E-01
      21    -1     0     0   502   501  0.000000000E+00  0.000000000E+00  3.242939475E+02  3.242939475E+02  0.000000000E+00  0.00000E+00  9.000E+00
      21    -1     0     0   501   511  0.000000000E+00  0.000000000E+00 -1.876122325E+02  1.876122325E+02  0.000000000E+00  0.00000E+00  9.000E+00
      25     1     1     2     0     0 -2.677768772E+01 -1.075691807E+02 -1.026209314E+02  1.960719989E+02  1.250000000E+02  0.00000E+00  9.000E+00
      25     1     1     2     0     0  4.788690165E+01  8.305676396E+01  2.354029161E+02  2.832509741E+02  1.250000000E+02  0.00000E+00  9.000E+00
      21     1     1     2   502   511 -2.110921393E+01  2.451241670E+01  3.899730347E+00  3.258320706E+01  2.493441184E-07  0.00000E+00  9.000E+00
#rwgt            1           1   2.8200580604670827E-002           7       28159           0
</event>
<event>
      5   9999  3.79277E-02  3.25728E+01 -1.00000E+00  1.50599E-01
      21    -1     0     0   502   501  0.000000000E+00  0.000000000E+00  1.998439471E+02  1.998439471E+02  0.000000000E+00  0.00000E+00  9.000E+00
      21    -1     0     0   512   502  0.000000000E+00  0.000000000E+00 -7.798152179E+02  7.798152179E+02  0.000000000E+00  0.00000E+00  9.000E+00
      25     1     1     2     0     0 -1.890935127E+01  2.629203841E+02 -2.106039379E+02  3.598106594E+02  1.250000000E+02  0.00000E+00  9.000E+00
      25     1     1     2     0     0 -5.521676523E+00 -2.413771470E+02 -2.398689418E+01  2.729354999E+02  1.250000000E+02  0.00000E+00  9.000E+00
      21     1     1     2   512   501  2.443102779E+01 -2.154323713E+01 -3.453804386E+02  3.469130057E+02  0.000000000E+00  0.00000E+00  9.000E+00
#rwgt            1           1   1.9427900028796286E-002           7       28273           0
</event>
<event>
      5   9999  3.79277E-02  5.22095E+00 -1.00000E+00  2.35281E-01
      21    -1     0     0   502   501  0.000000000E+00  0.000000000E+00  2.605321875E+02  2.605321875E+02  0.000000000E+00  0.00000E+00  9.000E+00
      21    -1     0     0   511   502  0.000000000E+00  0.000000000E+00 -2.329287718E+02  2.329287718E+02  0.000000000E+00  0.00000E+00  9.000E+00
      25     1     1     2     0     0 -1.767841817E+02  6.754060669E+01  7.720825845E+01  2.395840054E+02  1.250000000E+02  0.00000E+00  9.000E+00
      25     1     1     2     0     0  1.756142146E+02 -6.245243067E+01 -2.167938735E+01  2.254676347E+02  1.250000000E+02  0.00000E+00  9.000E+00
      21     1     1     2   511   501  1.169967097E+00 -5.088176013E+00 -2.792545546E+01  2.840931926E+01  3.371747881E-07  0.00000E+00  9.000E+00
#rwgt            1           1   1.9961422514404348E-002           7       28382           0
</event>
<event>
      5   9999  3.79277E-02  9.06022E+00 -1.00000E+00  2.00846E-01
      21    -1     0     0   502   512  0.000000000E+00  0.000000000E+00  8.195409591E+02  8.195409591E+02  0.000000000E+00  0.00000E+00  9.000E+00
      21    -1     0     0   501   502  0.000000000E+00  0.000000000E+00 -3.727740254E+02  3.727740254E+02  0.000000000E+00  0.00000E+00  9.000E+00
      25     1     1     2     0     0 -2.405478404E+02 -2.539017097E+01 -8.615673639E+01  2.855799494E+02  1.250000000E+02  0.00000E+00  9.000E+00
      25     1     1     2     0     0  2.416867088E+02  3.437852932E+01 -8.624332427E+01  2.875017556E+02  1.250000000E+02  0.00000E+00  9.000E+00
      21     1     1     2   501   512 -1.138868401E+00 -8.988358357E+00  6.191669943E+02  6.192332795E+02  1.321449896E-05  0.00000E+00  9.000E+00
#rwgt            1           1   3.9195569861860499E-002           7       28883           0
</event>
<event>
      5   9999  3.79277E-02  2.92599E+01 -1.00000E+00  1.53797E-01
      21    -1     0     0   502   501  0.000000000E+00  0.000000000E+00  2.559705034E+02  2.559705034E+02  0.000000000E+00  0.00000E+00  9.000E+00
      21    -1     0     0   511   502  0.000000000E+00  0.000000000E+00 -2.512961621E+02  2.512961621E+02  0.000000000E+00  0.00000E+00  9.000E+00
      25     1     1     2     0     0 -1.154106060E+02 -9.504551906E+01  5.501313962E+00  1.949577470E+02  1.250000000E+02  0.00000E+00  9.000E+00
      25     1     1     2     0     0  1.253609803E+02  6.752948148E+01  9.511227986E+01  2.120069622E+02  1.250000000E+02  0.00000E+00  9.000E+00
      21     1     1     2   511   501 -9.950374309E+00  2.751603758E+01 -9.593925245E+01  1.003019563E+02  1.348699152E-06  0.00000E+00  9.000E+00
#rwgt            1           1   2.1667116073587751E-002           7       29261           0
</event>
<event>
      5   9999  3.79277E-02  1.86446E+01 -1.00000E+00  1.68924E-01
      21    -1     0     0   502   501  0.000000000E+00  0.000000000E+00  3.200718909E+02  3.200718909E+02  0.000000000E+00  0.00000E+00  9.000E+00
      21    -1     0     0   501   512  0.000000000E+00  0.000000000E+00 -1.472901184E+02  1.472901184E+02  0.000000000E+00  0.00000E+00  9.000E+00
      25     1     1     2     0     0  4.911065427E+01 -6.318746335E+01  1.027732317E+01  1.487788132E+02  1.250000000E+02  0.00000E+00  9.000E+00
      25     1     1     2     0     0 -6.254139493E+01  7.611946671E+01  2.123449464E+02  2.653695076E+02  1.250000000E+02  0.00000E+00  9.000E+00
      21     1     1     2   502   512  1.343074066E+01 -1.293200335E+01 -4.984049705E+01  5.321368857E+01  6.743495762E-07  0.00000E+00  9.000E+00
#rwgt            1           1   4.4986343757813775E-002           7       29376           0
</event>
<event>
      5   9999  3.79277E-02  5.49460E+01 -1.00000E+00  1.36778E-01
      21    -1     0     0   511   501  0.000000000E+00  0.000000000E+00  7.350465334E+01  7.350465334E+01  0.000000000E+00  0.00000E+00  9.000E+00
      21    -1     0     0   501   502  0.000000000E+00  0.000000000E+00 -8.381490343E+02  8.381490343E+02  0.000000000E+00  0.00000E+00  9.000E+00
      25     1     1     2     0     0  6.548625200E+01  1.171498693E+02 -1.029933330E+02  2.103453535E+02  1.250000000E+02  0.00000E+00  9.000E+00
      25     1     1     2     0     0 -1.380778670E+01 -9.848427236E+01 -5.886640532E+02  6.099509607E+02  1.250000000E+02  0.00000E+00  9.000E+00
      21     1     1     2   511   502 -5.167846531E+01 -1.866559698E+01 -7.298699476E+01  9.135737349E+01  9.536743164E-07  0.00000E+00  9.000E+00
#rwgt            1           1   3.7098235551093997E-002           7       29787           0
</event>
<event>
      5   9999 -3.79277E-02  2.87953E+00 -1.00000E+00  3.02376E-01
      21    -1     0     0   502   512  0.000000000E+00  0.000000000E+00  3.700743637E+02  3.700743637E+02  0.000000000E+00  0.00000E+00  9.000E+00
      21    -1     0     0   501   502  0.000000000E+00  0.000000000E+00 -1.157972365E+03  1.157972365E+03  0.000000000E+00  0.00000E+00  9.000E+00
      25     1     1     2     0     0 -6.709020623E+01 -1.841579468E+02 -4.725463455E+02  5.266310794E+02  1.250000000E+02  0.00000E+00  9.000E+00
      25     1     1     2     0     0  6.979758836E+01  1.851386436E+02 -6.375787248E+02  6.791757144E+02  1.250000000E+02  0.00000E+00  9.000E+00
      21     1     1     2   501   512 -2.707382128E+00 -9.806968130E-01  3.222270690E+02  3.222399349E+02  0.000000000E+00  0.00000E+00  9.000E+00
#rwgt            1           1 -0.14792797168007499                7       29942           0
</event>
<event>
      5   9999  3.79277E-02  3.99551E+01 -1.00000E+00  1.44870E-01
      21    -1     0     0   502   501  0.000000000E+00  0.000000000E+00  1.352790337E+03  1.352790337E+03  0.000000000E+00  0.00000E+00  9.000E+00
       2    -1     0     0   501     0  0.000000000E+00  0.000000000E+00 -1.339627184E+03  1.339627184E+03  0.000000000E+00  0.00000E+00  9.000E+00
      25     1     1     2     0     0  1.079603830E+02 -1.294050090E+02  1.056697422E+03  1.077327964E+03  1.250000000E+02  0.00000E+00  9.000E+00
      25     1     1     2     0     0 -9.494632170E+01  9.162878550E+01  2.565398870E+02  3.144015775E+02  1.250000000E+02  0.00000E+00  9.000E+00
       2     1     1     2   502     0 -1.301406126E+01  3.777622354E+01 -1.300074156E+03  1.300687980E+03  2.642899792E-05  0.00000E+00  9.000E+00
#rwgt            1           1   4.1865691065913195E-002           7       30539           0
</event>
<event>
      5   9999  3.79277E-02  5.18336E+01 -1.00000E+00  1.38189E-01
      21    -1     0     0   502   501  0.000000000E+00  0.000000000E+00  3.883067918E+02  3.883067918E+02  0.000000000E+00  0.00000E+00  9.000E+00
      21    -1     0     0   511   502  0.000000000E+00  0.000000000E+00 -3.206589214E+02  3.206589214E+02  0.000000000E+00  0.00000E+00  9.000E+00
      25     1     1     2     0     0 -1.362419206E+02 -3.093000528E+00  2.446268080E+02  3.066573051E+02  1.250000000E+02  0.00000E+00  9.000E+00
      25     1     1     2     0     0  1.879315065E+02  6.953646808E+00 -8.431254252E+00  2.259705520E+02  1.250000000E+02  0.00000E+00  9.000E+00
      21     1     1     2   511   501 -5.168958588E+01 -3.860646280E+00 -1.685476834E+02  1.763378560E+02  1.907348633E-06  0.00000E+00  9.000E+00
#rwgt            1           1  0.22693972356258146                7       30662           0
</event>
<event>
      5   9999 -3.79277E-02  4.71119E+01 -1.00000E+00  1.40566E-01
      21    -1     0     0   502   501  0.000000000E+00  0.000000000E+00  5.645727615E+01  5.645727615E+01  0.000000000E+00  0.00000E+00  9.000E+00
      21    -1     0     0   512   502  0.000000000E+00  0.000000000E+00 -1.184278982E+03  1.184278982E+03  0.000000000E+00  0.00000E+00  9.000E+00
      25     1     1     2     0     0 -4.992296184E+01  1.612683318E+02 -2.853025548E+02  3.542912993E+02  1.250000000E+02  0.00000E+00  9.000E+00
      25     1     1     2     0     0  9.175701458E+00 -1.376210764E+02 -3.973404176E+02  4.387803114E+02  1.250000000E+02  0.00000E+00  9.000E+00
      21     1     1     2   512   501  4.074726038E+01 -2.364725543E+01 -4.451787336E+02  4.476646477E+02  5.394796609E-06  0.00000E+00  9.000E+00
#rwgt            1           1  -2.7306068173212667E-003           7       30819           0
</event>
<event>
      5   9999  3.79277E-02  3.50334E+01 -1.00000E+00  1.48504E-01
      21    -1     0     0   502   511  0.000000000E+00  0.000000000E+00  2.466494290E+02  2.466494290E+02  0.000000000E+00  0.00000E+00  9.000E+00
      21    -1     0     0   501   502  0.000000000E+00  0.000000000E+00 -2.074901645E+02  2.074901645E+02  0.000000000E+00  0.00000E+00  9.000E+00
      25     1     1     2     0     0  3.618039543E+01 -1.605177144E+02 -5.706847111E+01  2.143752972E+02  1.250000000E+02  0.00000E+00  9.000E+00
      25     1     1     2     0     0 -3.604880329E+01  1.254845260E+02  6.282241622E+01  1.913570967E+02  1.250000000E+02  0.00000E+00  9.000E+00
      21     1     1     2   501   511 -1.315921387E-01  3.503318840E+01  3.340531933E+01  4.840719952E+01  0.000000000E+00  0.00000E+00  9.000E+00
#rwgt            1           1   3.0246027055500151E-002           7       30994           0
</event>
<event>
      5   9999  3.79277E-02  8.84929E+01 -1.00000E+00  1.26264E-01
      21    -1     0     0   502   501  0.000000000E+00  0.000000000E+00  4.176575264E+02  4.176575264E+02  0.000000000E+00  0.00000E+00  9.000E+00
      21    -1     0     0   501   512  0.000000000E+00  0.000000000E+00 -3.989560446E+02  3.989560446E+02  0.000000000E+00  0.00000E+00  9.000E+00
      25     1     1     2     0     0 -9.942340086E+01  2.422846145E+02  6.712603465E-03  2.901927757E+02  1.250000000E+02  0.00000E+00  9.000E+00
      25     1     1     2     0     0  1.503217549E+02 -3.146748408E+02  1.223373504E+02  3.901388377E+02  1.250000000E+02  0.00000E+00  9.000E+00
      21     1     1     2   502   512 -5.089835406E+01  7.239022630E+01 -1.036425812E+02  1.362819575E+02  1.348699152E-06  0.00000E+00  9.000E+00
#rwgt            1           1   2.4103497942076224E-002           7       31173           0
</event>
<event>
      5   9999  3.79277E-02  7.17215E+01 -1.00000E+00  1.30689E-01
      21    -1     0     0   502   501  0.000000000E+00  0.000000000E+00  1.780048379E+02  1.780048379E+02  0.000000000E+00  0.00000E+00  9.000E+00
      21    -1     0     0   511   502  0.000000000E+00  0.000000000E+00 -4.362653342E+02  4.362653342E+02  0.000000000E+00  0.00000E+00  9.000E+00
      25     1     1     2     0     0  6.846995316E+01 -9.729830883E+01  2.199241861E+01  1.739648294E+02  1.250000000E+02  0.00000E+00  9.000E+00
      25     1     1     2     0     0 -2.615814304E+00  6.888691167E+01  8.283085123E+00  1.429890156E+02  1.250000000E+02  0.00000E+00  9.000E+00
      21     1     1     2   511   501 -6.585413885E+01  2.841139716E+01 -2.885360000E+02  2.973163272E+02  7.629394531E-06  0.00000E+00  9.000E+00
#rwgt            1           1   3.0290693516276862E-002           7       31371           0
</event>
<event>
      5   9999  3.79277E-02  5.05411E+01 -1.00000E+00  1.38809E-01
      21    -1     0     0   502   501  0.000000000E+00  0.000000000E+00  2.690524692E+03  2.690524692E+03  0.000000000E+00  0.00000E+00  9.000E+00
      21    -1     0     0   501   512  0.000000000E+00  0.000000000E+00 -9.086396692E+01  9.086396692E+01  0.000000000E+00  0.00000E+00  9.000E+00
      25     1     1     2     0     0 -1.560872772E+02 -1.289090699E+02  1.788467493E+03  1.804223313E+03  1.250000000E+02  0.00000E+00  9.000E+00
      25     1     1     2     0     0  1.342094784E+02  1.744696656E+02  8.662207999E+02  9.024496233E+02  1.250000000E+02  0.00000E+00  9.000E+00
      21     1     1     2   502   512  2.187779885E+01 -4.556059572E+01 -5.502756846E+01  7.471572294E+01  2.336015456E-06  0.00000E+00  9.000E+00
#rwgt            1           1  0.58516446228682217                7       31446           0
</event>
<event>
      5   9999  3.79277E-02  3.39688E+01 -1.00000E+00  1.49384E-01
      21    -1     0     0   511   501  0.000000000E+00  0.000000000E+00  1.193519254E+03  1.193519254E+03  0.000000000E+00  0.00000E+00  9.000E+00
      21    -1     0     0   501   502  0.000000000E+00  0.000000000E+00 -7.266678901E+01  7.266678901E+01  0.000000000E+00  0.00000E+00  9.000E+00
      25     1     1     2     0     0 -1.459300545E+02 -8.331217422E+01  8.430153778E+02  8.686405623E+02  1.250000000E+02  0.00000E+00  9.000E+00
      25     1     1     2     0     0  1.120955068E+02  8.632972242E+01  9.456768741E+01  2.111546143E+02  1.250000000E+02  0.00000E+00  9.000E+00
      21     1     1     2   511   502  3.383454768E+01 -3.017548201E+00  1.832693994E+02  1.863908662E+02  2.697398305E-06  0.00000E+00  9.000E+00
#rwgt            1           1   3.9419440989163460E-002           7       31625           0
</event>
<event>
      5   9999  3.79277E-02  7.54023E+00 -1.00000E+00  2.11089E-01
      -2    -1     0     0     0   501  0.000000000E+00  0.000000000E+00  1.709958420E+02  1.709958420E+02  0.000000000E+00  0.00000E+00  9.000E+00
      21    -1     0     0   501   502  0.000000000E+00  0.000000000E+00 -1.197313721E+03  1.197313721E+03  0.000000000E+00  0.00000E+00  9.000E+00
      25     1     1     2     0     0 -1.053501044E+02 -1.273652691E+01 -9.382131944E+02  9.524336521E+02  1.250000000E+02  0.00000E+00  9.000E+00
      25     1     1     2     0     0  1.128602441E+02  1.206351546E+01 -2.235909005E+02  2.801800383E+02  1.250000000E+02  0.00000E+00  9.000E+00
      -2     1     1     2     0   502 -7.510139621E+00  6.730114467E-01  1.354862159E+02  1.356958726E+02  3.303624740E-06  0.00000E+00  9.000E+00
#rwgt            1           1   5.1639805310897013E-002           7       31747           0
</event>
<event>
      5   9999 -3.79277E-02  7.40514E+01 -1.00000E+00  1.29995E-01
      21    -1     0     0   502   501  0.000000000E+00  0.000000000E+00  9.510396236E+01  9.510396236E+01  0.000000000E+00  0.00000E+00  9.000E+00
       2    -1     0     0   501     0  0.000000000E+00  0.000000000E+00 -9.970724594E+02  9.970724594E+02  0.000000000E+00  0.00000E+00  9.000E+00
      25     1     1     2     0     0  1.721862919E+02 -1.177215282E+01 -4.078904959E+02  4.602025199E+02  1.250000000E+02  0.00000E+00  9.000E+00
      25     1     1     2     0     0 -2.027231098E+02  7.923403496E+01 -1.789384611E+02  3.082509763E+02  1.250000000E+02  0.00000E+00  9.000E+00
       2     1     1     2   502     0  3.053681786E+01 -6.746188214E+01 -3.151395400E+02  3.237229255E+02  0.000000000E+00  0.00000E+00  9.000E+00
#rwgt            1           1  -3.7128752624326598E-002           7       32066           0
</event>
<event>
      5   9999  3.79277E-02  1.70497E+01 -1.00000E+00  1.72299E-01
      21    -1     0     0   502   501  0.000000000E+00  0.000000000E+00  8.458129398E+01  8.458129398E+01  0.000000000E+00  0.00000E+00  9.000E+00
      21    -1     0     0   501   511  0.000000000E+00  0.000000000E+00 -3.899647952E+02  3.899647952E+02  0.000000000E+00  0.00000E+00  9.000E+00
      25     1     1     2     0     0 -1.193381916E+02 -1.380996249E+01 -1.741567882E+02  2.457395083E+02  1.250000000E+02  0.00000E+00  9.000E+00
      25     1     1     2     0     0  1.113462704E+02  2.887051169E+01 -1.140630464E+02  2.046139705E+02  1.250000000E+02  0.00000E+00  9.000E+00
      21     1     1     2   502   511  7.991921146E+00 -1.506054920E+01 -1.716366657E+01  2.419261036E+01  2.384185791E-07  0.00000E+00  9.000E+00
#rwgt            1           1   2.2688548293646100E-002           7       32305           0
</event>
<event>
      5   9999  3.79277E-02  8.68680E+01 -1.00000E+00  1.26642E-01
      21    -1     0     0   512   501  0.000000000E+00  0.000000000E+00  2.095484040E+02  2.095484040E+02  0.000000000E+00  0.00000E+00  9.000E+00
      21    -1     0     0   501   502  0.000000000E+00  0.000000000E+00 -3.222505340E+02  3.222505340E+02  0.000000000E+00  0.00000E+00  9.000E+00
      25     1     1     2     0     0  4.815879999E+00  9.260174906E+01 -1.863198866E+02  2.427722735E+02  1.250000000E+02  0.00000E+00  9.000E+00
      25     1     1     2     0     0  7.566923897E+01 -1.252850857E+02  4.633553290E+01  1.979751703E+02  1.250000000E+02  0.00000E+00  9.000E+00
      21     1     1     2   512   502 -8.048511897E+01  3.268333668E+01  2.728222364E+01  9.105149422E+01  1.545128989E-06  0.00000E+00  9.000E+00
#rwgt            1           1   4.7738573872524129E-002           7       32572           0
</event>
<event>
      5   9999  3.79277E-02  4.49987E+02 -1.00000E+00  1.00170E-01
       2    -1     0     0   502     0  0.000000000E+00  0.000000000E+00  2.047813489E+03  2.047813489E+03  0.000000000E+00  0.00000E+00  9.000E+00
      21    -1     0     0   501   502  0.000000000E+00  0.000000000E+00 -2.366399726E+02  2.366399726E+02  0.000000000E+00  0.00000E+00  9.000E+00
      25     1     1     2     0     0  8.603700874E+01 -2.475771466E+02  3.471792567E+02  4.526093753E+02  1.250000000E+02  0.00000E+00  9.000E+00
      25     1     1     2     0     0 -4.386411070E+02 -3.199186200E+01  2.169279907E+02  5.060753433E+02  1.250000000E+02  0.00000E+00  9.000E+00
       2     1     1     2   501     0  3.526040982E+02  2.795690086E+02  1.247066269E+03  1.325768743E+03  1.525878906E-05  0.00000E+00  9.000E+00
#rwgt            2          18   4.9424466812726415E-004           7       32660           0
</event>
<event>
      5   9999  3.79277E-02  5.91909E+01 -1.00000E+00  1.35019E-01
      21    -1     0     0   502   501  0.000000000E+00  0.000000000E+00  5.334628984E+02  5.334628984E+02  0.000000000E+00  0.00000E+00  9.000E+00
      21    -1     0     0   511   502  0.000000000E+00  0.000000000E+00 -1.255755274E+02  1.255755274E+02  0.000000000E+00  0.00000E+00  9.000E+00
      25     1     1     2     0     0 -7.918152978E-01 -1.044434201E+02  3.992048260E+02  4.311595390E+02  1.250000000E+02  0.00000E+00  9.000E+00
      25     1     1     2     0     0 -5.113356457E+01  7.603002310E+01  4.116863854E+01  1.603591676E+02  1.250000000E+02  0.00000E+00  9.000E+00
      21     1     1     2   511   501  5.192537986E+01  2.841339701E+01 -3.248609360E+01  6.751971920E+01  1.507891493E-06  0.00000E+00  9.000E+00
#rwgt            1           1   1.4077887776664010E-002           7       32694           0
</event>
<event>
      5   9999  3.79277E-02  3.62886E+01 -1.00000E+00  1.47513E-01
      21    -1     0     0   512   501  0.000000000E+00  0.000000000E+00  6.733790168E+02  6.733790168E+02  0.000000000E+00  0.00000E+00  9.000E+00
      21    -1     0     0   501   502  0.000000000E+00  0.000000000E+00 -1.849653435E+02  1.849653435E+02  0.000000000E+00  0.00000E+00  9.000E+00
      25     1     1     2     0     0 -1.695960334E+01 -1.289375061E+02  2.691974994E+02  3.240444450E+02  1.250000000E+02  0.00000E+00  9.000E+00
      25     1     1     2     0     0 -1.061071822E+01  1.525328769E+02 -9.418638963E+01  2.188034320E+02  1.250000000E+02  0.00000E+00  9.000E+00
      21     1     1     2   512   502  2.757032156E+01 -2.359537082E+01  3.134025636E+02  3.154964833E+02  0.000000000E+00  0.00000E+00  9.000E+00
#rwgt            1           1   4.0305516456804268E-002           7       32778           0
</event>
<event>
      5   9999  3.79277E-02  1.79371E+01 -1.00000E+00  1.70367E-01
      21    -1     0     0   502   511  0.000000000E+00  0.000000000E+00  7.774918826E+01  7.774918826E+01  0.000000000E+00  0.00000E+00  9.000E+00
      21    -1     0     0   501   502  0.000000000E+00  0.000000000E+00 -1.752538244E+03  1.752538244E+03  0.000000000E+00  0.00000E+00  9.000E+00
      25     1     1     2     0     0  3.174303403E+01  3.468426696E+01 -1.979549311E+02  2.387923226E+02  1.250000000E+02  0.00000E+00  9.000E+00
      25     1     1     2     0     0 -3.281230540E+01 -1.677903439E+01 -1.529920216E+03  1.535460534E+03  1.250000000E+02  0.00000E+00  9.000E+00
      21     1     1     2   501   511  1.069271374E+00 -1.790523258E+01  5.308609093E+01  5.603457634E+01  4.370284743E-06  0.00000E+00  9.000E+00
#rwgt            1           1   3.8682116247961744E-002           7       32907           0
</event>
<event>
      5   9999  3.79277E-02  4.05958E+00 -1.00000E+00  2.61966E-01
      21    -1     0     0   502   501  0.000000000E+00  0.000000000E+00  8.572032889E+01  8.572032889E+01  0.000000000E+00  0.00000E+00  9.000E+00
      21    -1     0     0   501   512  0.000000000E+00  0.000000000E+00 -9.030886991E+02  9.030886991E+02  0.000000000E+00  0.00000E+00  9.000E+00
      25     1     1     2     0     0 -1.711397857E+02  6.500829374E+01 -6.559534441E+02  6.923978808E+02  1.250000000E+02  0.00000E+00  9.000E+00
      25     1     1     2     0     0  1.742433911E+02 -6.239145199E+01 -1.175930203E+02  2.524016067E+02  1.250000000E+02  0.00000E+00  9.000E+00
      21     1     1     2   502   512 -3.103605416E+00 -2.616841752E+00 -4.382190583E+01  4.400954053E+01  0.000000000E+00  0.00000E+00  9.000E+00
#rwgt            2          11   8.9490395224060089E-004           7       33098           0
</event>
<event>
      5   9999  3.79277E-02  8.48730E+00 -1.00000E+00  2.04369E-01
      21    -1     0     0   502   511  0.000000000E+00  0.000000000E+00  7.520879808E+02  7.520879808E+02  0.000000000E+00  0.00000E+00  9.000E+00
      21    -1     0     0   501   502  0.000000000E+00  0.000000000E+00 -4.367818741E+01  4.367818741E+01  0.000000000E+00  0.00000E+00  9.000E+00
      25     1     1     2     0     0  8.507780221E+01  6.736962777E+01  2.253613730E+02  2.796241185E+02  1.250000000E+02  0.00000E+00  9.000E+00
      25     1     1     2     0     0 -9.028900139E+01 -7.406870481E+01  4.364498869E+02  4.687768985E+02  1.250000000E+02  0.00000E+00  9.000E+00
      21     1     1     2   501   511  5.211199188E+00  6.699077042E+00  4.659853342E+01  4.736515119E+01  0.000000000E+00  0.00000E+00  9.000E+00
#rwgt            1           1   4.5056989429948485E-002           7       33148           0
</event>
<event>
      5   9999  3.79277E-02  3.50401E+01 -1.00000E+00  1.48498E-01
      21    -1     0     0   512   501  0.000000000E+00  0.000000000E+00  4.344393488E+02  4.344393488E+02  0.000000000E+00  0.00000E+00  9.000E+00
      21    -1     0     0   501   502  0.000000000E+00  0.000000000E+00 -2.134538853E+03  2.134538853E+03  0.000000000E+00  0.00000E+00  9.000E+00
      25     1     1     2     0     0 -8.099311194E+02  3.820904286E+02 -6.893710272E+02  1.137030750E+03  1.250000000E+02  0.00000E+00  9.000E+00
      25     1     1     2     0     0  8.376267773E+02 -4.035556503E+02 -1.028975680E+03  1.392440925E+03  1.250000000E+02  0.00000E+00  9.000E+00
      21     1     1     2   512   502 -2.769565795E+01  2.146522167E+01  1.824720276E+01  3.950652629E+01  4.768371582E-07  0.00000E+00  9.000E+00
#rwgt            1           1   4.6877768013361123E-003           7       33439           0
</event>
<event>
      5   9999  3.79277E-02  4.32693E+01 -1.00000E+00  1.42755E-01
      21    -1     0     0   502   501  0.000000000E+00  0.000000000E+00  1.818160710E+02  1.818160710E+02  0.000000000E+00  0.00000E+00  9.000E+00
      21    -1     0     0   501   511  0.000000000E+00  0.000000000E+00 -5.520900217E+02  5.520900217E+02  0.000000000E+00  0.00000E+00  9.000E+00
      25     1     1     2     0     0 -2.238385763E+02 -4.329940710E+01 -3.639922806E+01  2.625422837E+02  1.250000000E+02  0.00000E+00  9.000E+00
      25     1     1     2     0     0  2.485939677E+02  7.811283191E+00 -2.382255113E+02  3.663828205E+02  1.250000000E+02  0.00000E+00  9.000E+00
      21     1     1     2   502   511 -2.475539136E+01  3.548812391E+01 -9.564921134E+01  1.049809886E+02  1.348699152E-06  0.00000E+00  9.000E+00
#rwgt            1           1   3.6083244267556852E-002           7       33678           0
</event>
<event>
      5   9999  3.79277E-02  7.85223E+01 -1.00000E+00  1.28743E-01
      21    -1     0     0   502   501  0.000000000E+00  0.000000000E+00  4.921562972E+02  4.921562972E+02  0.000000000E+00  0.00000E+00  9.000E+00
      21    -1     0     0   512   502  0.000000000E+00  0.000000000E+00 -1.587860794E+02  1.587860794E+02  0.000000000E+00  0.00000E+00  9.000E+00
      25     1     1     2     0     0  1.225884781E+02 -6.998908450E+01  5.684318307E+01  1.969328677E+02  1.250000000E+02  0.00000E+00  9.000E+00
      25     1     1     2     0     0 -4.685397028E+01  9.072624547E+01  3.241944369E+02  3.621513207E+02  1.250000000E+02  0.00000E+00  9.000E+00
      21     1     1     2   512   501 -7.573450781E+01 -2.073716097E+01 -4.766740219E+01  9.185818826E+01  2.132480600E-06  0.00000E+00  9.000E+00
#rwgt            1           1   4.9690122316042258E-002           7       33900           0
</event>
<event>
      5   9999  3.79277E-02  5.94948E+01 -1.00000E+00  1.34900E-01
      21    -1     0     0   502   511  0.000000000E+00  0.000000000E+00  8.756476007E+02  8.756476007E+02  0.000000000E+00  0.00000E+00  9.000E+00
      21    -1     0     0   501   502  0.000000000E+00  0.000000000E+00 -8.925921681E+01  8.925921681E+01  0.000000000E+00  0.00000E+00  9.000E+00
      25     1     1     2     0     0 -1.563775345E+01 -3.871761431E+01 -2.245487589E+01  1.336892458E+02  1.250000000E+02  0.00000E+00  9.000E+00
      25     1     1     2     0     0 -3.142899575E+01  2.326029432E+00  6.185606747E+02  6.318508531E+02  1.250000000E+02  0.00000E+00  9.000E+00
      21     1     1     2   501   511  4.706674920E+01  3.639158488E+01  1.902825850E+02  1.993667186E+02  2.697398305E-06  0.00000E+00  9.000E+00
#rwgt            1           1   4.4982595057728170E-002           7       33950           0
</event>
<event>
      5   9999  3.79277E-02  1.43812E+02 -1.00000E+00  1.17123E-01
      21    -1     0     0   502   512  0.000000000E+00  0.000000000E+00  3.189147369E+02  3.189147369E+02  0.000000000E+00  0.00000E+00  9.000E+00
      21    -1     0     0   501   502  0.000000000E+00  0.000000000E+00 -6.336280140E+02  6.336280140E+02  0.000000000E+00  0.00000E+00  9.000E+00
      25     1     1     2     0     0  2.622109212E+02 -2.860828548E+01 -2.573820633E+02  3.891574587E+02  1.250000000E+02  0.00000E+00  9.000E+00
      25     1     1     2     0     0 -1.386117547E+02  1.021283183E+02 -2.465865308E+02  3.256890067E+02  1.250000000E+02  0.00000E+00  9.000E+00
      21     1     1     2   501   512 -1.235991664E+02 -7.352003285E+01  1.892553169E+02  2.376962855E+02  4.672030912E-06  0.00000E+00  9.000E+00
#rwgt            1           1   4.6944184084906873E-002           7       34087           0
</event>
<event>
      5   9999  3.79277E-02  3.75015E+01 -1.00000E+00  1.46599E-01
       2    -1     0     0   502     0  0.000000000E+00  0.000000000E+00  3.724280012E+03  3.724280012E+03  0.000000000E+00  0.00000E+00  9.000E+00
      21    -1     0     0   501   502  0.000000000E+00  0.000000000E+00 -3.231884418E+01  3.231884418E+01  0.000000000E+00  0.00000E+00  9.000E+00
      25     1     1     2     0     0 -5.583416543E+00 -1.409291441E+02  8.592244376E+02  8.796498350E+02  1.250000000E+02  0.00000E+00  9.000E+00
      25     1     1     2     0     0  4.277671228E+01  1.457270683E+02  4.185028880E+02  4.624239319E+02  1.250000000E+02  0.00000E+00  9.000E+00
       2     1     1     2   501     0 -3.719329574E+01 -4.797924143E+00  2.414233842E+03  2.414525089E+03  3.051757812E-05  0.00000E+00  9.000E+00
#rwgt            1           1   3.7465598050608187E-002           7       34188           0
</event>
<event>
      5   9999  3.79277E-02  1.83331E+01 -1.00000E+00  1.69549E-01
      21    -1     0     0   502   511  0.000000000E+00  0.000000000E+00  2.197806494E+03  2.197806494E+03  0.000000000E+00  0.00000E+00  9.000E+00
      21    -1     0     0   501   502  0.000000000E+00  0.000000000E+00 -6.371232903E+01  6.371232903E+01  0.000000000E+00  0.00000E+00  9.000E+00
      25     1     1     2     0     0  2.080287015E+02  4.744177059E+01  1.286080630E+03  1.309639282E+03  1.250000000E+02  0.00000E+00  9.000E+00
      25     1     1     2     0     0 -1.898281504E+02 -4.524127056E+01  2.073900381E+02  3.109937735E+02  1.250000000E+02  0.00000E+00  9.000E+00
      21     1     1     2   501   511 -1.820055117E+01 -2.200500037E+00  6.406234967E+02  6.408857674E+02  1.078959322E-05  0.00000E+00  9.000E+00
#rwgt            1           1   3.7090787745585031E-002           7       34269           0
</event>
<event>
      5   9999  3.79277E-02  1.67877E+01 -1.00000E+00  1.72897E-01
      21    -1     0     0   502   501  0.000000000E+00  0.000000000E+00  1.284947591E+02  1.284947591E+02  0.000000000E+00  0.00000E+00  9.000E+00
      21    -1     0     0   501   512  0.000000000E+00  0.000000000E+00 -7.889695189E+02  7.889695189E+02  0.000000000E+00  0.00000E+00  9.000E+00
      25     1     1     2     0     0  7.647231883E+01 -7.861946219E+01  5.901285903E+01  1.764555267E+02  1.250000000E+02  0.00000E+00  9.000E+00
      25     1     1     2     0     0 -6.027588377E+01  7.420338571E+01 -5.976883988E+02  6.180580447E+02  1.250000000E+02  0.00000E+00  9.000E+00
      21     1     1     2   502   512 -1.619643506E+01  4.416076477E+00 -1.217992200E+02  1.229507065E+02  2.336015456E-06  0.00000E+00  9.000E+00
#rwgt            1           1   4.8990914340463841E-002           7       34556           0
</event>
<event>
      5   9999  3.79277E-02  7.74906E+00 -1.00000E+00  2.09497E-01
      21    -1     0     0   502   511  0.000000000E+00  0.000000000E+00  2.097963103E+02  2.097963103E+02  0.000000000E+00  0.00000E+00  9.000E+00
      21    -1     0     0   501   502  0.000000000E+00  0.000000000E+00 -3.117276295E+02  3.117276295E+02  0.000000000E+00  0.00000E+00  9.000E+00
      25     1     1     2     0     0  2.932988717E+01 -1.435282630E+02 -1.916385416E+02  2.716816799E+02  1.250000000E+02  0.00000E+00  9.000E+00
      25     1     1     2     0     0 -3.383312236E+01  1.498345087E+02  4.320475512E+01  2.026985719E+02  1.250000000E+02  0.00000E+00  9.000E+00
      21     1     1     2   501   511  4.503235191E+00 -6.306245698E+00  4.650246729E+01  4.714368809E+01  6.743495762E-07  0.00000E+00  9.000E+00
#rwgt            1           1   2.5257849525333966E-002           7       34761           0
</event>
<event>
      5   9999  3.79277E-02  9.89838E+01 -1.00000E+00  1.24028E-01
      21    -1     0     0   512   501  0.000000000E+00  0.000000000E+00  1.063721178E+02  1.063721178E+02  0.000000000E+00  0.00000E+00  9.000E+00
      21    -1     0     0   501   502  0.000000000E+00  0.000000000E+00 -2.492635104E+03  2.492635104E+03  0.000000000E+00  0.00000E+00  9.000E+00
      25     1     1     2     0     0 -2.594648995E+02 -6.994349317E+01 -1.097940325E+03  1.137238798E+03  1.250000000E+02  0.00000E+00  9.000E+00
      25     1     1     2     0     0  3.116186567E+02 -1.418599217E+01 -1.316610892E+03  1.358821795E+03  1.250000000E+02  0.00000E+00  9.000E+00
      21     1     1     2   512   502 -5.215375714E+01  8.412948534E+01  2.828822963E+01  1.029466300E+02  2.718390048E-06  0.00000E+00  9.000E+00
#rwgt            1           1  0.10106127195018418                7       35024           0
</event>
<event>
      5   9999  3.79277E-02  5.58963E+01 -1.00000E+00  1.36368E-01
      21    -1     0     0   502   501  0.000000000E+00  0.000000000E+00  1.129973117E+02  1.129973117E+02  0.000000000E+00  0.00000E+00  9.000E+00
      21    -1     0     0   511   502  0.000000000E+00  0.000000000E+00 -4.703075223E+02  4.703075223E+02  0.000000000E+00  0.00000E+00  9.000E+00
      25     1     1     2     0     0 -2.581569188E+01  7.160538960E+00  4.330842475E+01  1.349753419E+02  1.250000000E+02  0.00000E+00  9.000E+00
      25     1     1     2     0     0 -2.998776346E+01 -1.038037697E+01 -3.496827015E+02  3.727063320E+02  1.250000000E+02  0.00000E+00  9.000E+00
      21     1     1     2   511   501  5.580345533E+01  3.219838011E+00 -5.093593382E+01  7.562316006E+01  0.000000000E+00  0.00000E+00  9.000E+00
#rwgt            1           1   4.7414056517118101E-002           7       35119           0
</event>
<event>
      5   9999  3.79277E-02  2.49702E+01 -1.00000E+00  1.58790E-01
      21    -1     0     0   502   501  0.000000000E+00  0.000000000E+00  2.742526800E+01  2.742526800E+01  0.000000000E+00  0.00000E+00  9.000E+00
      21    -1     0     0   501   512  0.000000000E+00  0.000000000E+00 -1.778588877E+03  1.778588877E+03  0.000000000E+00  0.00000E+00  9.000E+00
      25     1     1     2     0     0  1.501636110E+02  6.464029068E+01 -7.456631187E+02  7.735411843E+02  1.250000000E+02  0.00000E+00  9.000E+00
      25     1     1     2     0     0 -1.623783400E+02 -4.286154822E+01 -8.872320723E+02  9.115972728E+02  1.250000000E+02  0.00000E+00  9.000E+00
      21     1     1     2   502   512  1.221472905E+01 -2.177874246E+01 -1.182684176E+02  1.208756875E+02  0.000000000E+00  0.00000E+00  9.000E+00
#rwgt            1           1   2.1612667819046822E-002           7       35234           0
</event>
<event>
      5   9999  3.79277E-02  9.25729E+00 -1.00000E+00  1.99713E-01
      21    -1     0     0   502   501  0.000000000E+00  0.000000000E+00  2.538022346E+02  2.538022346E+02  0.000000000E+00  0.00000E+00  9.000E+00
      21    -1     0     0   501   511  0.000000000E+00  0.000000000E+00 -1.977853291E+02  1.977853291E+02  0.000000000E+00  0.00000E+00  9.000E+00
      25     1     1     2     0     0 -2.088547064E+01 -4.805770923E+01 -1.429626661E+02  1.970001781E+02  1.250000000E+02  0.00000E+00  9.000E+00
      25     1     1     2     0     0  1.724980582E+01  5.657118934E+01  2.020441232E+02  2.448360329E+02  1.250000000E+02  0.00000E+00  9.000E+00
      21     1     1     2   502   511  3.635664819E+00 -8.513480106E+00 -3.064551686E+00  9.751352687E+00  1.685873940E-07  0.00000E+00  9.000E+00
#rwgt            1           1   4.6005208317769448E-002           7       35526           0
</event>
<event>
      5   9999  3.79277E-02  6.51363E+01 -1.00000E+00  1.32824E-01
      21    -1     0     0   502   501  0.000000000E+00  0.000000000E+00  1.960972558E+03  1.960972558E+03  0.000000000E+00  0.00000E+00  9.000E+00
      21    -1     0     0   512   502  0.000000000E+00  0.000000000E+00 -1.014974230E+02  1.014974230E+02  0.000000000E+00  0.00000E+00  9.000E+00
      25     1     1     2     0     0 -1.722761816E+02  2.052115895E+02  1.434045888E+03  1.464207460E+03  1.250000000E+02  0.00000E+00  9.000E+00
      25     1     1     2     0     0  2.233658947E+02 -2.456167991E+02  3.718228366E+02  5.139038400E+02  1.250000000E+02  0.00000E+00  9.000E+00
      21     1     1     2   512   501 -5.108971309E+01  4.040520962E+01  5.360641126E+01  8.435868110E+01  6.743495762E-07  0.00000E+00  9.000E+00
#rwgt            1           1   5.0577151548020241E-002           7       35784           0
</event>
<event>
      5   9999  3.79277E-02  2.47870E+01 -1.00000E+00  1.59030E-01
      21    -1     0     0   502   501  0.000000000E+00  0.000000000E+00  4.042323663E+02  4.042323663E+02  0.000000000E+00  0.00000E+00  9.000E+00
      21    -1     0     0   511   502  0.000000000E+00  0.000000000E+00 -7.878956979E+02  7.878956979E+02  0.000000000E+00  0.00000E+00  9.000E+00
      25     1     1     2     0     0  1.064622967E+02  3.242647777E+01  1.008338980E+02  1.953923542E+02  1.250000000E+02  0.00000E+00  9.000E+00
      25     1     1     2     0     0 -1.022777190E+02 -7.995266595E+00  2.303581283E+02  2.814507476E+02  1.250000000E+02  0.00000E+00  9.000E+00
      21     1     1     2   511   501 -4.184577779E+00 -2.443121118E+01 -7.148553578E+02  7.152849623E+02  7.629394531E-06  0.00000E+00  9.000E+00
#rwgt            1           1   4.1745565652277772E-002           7       35929           0
</event>
<event>
      5   9999  3.79277E-02  4.16730E+01 -1.00000E+00  1.43745E-01
      21    -1     0     0   512   501  0.000000000E+00  0.000000000E+00  4.261492076E+02  4.261492076E+02  0.000000000E+00  0.00000E+00  9.000E+00
      21    -1     0     0   501   502  0.000000000E+00  0.000000000E+00 -5.954950687E+02  5.954950687E+02  0.000000000E+00  0.00000E+00  9.000E+00
      25     1     1     2     0     0  1.358300597E+02 -1.253011296E+02 -1.326660074E+02  2.595678095E+02  1.250000000E+02  0.00000E+00  9.000E+00
      25     1     1     2     0     0 -1.774302599E+02  1.277638169E+02 -3.581937461E+02  4.378730978E+02  1.250000000E+02  0.00000E+00  9.000E+00
      21     1     1     2   512   502  4.160020020E+01 -2.462687365E+00  3.215138923E+02  3.242033690E+02  0.000000000E+00  0.00000E+00  9.000E+00
#rwgt            1           1   3.8689277226165497E-002           7       36022           0
</event>
<event>
      5   9999  3.79277E-02  7.52388E+01 -1.00000E+00  1.29653E-01
       3    -1     0     0   502     0  0.000000000E+00  0.000000000E+00  2.900103361E+02  2.900103361E+02  0.000000000E+00  0.00000E+00  9.000E+00
      21    -1     0     0   501   502  0.000000000E+00  0.000000000E+00 -3.682781348E+02  3.682781348E+02  0.000000000E+00  0.00000E+00  9.000E+00
      25     1     1     2     0     0 -1.271888221E+02  2.515780362E+02  7.719023844E+00  3.084689419E+02  1.250000000E+02  0.00000E+00  9.000E+00
      25     1     1     2     0     0  8.111130120E+01 -1.920991735E+02 -1.152990817E+02  2.690725067E+02  1.250000000E+02  0.00000E+00  9.000E+00
       3     1     1     2   501     0  4.607752093E+01 -5.947886276E+01  2.931225923E+01  8.074702219E+01  8.259061849E-07  0.00000E+00  9.000E+00
#rwgt            1           1   3.8929900238213140E-002           7       36100           0
</event>
<event>
      5   9999  3.79277E-02  1.16589E+02 -1.00000E+00  1.20902E-01
       2    -1     0     0   502     0  0.000000000E+00  0.000000000E+00  2.248899107E+03  2.248899107E+03  0.000000000E+00  0.00000E+00  9.000E+00
      21    -1     0     0   501   502  0.000000000E+00  0.000000000E+00 -4.851954344E+01  4.851954344E+01  0.000000000E+00  0.00000E+00  9.000E+00
      25     1     1     2     0     0 -1.243521178E+01 -1.001916608E+02  1.171608454E+03  1.182575314E+03  1.250000000E+02  0.00000E+00  9.000E+00
      25     1     1     2     0     0  7.424935045E+01  1.337986724E+00  9.468210877E+01  1.735063629E+02  1.250000000E+02  0.00000E+00  9.000E+00
       2     1     1     2   501     0 -6.181413867E+01  9.885367413E+01  9.340890012E+02  9.413369741E+02  0.000000000E+00  0.00000E+00  9.000E+00
#rwgt            1           1   4.9247462189785450E-002           7       36188           0
</event>
<event>
      5   9999  3.79277E-02  6.99837E+00 -1.00000E+00  2.15568E-01
      21    -1     0     0   502   501  0.000000000E+00  0.000000000E+00  1.358960644E+03  1.358960644E+03  0.000000000E+00  0.00000E+00  9.000E+00
      21    -1     0     0   501   511  0.000000000E+00  0.000000000E+00 -2.061864660E+02  2.061864660E+02  0.000000000E+00  0.00000E+00  9.000E+00
      25     1     1     2     0     0 -1.133633551E+01  4.263490889E+01  1.168754059E+03  1.176247125E+03  1.250000000E+02  0.00000E+00  9.000E+00
      25     1     1     2     0     0  7.919765011E+00 -4.874262335E+01  1.621633348E+02  2.106193561E+02  1.250000000E+02  0.00000E+00  9.000E+00
      21     1     1     2   502   511  3.416570502E+00  6.107714461E+00 -1.781432162E+02  1.782806288E+02  1.907348633E-06  0.00000E+00  9.000E+00
#rwgt            1           1   4.7090401353985269E-002           7       36299           0
</event>
<event>
      5   9999  3.79277E-02  5.78225E+01 -1.00000E+00  1.35567E-01
      21    -1     0     0   502   501  0.000000000E+00  0.000000000E+00  1.901909344E+02  1.901909344E+02  0.000000000E+00  0.00000E+00  9.000E+00
      21    -1     0     0   512   502  0.000000000E+00  0.000000000E+00 -3.578788027E+02  3.578788027E+02  0.000000000E+00  0.00000E+00  9.000E+00
      25     1     1     2     0     0  1.331452571E+02 -1.212282421E+02 -4.964714692E+01  2.247527205E+02  1.250000000E+02  0.00000E+00  9.000E+00
      25     1     1     2     0     0 -1.851790521E+02  9.601071728E+01 -9.507224799E+01  2.610997348E+02  1.250000000E+02  0.00000E+00  9.000E+00
      21     1     1     2   512   501  5.203379503E+01  2.521752482E+01 -2.296847333E+01  6.221728177E+01  1.261592536E-06  0.00000E+00  9.000E+00
#rwgt            1           1   3.0811537351257526E-002           7       36697           0
</event>
<event>
      5   9999  3.79277E-02  1.73953E+01 -1.00000E+00  1.71529E-01
      21    -1     0     0   502   501  0.000000000E+00  0.000000000E+00  2.502417178E+01  2.502417178E+01  0.000000000E+00  0.00000E+00  9.000E+00
      21    -1     0     0   501   511  0.000000000E+00  0.000000000E+00 -1.931327674E+03  1.931327674E+03  0.000000000E+00  0.00000E+00  9.000E+00
      25     1     1     2     0     0  9.580724518E+01 -1.136774315E+02 -5.984752676E+02  6.292052388E+02  1.250000000E+02  0.00000E+00  9.000E+00
      25     1     1     2     0     0 -1.060324058E+02  1.277501720E+02 -1.226153240E+03  1.243639717E+03  1.250000000E+02  0.00000E+00  9.000E+00
      21     1     1     2   502   511  1.022516065E+01 -1.407274049E+01 -8.167499461E+01  8.350689002E+01  0.000000000E+00  0.00000E+00  9.000E+00
#rwgt            1           1  0.11912510072561527                7       36815           0
</event>
<event>
      5   9999  3.79277E-02  2.98843E+01 -1.00000E+00  1.53156E-01
      21    -1     0     0   502   512  0.000000000E+00  0.000000000E+00  1.190088494E+02  1.190088494E+02  0.000000000E+00  0.00000E+00  9.000E+00
      21    -1     0     0   501   502  0.000000000E+00  0.000000000E+00 -5.974335650E+02  5.974335650E+02  0.000000000E+00  0.00000E+00  9.000E+00
      25     1     1     2     0     0  8.913299045E+01 -4.222077068E+01 -4.939050634E+02  5.189359259E+02  1.250000000E+02  0.00000E+00  9.000E+00
      25     1     1     2     0     0 -5.959443851E+01  3.768816617E+01 -2.653357227E+01  1.459483656E+02  1.250000000E+02  0.00000E+00  9.000E+00
      21     1     1     2   501   512 -2.953855194E+01  4.532604515E+00  4.201392007E+01  5.155812288E+01  1.348699152E-06  0.00000E+00  9.000E+00
#rwgt            1           1   3.5492898065934073E-002           7       37038           0
</event>
<event>
      5   9999  3.79277E-02  7.95193E+01 -1.00000E+00  1.28476E-01
      21    -1     0     0   502   501  0.000000000E+00  0.000000000E+00  1.881109278E+02  1.881109278E+02  0.000000000E+00  0.00000E+00  9.000E+00
      21    -1     0     0   501   511  0.000000000E+00  0.000000000E+00 -5.886651356E+02  5.886651356E+02  0.000000000E+00  0.00000E+00  9.000E+00
      25     1     1     2     0     0 -9.248319719E+01 -1.889235073E+02 -1.611225992E+02  2.929688129E+02  1.250000000E+02  0.00000E+00  9.000E+00
      25     1     1     2     0     0  4.061741328E+01  2.492000295E+02 -6.072389196E+01  2.882062110E+02  1.250000000E+02  0.00000E+00  9.000E+00
      21     1     1     2   502   511  5.186578391E+01 -6.027652227E+01 -1.787077167E+02  1.956010395E+02  3.303624740E-06  0.00000E+00  9.000E+00
#rwgt            1           1   3.4237505787648531E-002           7       37166           0
</event>
<event>
      5   9999  3.79277E-02  1.24795E+02 -1.00000E+00  1.19650E-01
      21    -1     0     0   502   501  0.000000000E+00  0.000000000E+00  8.286351235E+01  8.286351235E+01  0.000000000E+00  0.00000E+00  9.000E+00
      21    -1     0     0   501   512  0.000000000E+00  0.000000000E+00 -7.021853737E+02  7.021853737E+02  0.000000000E+00  0.00000E+00  9.000E+00
      25     1     1     2     0     0 -2.804390175E+01  4.457116376E+01 -2.160789322E+02  2.551238013E+02  1.250000000E+02  0.00000E+00  9.000E+00
      25     1     1     2     0     0  8.355368013E+01  6.719897344E+01 -7.931956878E+01  1.827936363E+02  1.250000000E+02  0.00000E+00  9.000E+00
      21     1     1     2   502   512 -5.550977838E+01 -1.117701372E+02 -3.239233604E+02  3.471314484E+02  3.814697266E-06  0.00000E+00  9.000E+00
#rwgt            1           1   7.8370815584757850E-002           7       37485           0
</event>
<event>
      5   9999  3.79277E-02  5.77841E+01 -1.00000E+00  1.35583E-01
       3    -1     0     0   502     0  0.000000000E+00  0.000000000E+00  9.669154546E+02  9.669154546E+02  0.000000000E+00  0.00000E+00  9.000E+00
      21    -1     0     0   501   502  0.000000000E+00  0.000000000E+00 -3.691608479E+02  3.691608479E+02  0.000000000E+00  0.00000E+00  9.000E+00
      25     1     1     2     0     0 -2.714240809E+02 -1.214916065E+01 -2.923746642E+01  3.004970270E+02  1.250000000E+02  0.00000E+00  9.000E+00
      25     1     1     2     0     0  2.313998435E+02 -2.952888308E+01 -1.169871921E+02  2.893593711E+02  1.250000000E+02  0.00000E+00  9.000E+00
       3     1     1     2   501     0  4.002423737E+01  4.167804372E+01  7.439792652E+02  7.462199045E+02  0.000000000E+00  0.00000E+00  9.000E+00
#rwgt            1           1   4.3427269475692629E-002           7       37563           0
</event>
<event>
      5   9999  3.79277E-02  1.29905E+01 -1.00000E+00  1.83478E-01
       2    -1     0     0   502     0  0.000000000E+00  0.000000000E+00  1.752500065E+03  1.752500065E+03  0.000000000E+00  0.00000E+00  9.000E+00
      21    -1     0     0   501   502  0.000000000E+00  0.000000000E+00 -6.380948965E+01  6.380948965E+01  0.000000000E+00  0.00000E+00  9.000E+00
      25     1     1     2     0     0  1.897887407E+02 -3.881931372E+01  6.474570250E+02  6.872789131E+02  1.250000000E+02  0.00000E+00  9.000E+00
      25     1     1     2     0     0 -2.026288629E+02  3.684828824E+01  2.871211462E+02  3.748063567E+02  1.250000000E+02  0.00000E+00  9.000E+00
       2     1     1     2   501     0  1.284012222E+01  1.971025486E+00  7.541124040E+02  7.542242847E+02  1.525878906E-05  0.00000E+00  9.000E+00
#rwgt            1           1   4.8134030439195563E-002           7       37668           0
</event>
<event>
      5   9999  3.79277E-02  6.44142E+01 -1.00000E+00  1.33076E-01
      21    -1     0     0   502   501  0.000000000E+00  0.000000000E+00  1.097180739E+03  1.097180739E+03  0.000000000E+00  0.00000E+00  9.000E+00
      21    -1     0     0   501   511  0.000000000E+00  0.000000000E+00 -5.161024636E+01  5.161024636E+01  0.000000000E+00  0.00000E+00  9.000E+00
      25     1     1     2     0     0  3.235032097E+01 -1.499458943E+02  3.856870476E+02  4.334856551E+02  1.250000000E+02  0.00000E+00  9.000E+00
      25     1     1     2     0     0  2.011482869E+01  1.125748671E+02  6.120710450E+02  6.350855621E+02  1.250000000E+02  0.00000E+00  9.000E+00
      21     1     1     2   502   511 -5.246514966E+01  3.737102722E+01  4.781240003E+01  8.021976814E+01  1.168007728E-06  0.00000E+00  9.000E+00
#rwgt            1           1   4.3675777521412433E-002           7       37933           0
</event>
<event>
      5   9999  3.79277E-02  3.78488E+01 -1.00000E+00  1.46345E-01
      21    -1     0     0   502   501  0.000000000E+00  0.000000000E+00  3.386445930E+02  3.386445930E+02  0.000000000E+00  0.00000E+00  9.000E+00
      21    -1     0     0   512   502  0.000000000E+00  0.000000000E+00 -1.858673322E+02  1.858673322E+02  0.000000000E+00  0.00000E+00  9.000E+00
      25     1     1     2     0     0 -8.968705787E+01  1.913713024E+02  7.035263957E+01  2.554236434E+02  1.250000000E+02  0.00000E+00  9.000E+00
      25     1     1     2     0     0  8.303718707E+01 -1.541112109E+02  8.467740153E+01  2.311724510E+02  1.250000000E+02  0.00000E+00  9.000E+00
      21     1     1     2   512   501  6.649870802E+00 -3.726009149E+01 -2.252780288E+00  3.791583071E+01  5.255696800E-07  0.00000E+00  9.000E+00
#rwgt            1           1   6.0291409341572462E-002           7       38079           0
</event>
<event>
      5   9999  3.79277E-02  4.54844E+01 -1.00000E+00  1.41462E-01
      21    -1     0     0   502   501  0.000000000E+00  0.000000000E+00  9.564018400E+01  9.564018400E+01  0.000000000E+00  0.00000E+00  9.000E+00
      21    -1     0     0   511   502  0.000000000E+00  0.000000000E+00 -3.585007196E+02  3.585007196E+02  0.000000000E+00  0.00000E+00  9.000E+00
      25     1     1     2     0     0  6.040962013E-01  5.144442067E+01 -1.511474329E+01  1.360159873E+02  1.250000000E+02  0.00000E+00  9.000E+00
      25     1     1     2     0     0 -3.282434629E+01 -8.354869983E+01 -1.853270111E+02  2.408919343E+02  1.250000000E+02  0.00000E+00  9.000E+00
      21     1     1     2   511   501  3.222025009E+01  3.210427916E+01 -6.241878120E+01  7.723298196E+01  9.536743164E-07  0.00000E+00  9.000E+00
#rwgt            1           1   4.5698620897741696E-002           7       38256           0
</event>
<event>
      5   9999  3.79277E-02  8.97908E+01 -1.00000E+00  1.25969E-01
      21    -1     0     0   502   501  0.000000000E+00  0.000000000E+00  4.959582034E+02  4.959582034E+02  0.000000000E+00  0.00000E+00  9.000E+00
      21    -1     0     0   512   502  0.000000000E+00  0.000000000E+00 -2.131456816E+02  2.131456816E+02  0.000000000E+00  0.00000E+00  9.000E+00
      25     1     1     2     0     0 -8.477040028E+01 -1.979590053E+02 -2.446319602E+01  2.501943975E+02  1.250000000E+02  0.00000E+00  9.000E+00
      25     1     1     2     0     0  1.445054964E+02  1.309208490E+02  2.833795479E+02  3.659932723E+02  1.250000000E+02  0.00000E+00  9.000E+00
      21     1     1     2   512   501 -5.973509609E+01  6.703815636E+01  2.389616997E+01  9.291621523E+01  1.617033478E-06  0.00000E+00  9.000E+00
#rwgt            1           1   4.3582621413635426E-002           7       38300           0
</event>
<event>
      5   9999  3.79277E-02  3.14701E+01 -1.00000E+00  1.51611E-01
      21    -1     0     0   502   501  0.000000000E+00  0.000000000E+00  9.758843850E+02  9.758843850E+02  0.000000000E+00  0.00000E+00  9.000E+00
      21    -1     0     0   511   502  0.000000000E+00  0.000000000E+00 -1.596752783E+02  1.596752783E+02  0.000000000E+00  0.00000E+00  9.000E+00
      25     1     1     2     0     0  7.110288789E+01 -3.168783578E+02  6.161296774E+02  7.076074432E+02  1.250000000E+02  0.00000E+00  9.000E+00
      25     1     1     2     0     0 -1.008213034E+02  3.065255331E+02  1.754049633E+02  3.879622905E+02  1.250000000E+02  0.00000E+00  9.000E+00
      21     1     1     2   511   501  2.971841552E+01  1.035282466E+01  2.467446603E+01  3.998992965E+01  3.371747881E-07  0.00000E+00  9.000E+00
#rwgt            1           1   3.3692605644868992E-002           7       38605           0
</event>
<event>
      5   9999  3.79277E-02  4.26765E+01 -1.00000E+00  1.43117E-01
      21    -1     0     0   502   512  0.000000000E+00  0.000000000E+00  1.357815145E+03  1.357815145E+03  0.000000000E+00  0.00000E+00  9.000E+00
      21    -1     0     0   501   502  0.000000000E+00  0.000000000E+00 -1.636287161E+02  1.636287161E+02  0.000000000E+00  0.00000E+00  9.000E+00
      25     1     1     2     0     0 -8.472897669E+01 -3.800658294E+02  4.606390901E+02  6.159889654E+02  1.250000000E+02  0.00000E+00  9.000E+00
      25     1     1     2     0     0  7.127395325E+01  3.395658791E+02  3.157909987E+02  4.855243737E+02  1.250000000E+02  0.00000E+00  9.000E+00
      21     1     1     2   501   512  1.345502344E+01  4.049995038E+01  4.177563401E+02  4.199305220E+02  5.394796609E-06  0.00000E+00  9.000E+00
#rwgt            1           1   4.9553234667758697E-002           7       38794           0
</event>
<event>
      5   9999  3.79277E-02  9.26507E+01 -1.00000E+00  1.25338E-01
      21    -1     0     0   502   501  0.000000000E+00  0.000000000E+00  1.484430223E+02  1.484430223E+02  0.000000000E+00  0.00000E+00  9.000E+00
      21    -1     0     0   501   511  0.000000000E+00  0.000000000E+00 -6.529013137E+02  6.529013137E+02  0.000000000E+00  0.00000E+00  9.000E+00
      25     1     1     2     0     0 -1.868449042E+02 -1.333454628E+02 -1.238229497E+02  2.892216340E+02  1.250000000E+02  0.00000E+00  9.000E+00
      25     1     1     2     0     0  1.744605946E+02  4.152615484E+01 -1.543378977E+02  2.675931749E+02  1.250000000E+02  0.00000E+00  9.000E+00
      21     1     1     2   502   511  1.238430962E+01  9.181930800E+01 -2.262974440E+02  2.445295271E+02  3.814697266E-06  0.00000E+00  9.000E+00
#rwgt            1           1   3.5676193972081140E-002           7       38994           0
</event>
<event>
      5   9999  3.79277E-02  2.46480E+01 -1.00000E+00  1.59214E-01
      21    -1     0     0   502   501  0.000000000E+00  0.000000000E+00  1.464770813E+03  1.464770813E+03  0.000000000E+00  0.00000E+00  9.000E+00
      -4    -1     0     0     0   502  0.000000000E+00  0.000000000E+00 -2.618631052E+02  2.618631052E+02  0.000000000E+00  0.00000E+00  9.000E+00
      25     1     1     2     0     0 -1.261406724E+02  1.100700516E+02  4.441287566E+02  4.908179274E+02  1.250000000E+02  0.00000E+00  9.000E+00
      25     1     1     2     0     0  1.040802642E+02 -9.907638688E+01  9.875363771E+02  1.005734522E+03  1.250000000E+02  0.00000E+00  9.000E+00
      -4     1     1     2     0   501  2.206040820E+01 -1.099366476E+01 -2.287574262E+02  2.300814689E+02  9.344061824E-06  0.00000E+00  9.000E+00
#rwgt            1           1   6.0739695461438564E-002           7       39098           0
</event>
<event>
      5   9999  3.79277E-02  1.76534E+01 -1.00000E+00  1.70969E-01
      21    -1     0     0   511   501  0.000000000E+00  0.000000000E+00  1.032084541E+02  1.032084541E+02  0.000000000E+00  0.00000E+00  9.000E+00
      21    -1     0     0   501   502  0.000000000E+00  0.000000000E+00 -7.645764100E+02  7.645764100E+02  0.000000000E+00  0.00000E+00  9.000E+00
      25     1     1     2     0     0 -1.643688082E+02 -8.730426127E+01 -8.389275416E+01  2.393786401E+02  1.250000000E+02  0.00000E+00  9.000E+00
      25     1     1     2     0     0  1.528101013E+02  1.006473499E+02 -5.646763674E+02  6.066013650E+02  1.250000000E+02  0.00000E+00  9.000E+00
      21     1     1     2   511   502  1.155870684E+01 -1.334308861E+01 -1.279883430E+01  2.180485902E+01  4.460403188E-07  0.00000E+00  9.000E+00
#rwgt            1           1   3.5568364037084847E-002           7       39224           0
</event>
<event>
      5   9999  3.79277E-02  2.93222E+02 -1.00000E+00  1.05915E-01
      21    -1     0     0   512   501  0.000000000E+00  0.000000000E+00  1.466688398E+03  1.466688398E+03  0.000000000E+00  0.00000E+00  9.000E+00
      21    -1     0     0   501   502  0.000000000E+00  0.000000000E+00 -2.666847258E+03  2.666847258E+03  0.000000000E+00  0.00000E+00  9.000E+00
      25     1     1     2     0     0  4.787938603E+02  5.049121544E+02 -9.554161295E+02  1.188538945E+03  1.250000000E+02  0.00000E+00  9.000E+00
      25     1     1     2     0     0 -7.390532323E+02 -3.698403509E+02 -1.466814692E+03  1.688239291E+03  1.250000000E+02  0.00000E+00  9.000E+00
      21     1     1     2   512   502  2.602593721E+02 -1.350718035E+02  1.222071961E+03  1.256757419E+03  1.525878906E-05  0.00000E+00  9.000E+00
#rwgt            2          11   3.3304744658605775E-003           7       39471           0
</event>
<event>
      5   9999  3.79277E-02  2.80211E+01 -1.00000E+00  1.55127E-01
      21    -1     0     0   511   501  0.000000000E+00  0.000000000E+00  4.828171925E+02  4.828171925E+02  0.000000000E+00  0.00000E+00  9.000E+00
      21    -1     0     0   501   502  0.000000000E+00  0.000000000E+00 -1.493794952E+02  1.493794952E+02  0.000000000E+00  0.00000E+00  9.000E+00
      25     1     1     2     0     0 -1.352590849E+02 -6.989707975E+01  2.043083153E+02  2.838089314E+02  1.250000000E+02  0.00000E+00  9.000E+00
      25     1     1     2     0     0  1.623603434E+02  6.277634702E+01 -1.983044998E+00  2.143144496E+02  1.250000000E+02  0.00000E+00  9.000E+00
      21     1     1     2   511   502 -2.710125844E+01  7.120732725E+00  1.311124271E+02  1.340733067E+02  0.000000000E+00  0.00000E+00  9.000E+00
#rwgt            1           1   3.7022141963121383E-002           7       39491           0
</event>
<event>
      5   9999  3.79277E-02  6.24048E+01 -1.00000E+00  1.33798E-01
      21    -1     0     0   502   501  0.000000000E+00  0.000000000E+00  4.712347234E+02  4.712347234E+02  0.000000000E+00  0.00000E+00  9.000E+00
      21    -1     0     0   501   512  0.000000000E+00  0.000000000E+00 -5.983018478E+02  5.983018478E+02  0.000000000E+00  0.00000E+00  9.000E+00
      25     1     1     2     0     0  1.925957778E+02  3.351508581E+02 -1.064042939E+00  4.062577550E+02  1.250000000E+02  0.00000E+00  9.000E+00
      25     1     1     2     0     0 -2.046116510E+02 -3.963878727E+02  5.995559811E+01  4.671284054E+02  1.250000000E+02  0.00000E+00  9.000E+00
      21     1     1     2   502   512  1.201587322E+01  6.123701464E+01 -1.859586796E+02  1.961504109E+02  2.697398305E-06  0.00000E+00  9.000E+00
#rwgt            1           1   3.6859081050733704E-002           7       39699           0
</event>
<event>
      5   9999  3.79277E-02  1.72899E+01 -1.00000E+00  1.71761E-01
      21    -1     0     0   502   511  0.000000000E+00  0.000000000E+00  2.649048307E+02  2.649048307E+02  0.000000000E+00  0.00000E+00  9.000E+00
      21    -1     0     0   501   502  0.000000000E+00  0.000000000E+00 -1.481105446E+02  1.481105446E+02  0.000000000E+00  0.00000E+00  9.000E+00
      25     1     1     2     0     0 -2.002785247E+00 -1.267755148E+02  4.334965869E+01  1.832491070E+02  1.250000000E+02  0.00000E+00  9.000E+00
      25     1     1     2     0     0  1.126852621E+01  1.413730109E+02  4.165746505E+01  1.935811258E+02  1.250000000E+02  0.00000E+00  9.000E+00
      21     1     1     2   501   511 -9.265740959E+00 -1.459749609E+01  3.178716236E+01  3.618514251E+01  3.371747881E-07  0.00000E+00  9.000E+00
#rwgt            1           1   3.4932664801226428E-002           7       39773           0
</event>
<event>
      5   9999  3.79277E-02  6.30837E+01 -1.00000E+00  1.33550E-01
      21    -1     0     0   502   512  0.000000000E+00  0.000000000E+00  3.450477714E+02  3.450477714E+02  0.000000000E+00  0.00000E+00  9.000E+00
      21    -1     0     0   501   502  0.000000000E+00  0.000000000E+00 -7.606372320E+02  7.606372320E+02  0.000000000E+00  0.00000E+00  9.000E+00
      25     1     1     2     0     0  8.317740038E+01 -2.557616885E+02 -3.776507629E+02  4.801849852E+02  1.250000000E+02  0.00000E+00  9.000E+00
      25     1     1     2     0     0 -2.353406344E+01  2.352134265E+02 -2.729869222E+02  3.821335733E+02  1.250000000E+02  0.00000E+00  9.000E+00
      21     1     1     2   501   512 -5.964333693E+01  2.054826197E+01  2.350482245E+02  2.433664450E+02  2.697398305E-06  0.00000E+00  9.000E+00
#rwgt            1           1   3.4970910326457209E-002           7       39973           0
</event>
<event>
      5   9999  3.79277E-02  3.41675E+01 -1.00000E+00  1.49217E-01
       2    -1     0     0   502     0  0.000000000E+00  0.000000000E+00  1.822274755E+03  1.822274755E+03  0.000000000E+00  0.00000E+00  9.000E+00
      21    -1     0     0   501   502  0.000000000E+00  0.000000000E+00 -1.509776902E+02  1.509776902E+02  0.000000000E+00  0.00000E+00  9.000E+00
      25     1     1     2     0     0 -1.142309050E+02  1.927534412E+02  3.798552125E+01  2.593655501E+02  1.250000000E+02  0.00000E+00  9.000E+00
      25     1     1     2     0     0  1.481792110E+02 -1.888892063E+02  4.172893037E+02  4.973847342E+02  1.250000000E+02  0.00000E+00  9.000E+00
       2     1     1     2   501     0 -3.394830607E+01 -3.864234921E+00  1.216022240E+03  1.216502161E+03  0.000000000E+00  0.00000E+00  9.000E+00
#rwgt            1           1  0.22583452601289855                7       40113           0
</event>
<event>
      5   9999  3.79277E-02  4.49419E+01 -1.00000E+00  1.41771E-01
      21    -1     0     0   502   501  0.000000000E+00  0.000000000E+00  2.531279229E+02  2.531279229E+02  0.000000000E+00  0.00000E+00  9.000E+00
      21    -1     0     0   511   502  0.000000000E+00  0.000000000E+00 -1.830904341E+02  1.830904341E+02  0.000000000E+00  0.00000E+00  9.000E+00
      25     1     1     2     0     0 -4.745366986E+01  7.749094342E+01  1.487407175E+02  2.144889231E+02  1.250000000E+02  0.00000E+00  9.000E+00
      25     1     1     2     0     0  7.492696172E+01 -4.192414821E+01 -2.841547009E+01  1.542858475E+02  1.250000000E+02  0.00000E+00  9.000E+00
      21     1     1     2   511   501 -2.747329186E+01 -3.556679522E+01 -5.028775855E+01  6.744358641E+01  1.168007728E-06  0.00000E+00  9.000E+00
#rwgt            1           1   4.3386511312630119E-002           7       40236           0
</event>
<event>
      5   9999  3.79277E-02  8.69718E+01 -1.00000E+00  1.26617E-01
      21    -1     0     0   512   501  0.000000000E+00  0.000000000E+00  3.498852544E+02  3.498852544E+02  0.000000000E+00  0.00000E+00  9.000E+00
      21    -1     0     0   501   502  0.000000000E+00  0.000000000E+00 -2.068345830E+02  2.068345830E+02  0.000000000E+00  0.00000E+00  9.000E+00
      25     1     1     2     0     0 -1.593815428E+02  1.167494124E+02  9.194984789E+01  2.512223637E+02  1.250000000E+02  0.00000E+00  9.000E+00
      25     1     1     2     0     0  1.579439199E+02 -2.978951018E+01 -1.948524276E+00  2.036234110E+02  1.250000000E+02  0.00000E+00  9.000E+00
      21     1     1     2   512   502  1.437622884E+00 -8.695990225E+01  5.304934776E+01  1.018740627E+02  1.168007728E-06  0.00000E+00  9.000E+00
#rwgt            1           1   2.6669495204069034E-002           7       40534           0
</event>
<event>
      5   9999  3.79277E-02  3.26428E+01 -1.00000E+00  1.50536E-01
      21    -1     0     0   511   501  0.000000000E+00  0.000000000E+00  1.610589177E+02  1.610589177E+02  0.000000000E+00  0.00000E+00  9.000E+00
      21    -1     0     0   501   502  0.000000000E+00  0.000000000E+00 -3.119805545E+02  3.119805545E+02  0.000000000E+00  0.00000E+00  9.000E+00
      25     1     1     2     0     0 -9.818572610E+01 -5.486938144E+01 -1.838682050E+02  2.491658136E+02  1.250000000E+02  0.00000E+00  9.000E+00
      25     1     1     2     0     0  1.298459783E+02  4.692059974E+01  3.996970481E+01  1.904838525E+02  1.250000000E+02  0.00000E+00  9.000E+00
      21     1     1     2   511   502 -3.166025222E+01  7.948781697E+00 -7.023136607E+00  3.338980606E+01  5.527507362E-07  0.00000E+00  9.000E+00
#rwgt            1           1   4.4584431915462568E-002           7       40741           0
</event>
<event>
      5   9999  3.79277E-02  9.92739E+01 -1.00000E+00  1.23970E-01
      21    -1     0     0   502   512  0.000000000E+00  0.000000000E+00  6.463935745E+01  6.463935745E+01  0.000000000E+00  0.00000E+00  9.000E+00
      21    -1     0     0   501   502  0.000000000E+00  0.000000000E+00 -1.616027593E+03  1.616027593E+03  0.000000000E+00  0.00000E+00  9.000E+00
      25     1     1     2     0     0  7.816190529E+01  4.201257528E+01 -3.137585254E+02  3.492044561E+02  1.250000000E+02  0.00000E+00  9.000E+00
      25     1     1     2     0     0 -2.706042506E+01 -1.271239887E+02 -1.216720114E+03  1.230010411E+03  1.250000000E+02  0.00000E+00  9.000E+00
      21     1     1     2   501   512 -5.110148023E+01  8.511141337E+01 -2.090959581E+01  1.014520831E+02  2.929736549E-06  0.00000E+00  9.000E+00
#rwgt            1           1   6.2277222939339412E-002           7       41177           0
</event>
<event>
      5   9999  3.79277E-02  2.71592E+01 -1.00000E+00  1.56102E-01
      21    -1     0     0   502   511  0.000000000E+00  0.000000000E+00  2.708011461E+03  2.708011461E+03  0.000000000E+00  0.00000E+00  9.000E+00
      21    -1     0     0   501   502  0.000000000E+00  0.000000000E+00 -3.995169794E+01  3.995169794E+01  0.000000000E+00  0.00000E+00  9.000E+00
      25     1     1     2     0     0 -1.084677154E+02 -7.621792473E+01  5.862290439E+02  6.138924249E+02  1.250000000E+02  0.00000E+00  9.000E+00
      25     1     1     2     0     0  9.124277686E+01  9.721611000E+01  2.949411637E+02  3.469747922E+02  1.250000000E+02  0.00000E+00  9.000E+00
      21     1     1     2   501   511  1.722493849E+01 -2.099818527E+01  1.786889555E+03  1.787095942E+03  2.157918644E-05  0.00000E+00  9.000E+00
#rwgt            1           1   4.5850215858278032E-002           7       41334           0
</event>
<event>
      5   9999  3.79277E-02  5.39133E+01 -1.00000E+00  1.37234E-01
      21    -1     0     0   502   501  0.000000000E+00  0.000000000E+00  2.925651339E+02  2.925651339E+02  0.000000000E+00  0.00000E+00  9.000E+00
      21    -1     0     0   512   502  0.000000000E+00  0.000000000E+00 -2.611932371E+02  2.611932371E+02  0.000000000E+00  0.00000E+00  9.000E+00
      25     1     1     2     0     0 -3.802107953E+01  2.040340016E+02  4.963019377E+01  2.473128230E+02  1.250000000E+02  0.00000E+00  9.000E+00
      25     1     1     2     0     0  9.109224090E+01 -1.945418690E+02  2.840875591E+00  2.485506100E+02  1.250000000E+02  0.00000E+00  9.000E+00
      21     1     1     2   512   501 -5.307116137E+01 -9.492132584E+00 -2.109917261E+01  5.789493790E+01  6.743495762E-07  0.00000E+00  9.000E+00
#rwgt            1           1   4.0265047601002385E-002           7       41491           0
</event>
<event>
      5   9999  3.79277E-02  4.86317E+01 -1.00000E+00  1.39767E-01
      21    -1     0     0   502   501  0.000000000E+00  0.000000000E+00  1.703301659E+02  1.703301659E+02  0.000000000E+00  0.00000E+00  9.000E+00
      21    -1     0     0   501   511  0.000000000E+00  0.000000000E+00 -3.172833352E+02  3.172833352E+02  0.000000000E+00  0.00000E+00  9.000E+00
      25     1     1     2     0     0  4.802095965E+01  1.211876425E+02  1.013463745E+01  1.808871696E+02  1.250000000E+02  0.00000E+00  9.000E+00
      25     1     1     2     0     0 -4.231768804E+01 -1.694837251E+02 -1.269405695E+02  2.495083726E+02  1.250000000E+02  0.00000E+00  9.000E+00
      21     1     1     2   502   511 -5.703271612E+00  4.829608267E+01 -3.014723728E+01  5.721795893E+01  5.840038640E-07  0.00000E+00  9.000E+00
#rwgt            1           1   2.9321943446659473E-002           7       41646           0
</event>
<event>
      5   9999  3.79277E-02  9.64887E+00 -1.00000E+00  1.97569E-01
      21    -1     0     0   512   501  0.000000000E+00  0.000000000E+00  2.236678580E+03  2.236678580E+03  0.000000000E+00  0.00000E+00  9.000E+00
      21    -1     0     0   501   502  0.000000000E+00  0.000000000E+00 -1.215697278E+01  1.215697278E+01  0.000000000E+00  0.00000E+00  9.000E+00
      25     1     1     2     0     0 -6.064990451E+01 -4.856619119E+01  1.042429506E+03  1.052768427E+03  1.250000000E+02  0.00000E+00  9.000E+00
      25     1     1     2     0     0  5.188909628E+01  4.452281701E+01  7.246775824E+02  7.385508499E+02  1.250000000E+02  0.00000E+00  9.000E+00
      21     1     1     2   512   502  8.760808226E+00  4.043374186E+00  4.574145190E+02  4.575162760E+02  5.394796609E-06  0.00000E+00  9.000E+00
#rwgt            1           1  0.23708329809973830                7       41739           0
</event>
<event>
      5   9999  3.79277E-02  6.20508E+01 -1.00000E+00  1.33928E-01
      21    -1     0     0   502   501  0.000000000E+00  0.000000000E+00  2.906590972E+02  2.906590972E+02  0.000000000E+00  0.00000E+00  9.000E+00
      21    -1     0     0   511   502  0.000000000E+00  0.000000000E+00 -3.467847036E+02  3.467847036E+02  0.000000000E+00  0.00000E+00  9.000E+00
      25     1     1     2     0     0 -1.711641473E+01 -5.606126592E+01 -3.805406057E+01  1.432094575E+02  1.250000000E+02  0.00000E+00  9.000E+00
      25     1     1     2     0     0  3.862001134E+01  1.142669469E+02  2.015153580E+02  2.660486420E+02  1.250000000E+02  0.00000E+00  9.000E+00
      21     1     1     2   511   501 -2.150359661E+01 -5.820568099E+01 -2.195869037E+02  2.281857012E+02  2.697398305E-06  0.00000E+00  9.000E+00
#rwgt            1           1   4.7846166044055283E-002           7       41963           0
</event>
<event>
      5   9999  3.79277E-02  1.47634E+02 -1.00000E+00  1.16668E-01
      21    -1     0     0   502   501  0.000000000E+00  0.000000000E+00  1.881277024E+03  1.881277024E+03  0.000000000E+00  0.00000E+00  9.000E+00
      21    -1     0     0   501   512  0.000000000E+00  0.000000000E+00 -5.475512382E+02  5.475512382E+02  0.000000000E+00  0.00000E+00  9.000E+00
      25     1     1     2     0     0  2.945646842E+02  2.627419614E+02  9.337225847E+02  1.021403229E+03  1.250000000E+02  0.00000E+00  9.000E+00
      25     1     1     2     0     0 -1.546478133E+02 -2.156337610E+02  8.682482644E+02  9.164572623E+02  1.250000000E+02  0.00000E+00  9.000E+00
      21     1     1     2   502   512 -1.399168709E+02 -4.710820040E+01 -4.682450629E+02  4.909677711E+02  5.394796609E-06  0.00000E+00  9.000E+00
#rwgt            1           1   3.9500319421645634E-002           7       42066           0
</event>
<event>
      5   9999  3.79277E-02  7.14459E+00 -1.00000E+00  2.14306E-01
      21    -1     0     0   502   501  0.000000000E+00  0.000000000E+00  1.265081585E+02  1.265081585E+02  0.000000000E+00  0.00000E+00  9.000E+00
      21    -1     0     0   511   502  0.000000000E+00  0.000000000E+00 -3.444860990E+02  3.444860990E+02  0.000000000E+00  0.00000E+00  9.000E+00
      25     1     1     2     0     0  1.001862567E+02  1.244337457E+02 -1.058771907E+02  2.288143846E+02  1.250000000E+02  0.00000E+00  9.000E+00
      25     1     1     2     0     0 -9.428964413E+01 -1.203995075E+02 -8.654165904E+01  2.156409913E+02  1.250000000E+02  0.00000E+00  9.000E+00
      21     1     1     2   511   501 -5.896612528E+00 -4.034238190E+00 -2.555909076E+01  2.653888162E+01  3.371747881E-07  0.00000E+00  9.000E+00
#rwgt            1           1   3.4140596122373863E-002           7       42117           0
</event>
<event>
      5   9999 -3.79277E-02  7.14889E+01 -1.00000E+00  1.30759E-01
      21    -1     0     0   512   501  0.000000000E+00  0.000000000E+00  5.014950057E+02  5.014950057E+02  0.000000000E+00  0.00000E+00  9.000E+00
      21    -1     0     0   501   502  0.000000000E+00  0.000000000E+00 -4.398628064E+02  4.398628064E+02  0.000000000E+00  0.00000E+00  9.000E+00
      25     1     1     2     0     0  3.373663220E+02  3.146403532E+01  1.650250963E+02  3.970696452E+02  1.250000000E+02  0.00000E+00  9.000E+00
      25     1     1     2     0     0 -3.107525188E+02 -9.781439100E+01 -2.163793798E+02  4.105847282E+02  1.250000000E+02  0.00000E+00  9.000E+00
      21     1     1     2   512   502 -2.661380315E+01  6.635035569E+01  1.129864828E+02  1.337034386E+02  0.000000000E+00  0.00000E+00  9.000E+00
#rwgt            1           1 -0.25652952612859636                7       42416           0
</event>
<event>
      5   9999  3.79277E-02  3.57681E+01 -1.00000E+00  1.47918E-01
      21    -1     0     0   502   501  0.000000000E+00  0.000000000E+00  6.368350595E+02  6.368350595E+02  0.000000000E+00  0.00000E+00  9.000E+00
      21    -1     0     0   501   511  0.000000000E+00  0.000000000E+00 -1.115808786E+02  1.115808786E+02  0.000000000E+00  0.00000E+00  9.000E+00
      25     1     1     2     0     0  1.681911840E+02  6.038392259E+01  3.866257759E+02  4.438907333E+02  1.250000000E+02  0.00000E+00  9.000E+00
      25     1     1     2     0     0 -1.544903558E+02 -2.734391486E+01  1.652811647E+02  2.599188779E+02  1.250000000E+02  0.00000E+00  9.000E+00
      21     1     1     2   502   511 -1.370082819E+01 -3.304000773E+01 -2.665275965E+01  4.460632691E+01  8.920806376E-07  0.00000E+00  9.000E+00
#rwgt            1           1   1.9236266987706644E-002           7       42488           0
</event>
<event>
      5   9999  3.79277E-02  2.28219E+01 -1.00000E+00  1.61774E-01
      21    -1     0     0   502   512  0.000000000E+00  0.000000000E+00  1.172193174E+02  1.172193174E+02  0.000000000E+00  0.00000E+00  9.000E+00
      21    -1     0     0   501   502  0.000000000E+00  0.000000000E+00 -4.129041945E+02  4.129041945E+02  0.000000000E+00  0.00000E+00  9.000E+00
      25     1     1     2     0     0 -5.669725243E+01 -9.563314436E+01 -3.001453400E+02  3.436167951E+02  1.250000000E+02  0.00000E+00  9.000E+00
      25     1     1     2     0     0  6.474638215E+01  7.427779920E+01 -1.001326615E+01  1.594821337E+02  1.250000000E+02  0.00000E+00  9.000E+00
      21     1     1     2   501   512 -8.049129721E+00  2.135534515E+01  1.447372910E+01  2.702458307E+01  2.384185791E-07  0.00000E+00  9.000E+00
#rwgt            1           1   4.2227643836028485E-002           7       42612           0
</event>
<event>
      5   9999  3.79277E-02  1.50942E+01 -1.00000E+00  1.77128E-01
      21    -1     0     0   502   501  0.000000000E+00  0.000000000E+00  5.269525193E+01  5.269525193E+01  0.000000000E+00  0.00000E+00  9.000E+00
      21    -1     0     0   511   502  0.000000000E+00  0.000000000E+00 -7.107049536E+02  7.107049536E+02  0.000000000E+00  0.00000E+00  9.000E+00
      25     1     1     2     0     0  1.291489846E+02 -2.355624809E+00 -3.012322998E+02  3.507861280E+02  1.250000000E+02  0.00000E+00  9.000E+00
      25     1     1     2     0     0 -1.328915025E+02  1.697846408E+01 -2.817964282E+02  3.361289137E+02  1.250000000E+02  0.00000E+00  9.000E+00
      21     1     1     2   511   501  3.742517932E+00 -1.462283927E+01 -7.498097370E+01  7.648516383E+01  9.536743164E-07  0.00000E+00  9.000E+00
#rwgt            1           1   4.1503634487718349E-002           7       42898           0
</event>
<event>
      5   9999  3.79277E-02  5.70532E+01 -1.00000E+00  1.35883E-01
      21    -1     0     0   512   501  0.000000000E+00  0.000000000E+00  1.959577396E+02  1.959577396E+02  0.000000000E+00  0.00000E+00  9.000E+00
      21    -1     0     0   501   502  0.000000000E+00  0.000000000E+00 -3.496693746E+02  3.496693746E+02  0.000000000E+00  0.00000E+00  9.000E+00
      25     1     1     2     0     0  1.231783790E+02 -3.246551172E+00  3.097789453E+01  1.782360320E+02  1.250000000E+02  0.00000E+00  9.000E+00
      25     1     1     2     0     0 -1.801820820E+02  5.622965539E+00 -2.111706716E+02  3.044917945E+02  1.250000000E+02  0.00000E+00  9.000E+00
      21     1     1     2   512   502  5.700370297E+01 -2.376414366E+00  2.648114204E+01  6.289928760E+01  0.000000000E+00  0.00000E+00  9.000E+00
#rwgt            1           1   2.4295527818094020E-002           7       43035           0
</event>
<event>
      5   9999  3.79277E-02  6.42112E+01 -1.00000E+00  1.33148E-01
       2    -1     0     0   502     0  0.000000000E+00  0.000000000E+00  2.033034708E+03  2.033034708E+03  0.000000000E+00  0.00000E+00  9.000E+00
      21    -1     0     0   501   502  0.000000000E+00  0.000000000E+00 -4.659210683E+01  4.659210683E+01  0.000000000E+00  0.00000E+00  9.000E+00
      25     1     1     2     0     0 -1.125435023E+02 -8.303512017E+01  1.810738172E+02  2.607174684E+02  1.250000000E+02  0.00000E+00  9.000E+00
      25     1     1     2     0     0  8.725634926E+01  2.401271767E+01  1.401057858E+03  1.409531270E+03  1.250000000E+02  0.00000E+00  9.000E+00
       2     1     1     2   501     0  2.528715304E+01  5.902240249E+01  4.043109262E+02  4.093780761E+02  5.394796609E-06  0.00000E+00  9.000E+00
#rwgt            1           1   4.3087028722355668E-002           7       43176           0
</event>
<event>
      5   9999  3.79277E-02  2.64702E+01 -1.00000E+00  1.56914E-01
      21    -1     0     0   502   501  0.000000000E+00  0.000000000E+00  1.511827512E+02  1.511827512E+02  0.000000000E+00  0.00000E+00  9.000E+00
       1    -1     0     0   501     0  0.000000000E+00  0.000000000E+00 -5.960723891E+02  5.960723891E+02  0.000000000E+00  0.00000E+00  9.000E+00
      25     1     1     2     0     0 -3.368161621E+01  9.550807792E+01  7.091694949E+01  1.758137024E+02  1.250000000E+02  0.00000E+00  9.000E+00
      25     1     1     2     0     0  2.755577503E+01 -1.212596457E+02 -2.592704415E+02  3.135432733E+02  1.250000000E+02  0.00000E+00  9.000E+00
       1     1     1     2   502     0  6.125841182E+00  2.575156776E+01 -2.565361458E+02  2.578981646E+02  0.000000000E+00  0.00000E+00  9.000E+00
#rwgt            1           1   4.0703608463840732E-002           7       43286           0
</event>
<event>
      5   9999  3.79277E-02  9.48560E+01 -1.00000E+00  1.24868E-01
      21    -1     0     0   502   511  0.000000000E+00  0.000000000E+00  2.074175812E+02  2.074175812E+02  0.000000000E+00  0.00000E+00  9.000E+00
      21    -1     0     0   501   502  0.000000000E+00  0.000000000E+00 -9.498519193E+02  9.498519193E+02  0.000000000E+00  0.00000E+00  9.000E+00
      25     1     1     2     0     0 -2.751209556E+02 -3.400526902E+01 -3.286485677E+02  4.477530341E+02  1.250000000E+02  0.00000E+00  9.000E+00
      25     1     1     2     0     0  2.141871892E+02  1.067014766E+02 -5.083399530E+02  5.755830652E+02  1.250000000E+02  0.00000E+00  9.000E+00
      21     1     1     2   501   511  6.093376644E+01 -7.269620754E+01  9.455418262E+01  1.339334011E+02  1.348699152E-06  0.00000E+00  9.000E+00
#rwgt            1           1   4.0038724058832464E-002           7       43564           0
</event>
<event>
      5   9999  3.79277E-02  3.07226E+01 -1.00000E+00  1.52325E-01
      21    -1     0     0   502   501  0.000000000E+00  0.000000000E+00  6.634303205E+01  6.634303205E+01  0.000000000E+00  0.00000E+00  9.000E+00
      21    -1     0     0   501   512  0.000000000E+00  0.000000000E+00 -1.643777584E+03  1.643777584E+03  0.000000000E+00  0.00000E+00  9.000E+00
      25     1     1     2     0     0  5.173211444E+01  9.476429303E+01 -4.501001450E+02  4.794492918E+02  1.250000000E+02  0.00000E+00  9.000E+00
      25     1     1     2     0     0 -7.360416401E+01 -1.163395682E+02 -1.166287261E+02  2.194988106E+02  1.250000000E+02  0.00000E+00  9.000E+00
      21     1     1     2   502   512  2.187204957E+01  2.157527520E+01 -1.010705681E+03  1.011172513E+03  1.078959322E-05  0.00000E+00  9.000E+00
#rwgt            1           1   4.2693738406007771E-002           7       43639           0
</event>
<event>
      5   9999  3.79277E-02  1.36013E+02 -1.00000E+00  1.18104E-01
      21    -1     0     0   502   501  0.000000000E+00  0.000000000E+00  4.020538156E+02  4.020538156E+02  0.000000000E+00  0.00000E+00  9.000E+00
      21    -1     0     0   501   511  0.000000000E+00  0.000000000E+00 -1.774971346E+03  1.774971346E+03  0.000000000E+00  0.00000E+00  9.000E+00
      25     1     1     2     0     0 -5.126891231E+02 -4.015881993E+02 -7.260048603E+02  9.832757883E+02  1.250000000E+02  0.00000E+00  9.000E+00
      25     1     1     2     0     0  4.408623472E+02  5.170896209E+02 -1.893419613E+02  7.163914179E+02  1.250000000E+02  0.00000E+00  9.000E+00
      21     1     1     2   502   511  7.182677583E+01 -1.155014217E+02 -4.575707091E+02  4.773579558E+02  7.629394531E-06  0.00000E+00  9.000E+00
#rwgt            1           1   1.7877331912827421E-002           7       43754           0
</event>
<event>
      5   9999  3.79277E-02  5.89728E+01 -1.00000E+00  1.35105E-01
      21    -1     0     0   502   512  0.000000000E+00  0.000000000E+00  1.388860629E+03  1.388860629E+03  0.000000000E+00  0.00000E+00  9.000E+00
      21    -1     0     0   501   502  0.000000000E+00  0.000000000E+00 -7.714963207E+01  7.714963207E+01  0.000000000E+00  0.00000E+00  9.000E+00
      25     1     1     2     0     0  1.658701945E+02  1.383923917E+02  7.182476353E+02  7.603749346E+02  1.250000000E+02  0.00000E+00  9.000E+00
      25     1     1     2     0     0 -2.104961089E+02 -1.769452649E+02  3.870877618E+02  4.909991588E+02  1.250000000E+02  0.00000E+00  9.000E+00
      21     1     1     2   501   512  4.462591446E+01  3.855287320E+01  2.063756003E+02  2.146361681E+02  2.697398305E-06  0.00000E+00  9.000E+00
#rwgt            1           1   4.0356776260107016E-002           7       44039           0
</event>
<event>
      5   9999  3.79277E-02  1.34528E+02 -1.00000E+00  1.18299E-01
      21    -1     0     0   502   501  0.000000000E+00  0.000000000E+00  3.337255344E+02  3.337255344E+02  0.000000000E+00  0.00000E+00  9.000E+00
       2    -1     0     0   501     0  0.000000000E+00  0.000000000E+00 -2.118653389E+03  2.118653389E+03  0.000000000E+00  0.00000E+00  9.000E+00
      25     1     1     2     0     0 -1.329392515E+02 -7.696450646E+01  5.908346446E+01  2.066693872E+02  1.250000000E+02  0.00000E+00  9.000E+00
      25     1     1     2     0     0  1.966219558E+02 -4.153573901E+01  1.280358232E+02  2.690791392E+02  1.250000000E+02  0.00000E+00  9.000E+00
       2     1     1     2   502     0 -6.368270438E+01  1.185002455E+02 -1.972047142E+03  1.976630397E+03  2.157918644E-05  0.00000E+00  9.000E+00
#rwgt            1           1   3.5548654090126766E-002           7       44263           0
</event>
<event>
      5   9999  3.79277E-02  2.93219E+01 -1.00000E+00  1.53733E-01
       2    -1     0     0   502     0  0.000000000E+00  0.000000000E+00  2.322574501E+03  2.322574501E+03  0.000000000E+00  0.00000E+00  9.000E+00
      21    -1     0     0   501   502  0.000000000E+00  0.000000000E+00 -3.290011528E+01  3.290011528E+01  0.000000000E+00  0.00000E+00  9.000E+00
      25     1     1     2     0     0  2.839241911E+01 -1.426984983E+02  3.493889995E+02  3.985808122E+02  1.250000000E+02  0.00000E+00  9.000E+00
      25     1     1     2     0     0 -2.051034718E+01  1.709411667E+02  1.427213449E+03  1.442984680E+03  1.250000000E+02  0.00000E+00  9.000E+00
       2     1     1     2   501     0 -7.882071930E+00 -2.824266845E+01  5.130719372E+02  5.139091244E+02  1.078959322E-05  0.00000E+00  9.000E+00
#rwgt            1           1   3.5465145286483125E-002           7       44327           0
</event>
<event>
      5   9999  3.79277E-02  9.70850E+00 -1.00000E+00  1.97254E-01
      21    -1     0     0   502   501  0.000000000E+00  0.000000000E+00  7.043291602E+02  7.043291602E+02  0.000000000E+00  0.00000E+00  9.000E+00
      21    -1     0     0   501   511  0.000000000E+00  0.000000000E+00 -5.933028745E+01  5.933028745E+01  0.000000000E+00  0.00000E+00  9.000E+00
      25     1     1     2     0     0 -5.208511265E+01 -5.613136354E+01  5.728351926E+02  5.912941288E+02  1.250000000E+02  0.00000E+00  9.000E+00
      25     1     1     2     0     0  4.459394643E+01  6.230691666E+01  6.543953221E+01  1.605556112E+02  1.250000000E+02  0.00000E+00  9.000E+00
      21     1     1     2   502   511  7.491166211E+00 -6.175553126E+00  6.724147994E+00  1.180970761E+01  1.460009660E-07  0.00000E+00  9.000E+00
#rwgt            1           1   4.3503400373596686E-002           7       44516           0
</event>
<event>
      5   9999  3.79277E-02  2.46384E+01 -1.00000E+00  1.59226E-01
      21    -1     0     0   512   501  0.000000000E+00  0.000000000E+00  3.603258437E+02  3.603258437E+02  0.000000000E+00  0.00000E+00  9.000E+00
      21    -1     0     0   501   502  0.000000000E+00  0.000000000E+00 -2.214609082E+02  2.214609082E+02  0.000000000E+00  0.00000E+00  9.000E+00
      25     1     1     2     0     0  2.399968362E+02  6.448567644E+01  9.945934745E+01  2.954218097E+02  1.250000000E+02  0.00000E+00  9.000E+00
      25     1     1     2     0     0 -2.167925160E+02 -5.620254409E+01  2.469130413E+01  2.576671912E+02  1.250000000E+02  0.00000E+00  9.000E+00
      21     1     1     2   512   502 -2.320432022E+01 -8.283132349E+00  1.471428389E+01  2.869775093E+01  3.371747881E-07  0.00000E+00  9.000E+00
#rwgt            1           1   3.9354862250109035E-002           7       44756           0
</event>
<event>
      5   9999  3.79277E-02  9.18853E+01 -1.00000E+00  1.25504E-01
      21    -1     0     0   502   501  0.000000000E+00  0.000000000E+00  5.423733377E+01  5.423733377E+01  0.000000000E+00  0.00000E+00  9.000E+00
      -5    -1     0     0     0   502  0.000000000E+00  0.000000000E+00 -1.480539120E+03  1.480539120E+03  0.000000000E+00  0.00000E+00  9.000E+00
      25     1     1     2     0     0  7.363892302E+01  7.513095156E+01 -7.006304525E+02  7.194271206E+02  1.250000000E+02  0.00000E+00  9.000E+00
      25     1     1     2     0     0 -1.034825643E+02  1.177278880E+01 -1.185435321E+02  2.013077462E+02  1.250000000E+02  0.00000E+00  9.000E+00
      -5     1     1     2     0   501  2.984364132E+01 -8.690374036E+01 -6.071278014E+02  6.140415868E+02  1.078959322E-05  0.00000E+00  9.000E+00
#rwgt            1           1   4.4222851394072678E-002           7       45200           0
</event>
<event>
      5   9999  3.79277E-02  1.23854E+02 -1.00000E+00  1.19788E-01
      21    -1     0     0   511   501  0.000000000E+00  0.000000000E+00  2.204338485E+03  2.204338485E+03  0.000000000E+00  0.00000E+00  9.000E+00
      21    -1     0     0   501   502  0.000000000E+00  0.000000000E+00 -8.738612295E+01  8.738612295E+01  0.000000000E+00  0.00000E+00  9.000E+00
      25     1     1     2     0     0  1.408478109E+02  1.851028075E+02  4.175765962E+02  4.940610983E+02  1.250000000E+02  0.00000E+00  9.000E+00
      25     1     1     2     0     0 -2.171377831E+01 -2.189676087E+02  2.985634711E+02  3.913865712E+02  1.250000000E+02  0.00000E+00  9.000E+00
      21     1     1     2   511   502 -1.191340325E+02  3.386480124E+01  1.400812294E+03  1.406276938E+03  2.642899792E-05  0.00000E+00  9.000E+00
#rwgt            2          11   7.4607834332565920E-004           7       45354           0
</event>
<event>
      5   9999  3.79277E-02  3.63178E+01 -1.00000E+00  1.47490E-01
      21    -1     0     0   502   501  0.000000000E+00  0.000000000E+00  1.695907695E+02  1.695907695E+02  0.000000000E+00  0.00000E+00  9.000E+00
      21    -1     0     0   512   502  0.000000000E+00  0.000000000E+00 -3.007122557E+02  3.007122557E+02  0.000000000E+00  0.00000E+00  9.000E+00
      25     1     1     2     0     0  4.138853848E+01 -1.275266251E+02 -1.652992276E+02  2.468296697E+02  1.250000000E+02  0.00000E+00  9.000E+00
      25     1     1     2     0     0 -3.972605105E+01  9.124687155E+01  6.818502257E+01  1.737191642E+02  1.250000000E+02  0.00000E+00  9.000E+00
      21     1     1     2   512   501 -1.662487429E+00  3.627975352E+01 -3.400728122E+01  4.975419134E+01  6.743495762E-07  0.00000E+00  9.000E+00
#rwgt            1           1   4.4666125104646959E-002           7       45374           0
</event>
<event>
      5   9999  3.79277E-02  9.66023E+00 -1.00000E+00  1.97509E-01
      21    -1     0     0   502   501  0.000000000E+00  0.000000000E+00  6.415095713E+02  6.415095713E+02  0.000000000E+00  0.00000E+00  9.000E+00
      21    -1     0     0   511   502  0.000000000E+00  0.000000000E+00 -1.271625578E+02  1.271625578E+02  0.000000000E+00  0.00000E+00  9.000E+00
      25     1     1     2     0     0 -5.387701818E+01  2.011878553E+02  3.868051136E+02  4.567521014E+02  1.250000000E+02  0.00000E+00  9.000E+00
      25     1     1     2     0     0  4.477616101E+01 -1.979483483E+02  1.539840891E+02  2.837684846E+02  1.250000000E+02  0.00000E+00  9.000E+00
      21     1     1     2   511   501  9.100857174E+00 -3.239507058E+00 -2.644218923E+01  2.815154310E+01  4.768371582E-07  0.00000E+00  9.000E+00
#rwgt            1           1  0.33197175222321701                7       45510           0
</event>
<event>
      5   9999  3.79277E-02  1.11417E+01 -1.00000E+00  1.90482E-01
      21    -1     0     0   502   501  0.000000000E+00  0.000000000E+00  3.810946467E+01  3.810946467E+01  0.000000000E+00  0.00000E+00  9.000E+00
      21    -1     0     0   512   502  0.000000000E+00  0.000000000E+00 -1.214386220E+03  1.214386220E+03  0.000000000E+00  0.00000E+00  9.000E+00
      25     1     1     2     0     0 -3.581811998E+01  1.306199711E+02 -7.504812983E+02  7.727817892E+02  1.250000000E+02  0.00000E+00  9.000E+00
      25     1     1     2     0     0  4.055195416E+01 -1.205339788E+02 -2.703069998E+02  3.238267672E+02  1.250000000E+02  0.00000E+00  9.000E+00
      21     1     1     2   512   501 -4.733834178E+00 -1.008599234E+01 -1.554884571E+02  1.558871281E+02  2.697398305E-06  0.00000E+00  9.000E+00
#rwgt            1           1   4.5916440280233256E-002           7       45729           0
</event>
<event>
      5   9999  3.79277E-02  1.48346E+01 -1.00000E+00  1.77838E-01
      21    -1     0     0   502   501  0.000000000E+00  0.000000000E+00  1.546656506E+02  1.546656506E+02  0.000000000E+00  0.00000E+00  9.000E+00
      21    -1     0     0   511   502  0.000000000E+00  0.000000000E+00 -4.958942212E+02  4.958942212E+02  0.000000000E+00  0.00000E+00  9.000E+00
      25     1     1     2     0     0  9.749260206E+01  3.435634750E+01 -2.746654637E+02  3.189847692E+02  1.250000000E+02  0.00000E+00  9.000E+00
      25     1     1     2     0     0 -9.255633384E+01 -2.036709514E+01  8.559330063E+01  1.786972485E+02  1.250000000E+02  0.00000E+00  9.000E+00
      21     1     1     2   511   501 -4.936268217E+00 -1.398925235E+01 -1.521564076E+02  1.528778542E+02  3.303624740E-06  0.00000E+00  9.000E+00
#rwgt            1           1   4.9952246969499597E-002           7       45967           0
</event>
<event>
      5   9999  3.79277E-02  1.50200E+01 -1.00000E+00  1.77329E-01
      21    -1     0     0   502   501  0.000000000E+00  0.000000000E+00  2.307966878E+01  2.307966878E+01  0.000000000E+00  0.00000E+00  9.000E+00
       2    -1     0     0   501     0  0.000000000E+00  0.000000000E+00 -2.713126402E+03  2.713126402E+03  0.000000000E+00  0.00000E+00  9.000E+00
      25     1     1     2     0     0 -1.759792832E+02 -6.742887709E+00 -7.457046741E+02  7.763469814E+02  1.250000000E+02  0.00000E+00  9.000E+00
      25     1     1     2     0     0  1.909958455E+02  6.421629513E+00 -1.878322659E+03  1.892152653E+03  1.250000000E+02  0.00000E+00  9.000E+00
       2     1     1     2   502     0 -1.501656224E+01  3.212581959E-01 -6.601939993E+01  6.770643630E+01  9.536743164E-07  0.00000E+00  9.000E+00
#rwgt            1           1   6.2228514148984733E-002           7       46320           0
</event>
<event>
      5   9999  3.79277E-02  5.30695E+01 -1.00000E+00  1.37615E-01
      21    -1     0     0   511   501  0.000000000E+00  0.000000000E+00  4.370689366E+02  4.370689366E+02  0.000000000E+00  0.00000E+00  9.000E+00
      21    -1     0     0   501   502  0.000000000E+00  0.000000000E+00 -1.096240431E+02  1.096240431E+02  0.000000000E+00  0.00000E+00  9.000E+00
      25     1     1     2     0     0  9.771333728E+01 -3.176923550E+01  2.317076636E+02  2.826139097E+02  1.250000000E+02  0.00000E+00  9.000E+00
      25     1     1     2     0     0 -1.418670749E+02  2.327525660E+00  5.426421612E+01  1.967264331E+02  1.250000000E+02  0.00000E+00  9.000E+00
      21     1     1     2   511   502  4.415373766E+01  2.944170984E+01  4.147301377E+01  6.735263692E+01  8.259061849E-07  0.00000E+00  9.000E+00
#rwgt            1           1   3.5791985849852541E-002           7       46552           0
</event>
<event>
      5   9999  3.79277E-02  2.59177E+01 -1.00000E+00  1.57587E-01
      21    -1     0     0   502   501  0.000000000E+00  0.000000000E+00  8.337521924E+01  8.337521924E+01  0.000000000E+00  0.00000E+00  9.000E+00
      21    -1     0     0   501   512  0.000000000E+00  0.000000000E+00 -8.211215540E+02  8.211215540E+02  0.000000000E+00  0.00000E+00  9.000E+00
      25     1     1     2     0     0  1.464774006E+02 -1.356441467E+02 -2.334143979E+02  3.316055557E+02  1.250000000E+02  0.00000E+00  9.000E+00
      25     1     1     2     0     0 -1.244334859E+02  1.492747548E+02 -3.710691612E+02  4.371315216E+02  1.250000000E+02  0.00000E+00  9.000E+00
      21     1     1     2   502   512 -2.204391469E+01 -1.363060811E+01 -1.332627757E+02  1.357596959E+02  0.000000000E+00  0.00000E+00  9.000E+00
#rwgt            1           1   4.6644748359961775E-002           7       46661           0
</event>
<event>
      5   9999  3.79277E-02  4.69677E+01 -1.00000E+00  1.40644E-01
      21    -1     0     0   511   501  0.000000000E+00  0.000000000E+00  3.912818700E+02  3.912818700E+02  0.000000000E+00  0.00000E+00  9.000E+00
      21    -1     0     0   501   502  0.000000000E+00  0.000000000E+00 -9.424184695E+01  9.424184695E+01  0.000000000E+00  0.00000E+00  9.000E+00
      25     1     1     2     0     0 -7.729860753E+01 -2.610973065E+01  1.721102970E+02  2.278239388E+02  1.250000000E+02  0.00000E+00  9.000E+00
      25     1     1     2     0     0  6.995906344E+01 -2.028096557E+01  2.436995892E+01  1.467122456E+02  1.250000000E+02  0.00000E+00  9.000E+00
      21     1     1     2   511   502  7.339544093E+00  4.639069622E+01  1.005597672E+02  1.109875325E+02  1.907348633E-06  0.00000E+00  9.000E+00
#rwgt            1           1   4.7672052350570059E-002           7       46818           0
</event>
<event>
      5   9999  3.79277E-02  1.22990E+02 -1.00000E+00  1.19916E-01
      21    -1     0     0   502   501  0.000000000E+00  0.000000000E+00  2.913548895E+02  2.913548895E+02  0.000000000E+00  0.00000E+00  9.000E+00
      21    -1     0     0   512   502  0.000000000E+00  0.000000000E+00 -5.965778681E+02  5.965778681E+02  0.000000000E+00  0.00000E+00  9.000E+00
      25     1     1     2     0     0 -1.583643157E+02 -1.543210586E+02  8.922781048E+01  2.692226732E+02  1.250000000E+02  0.00000E+00  9.000E+00
      25     1     1     2     0     0  2.794945883E+02  1.756287900E+02 -2.774946372E+02  4.489888311E+02  1.250000000E+02  0.00000E+00  9.000E+00
      21     1     1     2   512   501 -1.211302727E+02 -2.130773139E+01 -1.169561518E+02  1.697212533E+02  2.336015456E-06  0.00000E+00  9.000E+00
#rwgt            1           1   3.5609995325530198E-002           7       47054           0
</event>
<event>
      5   9999  3.79277E-02  6.03363E+01 -1.00000E+00  1.34574E-01
      21    -1     0     0   502   501  0.000000000E+00  0.000000000E+00  6.419069134E+02  6.419069134E+02  0.000000000E+00  0.00000E+00  9.000E+00
      21    -1     0     0   511   502  0.000000000E+00  0.000000000E+00 -1.121100060E+02  1.121100060E+02  0.000000000E+00  0.00000E+00  9.000E+00
      25     1     1     2     0     0  1.276918063E+02  1.911378136E+02  3.007822240E+02  3.986650317E+02  1.250000000E+02  0.00000E+00  9.000E+00
      25     1     1     2     0     0 -8.703429011E+01 -1.465572070E+02  1.776863988E+02  2.761366308E+02  1.250000000E+02  0.00000E+00  9.000E+00
      21     1     1     2   511   501 -4.065751621E+01 -4.458060667E+01  5.132828464E+01  7.921525686E+01  1.348699152E-06  0.00000E+00  9.000E+00
#rwgt            1           1   5.0369028894108506E-002           7       47173           0
</event>
<event>
      5   9999  3.79277E-02  6.14360E+01 -1.00000E+00  1.34157E-01
      21    -1     0     0   512   501  0.000000000E+00  0.000000000E+00  1.347710177E+02  1.347710177E+02  0.000000000E+00  0.00000E+00  9.000E+00
      21    -1     0     0   501   502  0.000000000E+00  0.000000000E+00 -8.314330689E+02  8.314330689E+02  0.000000000E+00  0.00000E+00  9.000E+00
      25     1     1     2     0     0  2.343550186E+02 -4.944004498E+01 -2.395713236E+02  3.610900330E+02  1.250000000E+02  0.00000E+00  9.000E+00
      25     1     1     2     0     0 -2.759187927E+02  9.468194688E+01 -4.377803079E+02  5.407147577E+02  1.250000000E+02  0.00000E+00  9.000E+00
      21     1     1     2   512   502  4.156377407E+01 -4.524190191E+01 -1.931041971E+01  6.439929590E+01  4.768371582E-07  0.00000E+00  9.000E+00
#rwgt            1           1   4.0265104017259537E-002           7       47362           0
</event>
<event>
      5   9999  3.79277E-02  1.58482E+02 -1.00000E+00  1.15455E-01
      21    -1     0     0   502   501  0.000000000E+00  0.000000000E+00  9.094197519E+02  9.094197519E+02  0.000000000E+00  0.00000E+00  9.000E+00
       1    -1     0     0   501     0  0.000000000E+00  0.000000000E+00 -2.365171914E+02  2.365171914E+02  0.000000000E+00  0.00000E+00  9.000E+00
      25     1     1     2     0     0  5.693698503E+01 -9.962042564E+01  3.391510207E+02  3.792287757E+02  1.250000000E+02  0.00000E+00  9.000E+00
      25     1     1     2     0     0  1.197638845E+01  2.423347579E+02  4.792791609E+02  5.515460841E+02  1.250000000E+02  0.00000E+00  9.000E+00
       1     1     1     2   502     0 -6.891337348E+01 -1.427143323E+02 -1.455276211E+02  2.151620836E+02  4.672030912E-06  0.00000E+00  9.000E+00
#rwgt            1           1   3.9547885501953733E-002           7       47428           0
</event>
<event>
      5   9999  3.79277E-02  2.16935E+02 -1.00000E+00  1.10378E-01
      21    -1     0     0   502   511  0.000000000E+00  0.000000000E+00  6.696774826E+02  6.696774826E+02  0.000000000E+00  0.00000E+00  9.000E+00
      21    -1     0     0   501   502  0.000000000E+00  0.000000000E+00 -3.128728981E+02  3.128728981E+02  0.000000000E+00  0.00000E+00  9.000E+00
      25     1     1     2     0     0  4.892858938E+01 -8.285043161E+01 -1.831289652E+02  2.417010938E+02  1.250000000E+02  0.00000E+00  9.000E+00
      25     1     1     2     0     0 -1.709297597E+02 -9.652727161E+01  4.487988193E+02  5.055490848E+02  1.250000000E+02  0.00000E+00  9.000E+00
      21     1     1     2   501   511  1.220011703E+02  1.793777032E+02  9.113473036E+01  2.353002020E+02  3.814697266E-06  0.00000E+00  9.000E+00
#rwgt            1           1   3.5785715220096860E-002           7       47476           0
</event>
<event>
      5   9999  3.79277E-02  9.11476E+01 -1.00000E+00  1.25666E-01
      21    -1     0     0   502   501  0.000000000E+00  0.000000000E+00  1.502954160E+02  1.502954160E+02  0.000000000E+00  0.00000E+00  9.000E+00
      21    -1     0     0   512   502  0.000000000E+00  0.000000000E+00 -3.840044408E+02  3.840044408E+02  0.000000000E+00  0.00000E+00  9.000E+00
      25     1     1     2     0     0 -8.654638871E+01 -1.300457074E+02 -7.769119108E+01  2.146231222E+02  1.250000000E+02  0.00000E+00  9.000E+00
      25     1     1     2     0     0 -4.464594591E+00  1.350336496E+02 -7.881334782E+01  2.002262793E+02  1.250000000E+02  0.00000E+00  9.000E+00
      21     1     1     2   512   501  9.101098330E+01 -4.987942235E+00 -7.720448582E+01  1.194504553E+02  0.000000000E+00  0.00000E+00  9.000E+00
#rwgt            1           1   3.4382872860636231E-002           7       47520           0
</event>
<event>
      5   9999  3.79277E-02  2.46111E+02 -1.00000E+00  1.08463E-01
      21    -1     0     0   502   501  0.000000000E+00  0.000000000E+00  4.540606358E+02  4.540606358E+02  0.000000000E+00  0.00000E+00  9.000E+00
      -4    -1     0     0     0   502  0.000000000E+00  0.000000000E+00 -1.721924793E+03  1.721924793E+03  0.000000000E+00  0.00000E+00  9.000E+00
      25     1     1     2     0     0  2.375469040E+02 -1.759980501E+01  1.491632880E+02  3.075922158E+02  1.250000000E+02  0.00000E+00  9.000E+00
      25     1     1     2     0     0 -1.770999712E+02 -2.209728191E+02  1.047913451E+02  3.268021000E+02  1.250000000E+02  0.00000E+00  9.000E+00
      -4     1     1     2     0   501 -6.044693282E+01  2.385726241E+02 -1.521818790E+03  1.541591113E+03  3.051757812E-05  0.00000E+00  9.000E+00
#rwgt            2           7   4.0111703765724363E-005           7       47682           0
</event>
<event>
      5   9999  3.79277E-02  1.99556E+01 -1.00000E+00  1.66449E-01
      21    -1     0     0   502   511  0.000000000E+00  0.000000000E+00  3.089958985E+02  3.089958985E+02  0.000000000E+00  0.00000E+00  9.000E+00
      21    -1     0     0   501   502  0.000000000E+00  0.000000000E+00 -5.201804352E+02  5.201804352E+02  0.000000000E+00  0.00000E+00  9.000E+00
      25     1     1     2     0     0  3.290112524E+02 -5.575814293E+01  9.983696716E+00  3.564856925E+02  1.250000000E+02  0.00000E+00  9.000E+00
      25     1     1     2     0     0 -3.487331052E+02  5.271249976E+01 -2.405757456E+02  4.448539937E+02  1.250000000E+02  0.00000E+00  9.000E+00
      21     1     1     2   501   511  1.972185279E+01  3.045643170E+00  1.940751215E+01  2.783664756E+01  2.384185791E-07  0.00000E+00  9.000E+00
#rwgt            1           1   7.1037539866459748E-002           7       47746           0
</event>
<event>
      5   9999  3.79277E-02  1.66849E+02 -1.00000E+00  1.14590E-01
      21    -1     0     0   512   501  0.000000000E+00  0.000000000E+00  2.114325743E+02  2.114325743E+02  0.000000000E+00  0.00000E+00  9.000E+00
      21    -1     0     0   501   502  0.000000000E+00  0.000000000E+00 -1.290136284E+03  1.290136284E+03  0.000000000E+00  0.00000E+00  9.000E+00
      25     1     1     2     0     0 -2.516962295E+02 -8.505210206E+01 -9.518145359E+02  9.960726694E+02  1.250000000E+02  0.00000E+00  9.000E+00
      25     1     1     2     0     0  1.696217123E+02 -6.021480187E+01 -2.232413752E+02  3.128243265E+02  1.250000000E+02  0.00000E+00  9.000E+00
      21     1     1     2   512   502  8.207451726E+01  1.452669039E+02  9.635220157E+01  1.926718623E+02  5.722045898E-06  0.00000E+00  9.000E+00
#rwgt            1           1   4.2868524507230069E-002           7       47884           0
</event>
<event>
      5   9999  3.79277E-02  1.09064E+01 -1.00000E+00  1.91500E-01
      21    -1     0     0   502   501  0.000000000E+00  0.000000000E+00  1.191115373E+02  1.191115373E+02  0.000000000E+00  0.00000E+00  9.000E+00
      21    -1     0     0   511   502  0.000000000E+00  0.000000000E+00 -1.804495047E+02  1.804495047E+02  0.000000000E+00  0.00000E+00  9.000E+00
      25     1     1     2     0     0  2.657016493E+01 -1.478531084E+01 -7.960293565E+01  1.512818775E+02  1.250000000E+02  0.00000E+00  9.000E+00
      25     1     1     2     0     0 -2.700394835E+01  3.887568031E+00  3.086658017E+01  1.316133435E+02  1.250000000E+02  0.00000E+00  9.000E+00
      21     1     1     2   511   501  4.337834197E-01  1.089774281E+01 -1.260161192E+01  1.666582099E+01  0.000000000E+00  0.00000E+00  9.000E+00
#rwgt            1           1   4.0437781382628595E-002           7       48142           0
</event>
<event>
      5   9999  3.79277E-02  1.73296E+02 -1.00000E+00  1.13962E-01
      21    -1     0     0   502   501  0.000000000E+00  0.000000000E+00  3.024739280E+02  3.024739280E+02  0.000000000E+00  0.00000E+00  9.000E+00
      21    -1     0     0   501   512  0.000000000E+00  0.000000000E+00 -3.505341881E+02  3.505341881E+02  0.000000000E+00  0.00000E+00  9.000E+00
      25     1     1     2     0     0  1.486704092E+01 -2.108980059E+01 -1.036134905E+02  1.643975791E+02  1.250000000E+02  0.00000E+00  9.000E+00
      25     1     1     2     0     0  1.318574193E+00  1.936287540E+02  1.651760819E+02  2.835524132E+02  1.250000000E+02  0.00000E+00  9.000E+00
      21     1     1     2   502   512 -1.618561511E+01 -1.725389534E+02 -1.096228515E+02  2.050581239E+02  1.907348633E-06  0.00000E+00  9.000E+00
#rwgt            1           1   4.9326093775951374E-002           7       48431           0
</event>
<event>
      5   9999  3.79277E-02  1.41462E+01 -1.00000E+00  1.79815E-01
      21    -1     0     0   502   501  0.000000000E+00  0.000000000E+00  7.517685204E+02  7.517685204E+02  0.000000000E+00  0.00000E+00  9.000E+00
      21    -1     0     0   511   502  0.000000000E+00  0.000000000E+00 -7.009282751E+01  7.009282751E+01  0.000000000E+00  0.00000E+00  9.000E+00
      25     1     1     2     0     0 -1.636380428E+01 -1.878736063E+02  3.786206861E+02  4.410701644E+02  1.250000000E+02  0.00000E+00  9.000E+00
      25     1     1     2     0     0  2.187348723E+01  1.748444925E+02  2.892447874E+02  3.610215964E+02  1.250000000E+02  0.00000E+00  9.000E+00
      21     1     1     2   511   501 -5.509682960E+00  1.302911385E+01  1.381021937E+01  1.976958707E+01  3.371747881E-07  0.00000E+00  9.000E+00
#rwgt            1           1   3.8539650723865955E-002           7       48554           0
</event>
<event>
      5   9999  3.79277E-02  2.02664E+02 -1.00000E+00  1.11439E-01
      21    -1     0     0   502   501  0.000000000E+00  0.000000000E+00  1.095329638E+03  1.095329638E+03  0.000000000E+00  0.00000E+00  9.000E+00
      21    -1     0     0   512   502  0.000000000E+00  0.000000000E+00 -1.032789499E+03  1.032789499E+03  0.000000000E+00  0.00000E+00  9.000E+00
      25     1     1     2     0     0 -1.202962130E+02  1.384198354E+01  2.842598762E+02  3.333038503E+02  1.250000000E+02  0.00000E+00  9.000E+00
      25     1     1     2     0     0  8.115301269E+01  1.850059647E+02  7.579986084E+02  7.943550269E+02  1.250000000E+02  0.00000E+00  9.000E+00
      21     1     1     2   512   501  3.914320030E+01 -1.988479483E+02 -9.797183454E+02  1.000460261E+03  1.078959322E-05  0.00000E+00  9.000E+00
#rwgt            1           1   4.4995871601020060E-002           7       48794           0
</event>
<event>
      5   9999  3.79277E-02  4.12703E+01 -1.00000E+00  1.44003E-01
      21    -1     0     0   502   501  0.000000000E+00  0.000000000E+00  2.108703805E+02  2.108703805E+02  0.000000000E+00  0.00000E+00  9.000E+00
      21    -1     0     0   501   511  0.000000000E+00  0.000000000E+00 -5.133495279E+02  5.133495279E+02  0.000000000E+00  0.00000E+00  9.000E+00
      25     1     1     2     0     0  2.001683917E+02  1.287639649E+02 -3.392108957E+01  2.709671272E+02  1.250000000E+02  0.00000E+00  9.000E+00
      25     1     1     2     0     0 -2.266302249E+02 -1.604343284E+02 -1.755203879E+02  3.514723874E+02  1.250000000E+02  0.00000E+00  9.000E+00
      21     1     1     2   502   511  2.646183317E+01  3.167036354E+01 -9.303766995E+01  1.017803938E+02  1.348699152E-06  0.00000E+00  9.000E+00
#rwgt            1           1   4.1442370473769127E-002           7       48874           0
</event>
<event>
      5   9999  3.79277E-02  4.86225E+01 -1.00000E+00  1.39771E-01
      21    -1     0     0   502   501  0.000000000E+00  0.000000000E+00  3.429690652E+02  3.429690652E+02  0.000000000E+00  0.00000E+00  9.000E+00
      21    -1     0     0   501   512  0.000000000E+00  0.000000000E+00 -4.907003946E+02  4.907003946E+02  0.000000000E+00  0.00000E+00  9.000E+00
      25     1     1     2     0     0  1.620899575E+02 -2.335287335E+02 -1.760110046E+02  3.569505532E+02  1.250000000E+02  0.00000E+00  9.000E+00
      25     1     1     2     0     0 -1.215405509E+02  2.603595592E+02  1.487116711E+02  3.468419910E+02  1.250000000E+02  0.00000E+00  9.000E+00
      21     1     1     2   502   512 -4.054940659E+01 -2.683082566E+01 -1.204319959E+02  1.298769156E+02  1.348699152E-06  0.00000E+00  9.000E+00
#rwgt            1           1   2.6883484300025851E-002           7       49041           0
</event>
<event>
      5   9999 -3.79277E-02  2.63048E+02 -1.00000E+00  1.07481E-01
      21    -1     0     0   502   511  0.000000000E+00  0.000000000E+00  1.471615339E+02  1.471615339E+02  0.000000000E+00  0.00000E+00  9.000E+00
      21    -1     0     0   501   502  0.000000000E+00  0.000000000E+00 -1.248121130E+03  1.248121130E+03  0.000000000E+00  0.00000E+00  9.000E+00
      25     1     1     2     0     0  2.632483119E+02  2.688835437E+01 -4.705705785E+02  5.541518986E+02  1.250000000E+02  0.00000E+00  9.000E+00
      25     1     1     2     0     0 -1.126511765E+02  1.887847425E+02 -4.681068394E+02  5.320516701E+02  1.250000000E+02  0.00000E+00  9.000E+00
      21     1     1     2   501   511 -1.505971354E+02 -2.156730969E+02 -1.622821786E+02  3.090790957E+02  2.697398305E-06  0.00000E+00  9.000E+00
#rwgt            1           1  -9.5604977824622336E-002           7       49246           0
</event>
<event>
      5   9999  3.79277E-02  2.78075E+01 -1.00000E+00  1.55365E-01
      21    -1     0     0   502   501  0.000000000E+00  0.000000000E+00  5.603135305E+02  5.603135305E+02  0.000000000E+00  0.00000E+00  9.000E+00
      21    -1     0     0   501   512  0.000000000E+00  0.000000000E+00 -8.203544151E+01  8.203544151E+01  0.000000000E+00  0.00000E+00  9.000E+00
      25     1     1     2     0     0 -8.651165028E+01  6.785278793E+01  4.968289539E+01  1.737286866E+02  1.250000000E+02  0.00000E+00  9.000E+00
      25     1     1     2     0     0  7.500047755E+01 -4.253977411E+01  4.036296993E+02  4.312500877E+02  1.250000000E+02  0.00000E+00  9.000E+00
      21     1     1     2   502   512  1.151117273E+01 -2.531301382E+01  2.496549427E+01  3.737019762E+01  6.743495762E-07  0.00000E+00  9.000E+00
#rwgt            1           1   2.4925160048676440E-002           7       49274           0
</event>
<event>
      5   9999  3.79277E-02  1.18660E+01 -1.00000E+00  1.87542E-01
      21    -1     0     0   502   501  0.000000000E+00  0.000000000E+00  3.718874236E+03  3.718874236E+03  0.000000000E+00  0.00000E+00  9.000E+00
      21    -1     0     0   511   502  0.000000000E+00  0.000000000E+00 -1.954335969E+01  1.954335969E+01  0.000000000E+00  0.00000E+00  9.000E+00
      25     1     1     2     0     0  1.432541116E+02  1.396050696E+02  2.612240140E+03  2.622867680E+03  1.250000000E+02  0.00000E+00  9.000E+00
      25     1     1     2     0     0 -1.532174654E+02 -1.331604303E+02  1.042132562E+03  1.069052182E+03  1.250000000E+02  0.00000E+00  9.000E+00
      21     1     1     2   511   501  9.963353772E+00 -6.444639318E+00  4.495817386E+01  4.649773318E+01  6.743495762E-07  0.00000E+00  9.000E+00
#rwgt            1           1   5.6452543623263960E-003           7       49428           0
</event>
<event>
      5   9999  3.79277E-02  2.02121E+01 -1.00000E+00  1.65992E-01
      21    -1     0     0   502   501  0.000000000E+00  0.000000000E+00  4.610048785E+02  4.610048785E+02  0.000000000E+00  0.00000E+00  9.000E+00
      21    -1     0     0   501   512  0.000000000E+00  0.000000000E+00 -7.562373547E+01  7.562373547E+01  0.000000000E+00  0.00000E+00  9.000E+00
      25     1     1     2     0     0  1.097689998E+02  2.897695893E+01  2.146703645E+02  2.731249949E+02  1.250000000E+02  0.00000E+00  9.000E+00
      25     1     1     2     0     0 -1.073346730E+02 -4.904191604E+01  1.720955424E+02  2.432441515E+02  1.250000000E+02  0.00000E+00  9.000E+00
      21     1     1     2   502   512 -2.434326812E+00  2.006495712E+01 -1.384763893E+00  2.025946747E+01  2.457562462E-07  0.00000E+00  9.000E+00
#rwgt            1           1   4.8734642692013011E-002           7       49694           0
</event>
<event>
      5   9999  3.79277E-02  2.80904E+01 -1.00000E+00  1.55051E-01
      21    -1     0     0   502   501  0.000000000E+00  0.000000000E+00  2.640802196E+01  2.640802196E+01  0.000000000E+00  0.00000E+00  9.000E+00
      21    -1     0     0   511   502  0.000000000E+00  0.000000000E+00 -1.951435283E+03  1.951435283E+03  0.000000000E+00  0.00000E+00  9.000E+00
      25     1     1     2     0     0 -1.156739422E+02 -4.501932370E+01 -8.698393404E+02  8.874979879E+02  1.250000000E+02  0.00000E+00  9.000E+00
      25     1     1     2     0     0  1.132223771E+02  7.300251240E+01 -4.725073475E+02  5.069880344E+02  1.250000000E+02  0.00000E+00  9.000E+00
      21     1     1     2   511   501  2.451565069E+00 -2.798318869E+01 -5.826805728E+02  5.833572825E+02  1.525878906E-05  0.00000E+00  9.000E+00
#rwgt            1           1  0.25613855671861768                7       50036           0
</event>
<event>
      5   9999  3.79277E-02  3.62165E+01 -1.00000E+00  1.47568E-01
      21    -1     0     0   502   501  0.000000000E+00  0.000000000E+00  6.506908855E+01  6.506908855E+01  0.000000000E+00  0.00000E+00  9.000E+00
      21    -1     0     0   501   512  0.000000000E+00  0.000000000E+00 -1.217310797E+03  1.217310797E+03  0.000000000E+00  0.00000E+00  9.000E+00
      25     1     1     2     0     0  6.442608700E+01  1.646330355E+02 -1.797991816E+02  2.814382753E+02  1.250000000E+02  0.00000E+00  9.000E+00
      25     1     1     2     0     0 -3.452110369E+01 -1.442045253E+02 -8.901597408E+02  9.110411713E+02  1.250000000E+02  0.00000E+00  9.000E+00
      21     1     1     2   502   512 -2.990498331E+01 -2.042851018E+01 -8.228278632E+01  8.990043926E+01  9.536743164E-07  0.00000E+00  9.000E+00
#rwgt            1           1   3.9868723681037770E-002           7       50348           0
</event>
<event>
      5   9999  3.79277E-02  1.80927E+01 -1.00000E+00  1.70042E-01
      21    -1     0     0   502   501  0.000000000E+00  0.000000000E+00  5.641440229E+01  5.641440229E+01  0.000000000E+00  0.00000E+00  9.000E+00
      21    -1     0     0   511   502  0.000000000E+00  0.000000000E+00 -7.735287896E+02  7.735287896E+02  0.000000000E+00  0.00000E+00  9.000E+00
      25     1     1     2     0     0 -5.908130298E+01  1.433100004E+01 -2.561354145E+02  2.914212218E+02  1.250000000E+02  0.00000E+00  9.000E+00
      25     1     1     2     0     0  7.716574605E+01 -1.487753228E+01 -1.028627241E+02  1.799489743E+02  1.250000000E+02  0.00000E+00  9.000E+00
      21     1     1     2   511   501 -1.808444307E+01  5.465322323E-01 -3.581162487E+02  3.585729959E+02  5.394796609E-06  0.00000E+00  9.000E+00
#rwgt            1           1   3.3735056262569355E-002           7       50524           0
</event>
<event>
      5   9999  3.79277E-02  1.81157E+02 -1.00000E+00  1.13235E-01
      21    -1     0     0   502   501  0.000000000E+00  0.000000000E+00  6.845026017E+02  6.845026017E+02  0.000000000E+00  0.00000E+00  9.000E+00
      21    -1     0     0   501   512  0.000000000E+00  0.000000000E+00 -2.919267615E+02  2.919267615E+02  0.000000000E+00  0.00000E+00  9.000E+00
      25     1     1     2     0     0 -1.015525921E+02  3.351406434E+02  4.222215166E+02  5.626083797E+02  1.250000000E+02  0.00000E+00  9.000E+00
      25     1     1     2     0     0 -1.173367282E+01 -1.937758113E+02 -2.862756466E+01  2.326613023E+02  1.250000000E+02  0.00000E+00  9.000E+00
      21     1     1     2   502   512  1.132862649E+02 -1.413648321E+02 -1.018111811E+00  1.811596813E+02  2.267719791E-06  0.00000E+00  9.000E+00
#rwgt            1           1   3.7477166140201593E-002           7       50723           0
</event>
<event>
      5   9999  3.79277E-02  3.04294E+01 -1.00000E+00  1.52612E-01
      21    -1     0     0   502   501  0.000000000E+00  0.000000000E+00  2.186206530E+02  2.186206530E+02  0.000000000E+00  0.00000E+00  9.000E+00
      21    -1     0     0   511   502  0.000000000E+00  0.000000000E+00 -2.939392919E+02  2.939392919E+02  0.000000000E+00  0.00000E+00  9.000E+00
      25     1     1     2     0     0 -1.381392572E+02  8.233537935E+01  8.347430041E+01  2.201238922E+02  1.250000000E+02  0.00000E+00  9.000E+00
      25     1     1     2     0     0  1.619574835E+02 -6.339753245E+01 -1.471238000E+02  2.598458892E+02  1.250000000E+02  0.00000E+00  9.000E+00
      21     1     1     2   511   501 -2.381822630E+01 -1.893784690E+01 -1.166913923E+01  3.259016354E+01  4.460403188E-07  0.00000E+00  9.000E+00
#rwgt            1           1   3.4658733256033733E-002           7       50840           0
</event>
<event>
      5   9999  3.79277E-02  5.24309E+01 -1.00000E+00  1.37909E-01
      21    -1     0     0   502   501  0.000000000E+00  0.000000000E+00  3.291852826E+02  3.291852826E+02  0.000000000E+00  0.00000E+00  9.000E+00
      21    -1     0     0   501   512  0.000000000E+00  0.000000000E+00 -1.446038518E+02  1.446038518E+02  0.000000000E+00  0.00000E+00  9.000E+00
      25     1     1     2     0     0 -3.699625401E+01 -9.711306994E+01  1.553094736E+02  2.248237171E+02  1.250000000E+02  0.00000E+00  9.000E+00
      25     1     1     2     0     0  8.475054560E+01  1.187584423E+02  3.791087557E+01  1.958276208E+02  1.250000000E+02  0.00000E+00  9.000E+00
      21     1     1     2   502   512 -4.775429159E+01 -2.164537235E+01 -8.638918381E+00  5.313779653E+01  1.464868275E-06  0.00000E+00  9.000E+00
#rwgt            2          11   2.3383329743772640E-003           7       51100           0
</event>
<event>
      5   9999  3.79277E-02  8.27715E+01 -1.00000E+00  1.27638E-01
      21    -1     0     0   502   501  0.000000000E+00  0.000000000E+00  9.080865995E+01  9.080865995E+01  0.000000000E+00  0.00000E+00  9.000E+00
      21    -1     0     0   511   502  0.000000000E+00  0.000000000E+00 -1.995577546E+03  1.995577546E+03  0.000000000E+00  0.00000E+00  9.000E+00
      25     1     1     2     0     0 -1.008849897E+02 -1.747572570E+02 -7.734759896E+02  8.090784798E+02  1.250000000E+02  0.00000E+00  9.000E+00
      25     1     1     2     0     0  1.590787478E+02  1.158963295E+02 -1.192481098E+02  2.618837889E+02  1.250000000E+02  0.00000E+00  9.000E+00
      21     1     1     2   511   501 -5.819375806E+01  5.886092750E+01 -1.012044787E+03  1.015423937E+03  1.078959322E-05  0.00000E+00  9.000E+00
#rwgt            1           1   2.6592104201592748E-002           7       51135           0
</event>
<event>
      5   9999  3.79277E-02  1.82049E+01 -1.00000E+00  1.69811E-01
      21    -1     0     0   502   501  0.000000000E+00  0.000000000E+00  4.866849216E+01  4.866849216E+01  0.000000000E+00  0.00000E+00  9.000E+00
      21    -1     0     0   512   502  0.000000000E+00  0.000000000E+00 -1.079843374E+03  1.079843374E+03  0.000000000E+00  0.00000E+00  9.000E+00
      25     1     1     2     0     0 -4.362570065E+01  4.760993200E+01 -8.203456131E+02  8.323231538E+02  1.250000000E+02  0.00000E+00  9.000E+00
      25     1     1     2     0     0  4.402117546E+01 -2.940928131E+01 -6.731161097E+01  1.515210305E+02  1.250000000E+02  0.00000E+00  9.000E+00
      21     1     1     2   512   501 -3.954748101E-01 -1.820065069E+01 -1.435176574E+02  1.446676815E+02  1.907348633E-06  0.00000E+00  9.000E+00
#rwgt            1           1   2.5806343247038895E-002           7       51198           0
</event>
<event>
      5   9999  3.79277E-02  8.49341E+01 -1.00000E+00  1.27104E-01
      21    -1     0     0   502   501  0.000000000E+00  0.000000000E+00  5.556827533E+02  5.556827533E+02  0.000000000E+00  0.00000E+00  9.000E+00
      21    -1     0     0   501   511  0.000000000E+00  0.000000000E+00 -1.607726082E+02  1.607726082E+02  0.000000000E+00  0.00000E+00  9.000E+00
      25     1     1     2     0     0  1.406238209E+02 -1.092327120E+02  2.051140231E+02  2.990043592E+02  1.250000000E+02  0.00000E+00  9.000E+00
      25     1     1     2     0     0 -1.882672976E+02  3.891981284E+01  2.288483923E+02  3.239690014E+02  1.250000000E+02  0.00000E+00  9.000E+00
      21     1     1     2   502   511  4.764347678E+01  7.031289915E+01 -3.905227036E+01  9.348200087E+01  1.846782373E-06  0.00000E+00  9.000E+00
#rwgt            1           1   3.7873332311780285E-002           7       51354           0
</event>
<event>
      5   9999  3.79277E-02  7.80315E+01 -1.00000E+00  1.28875E-01
      21    -1     0     0   502   501  0.000000000E+00  0.000000000E+00  5.148685084E+02  5.148685084E+02  0.000000000E+00  0.00000E+00  9.000E+00
      21    -1     0     0   512   502  0.000000000E+00  0.000000000E+00 -9.414754801E+02  9.414754801E+02  0.000000000E+00  0.00000E+00  9.000E+00
      25     1     1     2     0     0  1.397885477E+02 -6.403605192E+01  4.160010463E+02  4.607855516E+02  1.250000000E+02  0.00000E+00  9.000E+00
      25     1     1     2     0     0 -8.586912174E+01  1.204417893E+02 -5.120316449E+01  2.003159872E+02  1.250000000E+02  0.00000E+00  9.000E+00
      21     1     1     2   512   501 -5.391942594E+01 -5.640573737E+01 -7.914048535E+02  7.952424497E+02  1.078959322E-05  0.00000E+00  9.000E+00
#rwgt            1           1   4.1294769670341618E-002           7       51421           0
</event>
<event>
      5   9999  3.79277E-02  1.39319E+01 -1.00000E+00  1.80460E-01
      21    -1     0     0   502   501  0.000000000E+00  0.000000000E+00  5.805181778E+01  5.805181778E+01  0.000000000E+00  0.00000E+00  9.000E+00
      21    -1     0     0   511   502  0.000000000E+00  0.000000000E+00 -7.793261762E+02  7.793261762E+02  0.000000000E+00  0.00000E+00  9.000E+00
      25     1     1     2     0     0  8.252760716E+01  1.246913265E+02 -4.638555067E+02  5.031358305E+02  1.250000000E+02  0.00000E+00  9.000E+00
      25     1     1     2     0     0 -8.652262076E+01 -1.113445212E+02 -1.985008612E+02  2.736993939E+02  1.250000000E+02  0.00000E+00  9.000E+00
      21     1     1     2   511   501  3.995013597E+00 -1.334680533E+01 -5.891799043E+01  6.054276953E+01  9.536743164E-07  0.00000E+00  9.000E+00
#rwgt            1           1   1.2832581597739040E-002           7       51624           0
</event>
<event>
      5   9999  3.79277E-02  1.16231E+02 -1.00000E+00  1.20959E-01
      21    -1     0     0   512   501  0.000000000E+00  0.000000000E+00  2.442228348E+02  2.442228348E+02  0.000000000E+00  0.00000E+00  9.000E+00
      21    -1     0     0   501   502  0.000000000E+00  0.000000000E+00 -9.747823241E+02  9.747823241E+02  0.000000000E+00  0.00000E+00  9.000E+00
      25     1     1     2     0     0 -3.226046146E+02 -7.235454190E+01 -5.614830391E+02  6.634735264E+02  1.250000000E+02  0.00000E+00  9.000E+00
      25     1     1     2     0     0  2.899502098E+02  1.839043030E+02 -2.222851798E+02  4.277003834E+02  1.250000000E+02  0.00000E+00  9.000E+00
      21     1     1     2   512   502  3.265440476E+01 -1.115497611E+02  5.320872958E+01  1.278312491E+02  2.132480600E-06  0.00000E+00  9.000E+00
#rwgt            1           1   3.4910872848023543E-002           7       51859           0
</event>
<event>
      5   9999  3.79277E-02  4.52859E+01 -1.00000E+00  1.41575E-01
      21    -1     0     0   502   511  0.000000000E+00  0.000000000E+00  1.638353759E+03  1.638353759E+03  0.000000000E+00  0.00000E+00  9.000E+00
      21    -1     0     0   501   502  0.000000000E+00  0.000000000E+00 -2.222474643E+02  2.222474643E+02  0.000000000E+00  0.00000E+00  9.000E+00
      25     1     1     2     0     0  8.390402610E+01  6.563308965E+01 -2.897693387E+01  1.667700535E+02  1.250000000E+02  0.00000E+00  9.000E+00
      25     1     1     2     0     0 -1.280004228E+02 -7.594412042E+01 -4.788691693E+01  2.001743602E+02  1.250000000E+02  0.00000E+00  9.000E+00
      21     1     1     2   501   511  4.409639666E+01  1.031103076E+01  1.492970146E+03  1.493656810E+03  2.157918644E-05  0.00000E+00  9.000E+00
#rwgt            1           1   3.9610215083291607E-002           7       51996           0
</event>
<event>
      5   9999  3.79277E-02  2.45183E+01 -1.00000E+00  1.59386E-01
      21    -1     0     0   512   501  0.000000000E+00  0.000000000E+00  2.538499455E+02  2.538499455E+02  0.000000000E+00  0.00000E+00  9.000E+00
      21    -1     0     0   501   502  0.000000000E+00  0.000000000E+00 -2.392102083E+02  2.392102083E+02  0.000000000E+00  0.00000E+00  9.000E+00
      25     1     1     2     0     0  1.594236081E+02 -5.877783256E+01  8.987349100E+00  2.111314587E+02  1.250000000E+02  0.00000E+00  9.000E+00
      25     1     1     2     0     0 -1.542332000E+02  8.274043090E+01 -5.026318058E+01  2.208738242E+02  1.250000000E+02  0.00000E+00  9.000E+00
      21     1     1     2   512   502 -5.190408099E+00 -2.396259833E+01  5.591556867E+01  6.105487101E+01  9.536743164E-07  0.00000E+00  9.000E+00
#rwgt            1           1   4.2520864312741262E-002           7       52201           0
</event>
<event>
      5   9999  3.79277E-02  1.81044E+01 -1.00000E+00  1.70018E-01
      21    -1     0     0   502   501  0.000000000E+00  0.000000000E+00  3.910388970E+02  3.910388970E+02  0.000000000E+00  0.00000E+00  9.000E+00
       4    -1     0     0   501     0  0.000000000E+00  0.000000000E+00 -1.811475649E+02  1.811475649E+02  0.000000000E+00  0.00000E+00  9.000E+00
      25     1     1     2     0     0  2.908009411E+01 -8.743906111E+01 -9.432189072E+01  1.816944147E+02  1.250000000E+02  0.00000E+00  9.000E+00
      25     1     1     2     0     0 -4.479807304E+01  7.845501207E+01  3.269062924E+02  3.614620039E+02  1.250000000E+02  0.00000E+00  9.000E+00
       4     1     1     2   502     0  1.571797893E+01  8.984049033E+00 -2.269306967E+01  2.903004323E+01  4.768371582E-07  0.00000E+00  9.000E+00
#rwgt            1           1   5.3864427370591231E-002           7       52367           0
</event>
<event>
      5   9999  3.79277E-02  1.00097E+02 -1.00000E+00  1.23809E-01
      21    -1     0     0   502   501  0.000000000E+00  0.000000000E+00  4.143266743E+02  4.143266743E+02  0.000000000E+00  0.00000E+00  9.000E+00
      21    -1     0     0   501   511  0.000000000E+00  0.000000000E+00 -3.979344102E+02  3.979344102E+02  0.000000000E+00  0.00000E+00  9.000E+00
      25     1     1     2     0     0  8.280243588E+01  7.740516432E+01 -1.159991890E+02  2.047647789E+02  1.250000000E+02  0.00000E+00  9.000E+00
      25     1     1     2     0     0 -2.554889938E+01  4.701685589E+00  3.475150511E+02  3.702250165E+02  1.250000000E+02  0.00000E+00  9.000E+00
      21     1     1     2   502   511 -5.725353649E+01 -8.210684991E+01 -2.151235980E+02  2.372712892E+02  0.000000000E+00  0.00000E+00  9.000E+00
#rwgt            1           1   3.6098669567951769E-002           7       52594           0
</event>
<event>
      5   9999  3.79277E-02  1.09743E+01 -1.00000E+00  1.91203E-01
      21    -1     0     0   512   501  0.000000000E+00  0.000000000E+00  3.354936561E+01  3.354936561E+01  0.000000000E+00  0.00000E+00  9.000E+00
      21    -1     0     0   501   502  0.000000000E+00  0.000000000E+00 -1.186417147E+03  1.186417147E+03  0.000000000E+00  0.00000E+00  9.000E+00
      25     1     1     2     0     0  8.956151784E+01 -4.180203958E+01 -9.222596826E+02  9.359255302E+02  1.250000000E+02  0.00000E+00  9.000E+00
      25     1     1     2     0     0 -7.894550467E+01  4.458329155E+01 -2.199454350E+02  2.687397569E+02  1.250000000E+02  0.00000E+00  9.000E+00
      21     1     1     2   512   502 -1.061601317E+01 -2.781251968E+00 -1.066266360E+01  1.530122522E+01  2.064765462E-07  0.00000E+00  9.000E+00
#rwgt            1           1   5.2379043365375570E-002           7       52662           0
</event>
<event>
      5   9999  3.79277E-02  1.58045E+01 -1.00000E+00  1.75272E-01
      21    -1     0     0   502   511  0.000000000E+00  0.000000000E+00  3.281295996E+01  3.281295996E+01  0.000000000E+00  0.00000E+00  9.000E+00
      21    -1     0     0   501   502  0.000000000E+00  0.000000000E+00 -1.076262648E+03  1.076262648E+03  0.000000000E+00  0.00000E+00  9.000E+00
      25     1     1     2     0     0  1.028583619E+02  5.903256205E+01 -4.239437618E+02  4.576221140E+02  1.250000000E+02  0.00000E+00  9.000E+00
      25     1     1     2     0     0 -9.645316225E+01 -4.458420849E+01 -6.126314989E+02  6.342186670E+02  1.250000000E+02  0.00000E+00  9.000E+00
      21     1     1     2   501   511 -6.405199652E+00 -1.444835356E+01 -6.874426970E+00  1.723482664E+01  5.717076687E-07  0.00000E+00  9.000E+00
#rwgt            1           1   3.8138237696302181E-002           7       52918           0
</event>
<event>
      5   9999  3.79277E-02  7.78003E+01 -1.00000E+00  1.28938E-01
      21    -1     0     0   502   501  0.000000000E+00  0.000000000E+00  1.253805614E+02  1.253805614E+02  0.000000000E+00  0.00000E+00  9.000E+00
      21    -1     0     0   501   512  0.000000000E+00  0.000000000E+00 -4.887187810E+02  4.887187810E+02  0.000000000E+00  0.00000E+00  9.000E+00
      25     1     1     2     0     0  3.372867560E+01  6.741515012E+01 -1.093711248E+02  1.823992022E+02  1.250000000E+02  0.00000E+00  9.000E+00
      25     1     1     2     0     0 -1.110802060E+02 -5.907047488E+01 -1.225221114E+01  1.777730290E+02  1.250000000E+02  0.00000E+00  9.000E+00
      21     1     1     2   502   512  7.735153036E+01 -8.344675237E+00 -2.417148836E+02  2.539271112E+02  2.697398305E-06  0.00000E+00  9.000E+00
#rwgt            1           1   2.2687006763550750E-002           7       53104           0
</event>
<event>
      5   9999  3.79277E-02  1.48975E+01 -1.00000E+00  1.77665E-01
      21    -1     0     0   502   501  0.000000000E+00  0.000000000E+00  2.114373309E+02  2.114373309E+02  0.000000000E+00  0.00000E+00  9.000E+00
       1    -1     0     0   501     0  0.000000000E+00  0.000000000E+00 -3.352260696E+02  3.352260696E+02  0.000000000E+00  0.00000E+00  9.000E+00
      25     1     1     2     0     0 -3.946810780E-01  4.077824428E+01  1.656334369E+02  2.114768460E+02  1.250000000E+02  0.00000E+00  9.000E+00
      25     1     1     2     0     0 -2.580305299E-02 -5.566983476E+01 -1.871708789E+02  2.318557074E+02  1.250000000E+02  0.00000E+00  9.000E+00
       1     1     1     2   502     0  4.204841309E-01  1.489159049E+01 -1.022512967E+02  1.033308470E+02  1.348699152E-06  0.00000E+00  9.000E+00
#rwgt            1           1   4.6011816196101847E-002           7       53208           0
</event>
<event>
      5   9999  3.79277E-02  1.04005E+02 -1.00000E+00  1.23066E-01
      21    -1     0     0   511   501  0.000000000E+00  0.000000000E+00  7.791854478E+01  7.791854478E+01  0.000000000E+00  0.00000E+00  9.000E+00
      21    -1     0     0   501   502  0.000000000E+00  0.000000000E+00 -1.867160860E+03  1.867160860E+03  0.000000000E+00  0.00000E+00  9.000E+00
      25     1     1     2     0     0  3.444983037E+02  7.654520930E+00 -8.703085632E+02  9.443514538E+02  1.250000000E+02  0.00000E+00  9.000E+00
      25     1     1     2     0     0 -2.442065377E+02  1.988784818E+01 -7.807001018E+02  8.277378864E+02  1.250000000E+02  0.00000E+00  9.000E+00
      21     1     1     2   511   502 -1.002917660E+02 -2.754236911E+01 -1.382336501E+02  1.729900646E+02  1.907348633E-06  0.00000E+00  9.000E+00
#rwgt            1           1   2.4357956863508258E-002           7       53454           0
</event>
<event>
      5   9999  3.79277E-02  6.60340E+01 -1.00000E+00  1.32517E-01
      21    -1     0     0   512   501  0.000000000E+00  0.000000000E+00  5.950967992E+02  5.950967992E+02  0.000000000E+00  0.00000E+00  9.000E+00
      21    -1     0     0   501   502  0.000000000E+00  0.000000000E+00 -1.332203455E+02  1.332203455E+02  0.000000000E+00  0.00000E+00  9.000E+00
      25     1     1     2     0     0  6.323510295E+01  9.793684728E+01  4.596830027E+02  4.904322250E+02  1.250000000E+02  0.00000E+00  9.000E+00
      25     1     1     2     0     0 -5.469151203E+00 -6.594330424E+01 -5.378647576E+01  1.513156170E+02  1.250000000E+02  0.00000E+00  9.000E+00
      21     1     1     2   512   502 -5.776595175E+01 -3.199354304E+01  5.597992670E+01  8.656930271E+01  2.336015456E-06  0.00000E+00  9.000E+00
#rwgt            1           1   3.9921547244261280E-002           7       53570           0
</event>
<event>
      5   9999  3.79277E-02  2.38885E+01 -1.00000E+00  1.60245E-01
      21    -1     0     0   511   501  0.000000000E+00  0.000000000E+00  2.802187709E+01  2.802187709E+01  0.000000000E+00  0.00000E+00  9.000E+00
      21    -1     0     0   501   502  0.000000000E+00  0.000000000E+00 -3.452522436E+03  3.452522436E+03  0.000000000E+00  0.00000E+00  9.000E+00
      25     1     1     2     0     0 -2.294972104E+02 -4.905900018E+01 -2.514135670E+03  2.528157218E+03  1.250000000E+02  0.00000E+00  9.000E+00
      25     1     1     2     0     0  2.170092936E+02  2.869445760E+01 -8.667207725E+02  9.026329835E+02  1.250000000E+02  0.00000E+00  9.000E+00
      21     1     1     2   511   502  1.248791683E+01  2.036454259E+01 -4.364411665E+01  4.975411118E+01  1.168007728E-06  0.00000E+00  9.000E+00
#rwgt            1           1   2.1406999049487264E-002           7       53806           0
</event>
<event>
      5   9999  3.79277E-02  1.28340E+02 -1.00000E+00  1.19143E-01
      21    -1     0     0   502   512  0.000000000E+00  0.000000000E+00  4.350467637E+02  4.350467637E+02  0.000000000E+00  0.00000E+00  9.000E+00
      21    -1     0     0   501   502  0.000000000E+00  0.000000000E+00 -4.382110702E+02  4.382110702E+02  0.000000000E+00  0.00000E+00  9.000E+00
      25     1     1     2     0     0 -2.297261474E+02  1.421133031E+02  1.083709410E+02  3.167641939E+02  1.250000000E+02  0.00000E+00  9.000E+00
      25     1     1     2     0     0  3.346903394E+02 -6.826495291E+01 -1.855637772E+02  4.083339840E+02  1.250000000E+02  0.00000E+00  9.000E+00
      21     1     1     2   501   512 -1.049641921E+02 -7.384835015E+01  7.402852977E+01  1.481596560E+02  9.536743164E-07  0.00000E+00  9.000E+00
#rwgt            1           1   2.6210266991511563E-002           7       53981           0
</event>
<event>
      5   9999  3.79277E-02  8.97334E+01 -1.00000E+00  1.25982E-01
      21    -1     0     0   502   511  0.000000000E+00  0.000000000E+00  3.153895838E+02  3.153895838E+02  0.000000000E+00  0.00000E+00  9.000E+00
      21    -1     0     0   501   502  0.000000000E+00  0.000000000E+00 -2.082502597E+02  2.082502597E+02  0.000000000E+00  0.00000E+00  9.000E+00
      25     1     1     2     0     0  1.128742680E+02 -7.101332287E+01  7.884738296E+00  1.829498880E+02  1.250000000E+02  0.00000E+00  9.000E+00
      25     1     1     2     0     0 -1.099220034E+02  1.606980992E+02  4.461916349E+01  2.356323316E+02  1.250000000E+02  0.00000E+00  9.000E+00
      21     1     1     2   501   511 -2.952264572E+00 -8.968477634E+01  5.463542230E+01  1.050576239E+02  1.651812370E-06  0.00000E+00  9.000E+00
#rwgt            1           1   3.0058182606351614E-002           7       54079           0
</event>
<event>
      5   9999  3.79277E-02  3.03898E+01 -1.00000E+00  1.52651E-01
      21    -1     0     0   512   501  0.000000000E+00  0.000000000E+00  1.509161860E+03  1.509161860E+03  0.000000000E+00  0.00000E+00  9.000E+00
      21    -1     0     0   501   502  0.000000000E+00  0.000000000E+00 -3.730612257E+02  3.730612257E+02  0.000000000E+00  0.00000E+00  9.000E+00
      25     1     1     2     0     0 -2.412762926E+02 -3.659608470E+00 -1.757113469E+02  3.236156973E+02  1.250000000E+02  0.00000E+00  9.000E+00
      25     1     1     2     0     0  2.145602732E+02 -1.082459931E+01  2.118526078E+00  2.485614028E+02  1.250000000E+02  0.00000E+00  9.000E+00
      21     1     1     2   512   502  2.671601938E+01  1.448420778E+01  1.309693455E+03  1.310045985E+03  0.000000000E+00  0.00000E+00  9.000E+00
#rwgt            1           1   4.3689902812923606E-002           7       54181           0
</event>
<event>
      5   9999  3.79277E-02  8.96232E+01 -1.00000E+00  1.26006E-01
      21    -1     0     0   502   501  0.000000000E+00  0.000000000E+00  8.773084787E+01  8.773084787E+01  0.000000000E+00  0.00000E+00  9.000E+00
      21    -1     0     0   511   502  0.000000000E+00  0.000000000E+00 -1.556815724E+03  1.556815724E+03  0.000000000E+00  0.00000E+00  9.000E+00
      25     1     1     2     0     0  6.186325579E+01  2.450148516E+02 -2.140389272E+02  3.539731661E+02  1.250000000E+02  0.00000E+00  9.000E+00
      25     1     1     2     0     0 -4.808728660E+01 -1.564567507E+02 -9.758199436E+02  9.973167321E+02  1.250000000E+02  0.00000E+00  9.000E+00
      21     1     1     2   511   501 -1.377596919E+01 -8.855810097E+01 -2.792260055E+02  2.932566738E+02  3.814697266E-06  0.00000E+00  9.000E+00
#rwgt            1           1   3.7839854135509741E-002           7       54333           0
</event>
<event>
      5   9999  3.79277E-02  4.14802E+01 -1.00000E+00  1.43868E-01
      21    -1     0     0   502   512  0.000000000E+00  0.000000000E+00  1.899957182E+02  1.899957182E+02  0.000000000E+00  0.00000E+00  9.000E+00
      21    -1     0     0   501   502  0.000000000E+00  0.000000000E+00 -2.662161033E+02  2.662161033E+02  0.000000000E+00  0.00000E+00  9.000E+00
      25     1     1     2     0     0 -4.074106280E+01 -1.016444382E+02  5.643342288E+01  1.755025847E+02  1.250000000E+02  0.00000E+00  9.000E+00
      25     1     1     2     0     0  4.582284487E+01  1.428121579E+02 -1.377089386E+02  2.389221575E+02  1.250000000E+02  0.00000E+00  9.000E+00
      21     1     1     2   501   512 -5.081782070E+00 -4.116771969E+01  5.055130541E+00  4.178707932E+01  2.230201594E-07  0.00000E+00  9.000E+00
#rwgt            1           1   9.2790473403451382E-002           7       54440           0
</event>
<event>
      5   9999  3.79277E-02  5.09850E+01 -1.00000E+00  1.38594E-01
       4    -1     0     0   502     0  0.000000000E+00  0.000000000E+00  1.059910758E+03  1.059910758E+03  0.000000000E+00  0.00000E+00  9.000E+00
      21    -1     0     0   501   502  0.000000000E+00  0.000000000E+00 -9.076382926E+01  9.076382926E+01  0.000000000E+00  0.00000E+00  9.000E+00
      25     1     1     2     0     0 -4.081198846E+01 -3.943080089E+01  2.662045066E+02  2.995166870E+02  1.250000000E+02  0.00000E+00  9.000E+00
      25     1     1     2     0     0  7.923499623E+01  7.294410391E+01  1.987437175E+01  1.661897036E+02  1.250000000E+02  0.00000E+00  9.000E+00
       4     1     1     2   501     0 -3.842300777E+01 -3.351330302E+01  6.830680505E+02  6.849681968E+02  7.629394531E-06  0.00000E+00  9.000E+00
#rwgt            1           1   5.3752174530553164E-002           7       54563           0
</event>
<event>
      5   9999 -3.79277E-02  2.77696E+01 -1.00000E+00  1.55407E-01
      21    -1     0     0   502   511  0.000000000E+00  0.000000000E+00  1.654107863E+01  1.654107863E+01  0.000000000E+00  0.00000E+00  9.000E+00
      21    -1     0     0   501   502  0.000000000E+00  0.000000000E+00 -3.432716940E+03  3.432716940E+03  0.000000000E+00  0.00000E+00  9.000E+00
      25     1     1     2     0     0 -1.090632218E+02 -2.427879776E+01 -8.668579560E+02  8.829223987E+02  1.250000000E+02  0.00000E+00  9.000E+00
      25     1     1     2     0     0  8.581877679E+01  3.947251391E+01 -2.523685827E+03  2.528544660E+03  1.250000000E+02  0.00000E+00  9.000E+00
      21     1     1     2   501   511  2.324444499E+01 -1.519371615E+01 -2.563207804E+01  3.779096001E+01  1.994752947E-06  0.00000E+00  9.000E+00
#rwgt            1           1  -3.0922610952638898E-002           7       54691           0
</event>
<event>
      5   9999  3.79277E-02  4.08224E+01 -1.00000E+00  1.44294E-01
      21    -1     0     0   502   501  0.000000000E+00  0.000000000E+00  2.177779165E+02  2.177779165E+02  0.000000000E+00  0.00000E+00  9.000E+00
      21    -1     0     0   512   502  0.000000000E+00  0.000000000E+00 -8.855347278E+02  8.855347278E+02  0.000000000E+00  0.00000E+00  9.000E+00
      25     1     1     2     0     0 -3.045166268E+00 -3.055072224E+02 -3.282533715E+02  4.655311073E+02  1.250000000E+02  0.00000E+00  9.000E+00
      25     1     1     2     0     0 -2.771166100E+01  2.786653074E+02 -1.112251757E+01  3.068729380E+02  1.250000000E+02  0.00000E+00  9.000E+00
      21     1     1     2   512   501  3.075682726E+01  2.684191502E+01 -3.283809222E+02  3.309085990E+02  5.394796609E-06  0.00000E+00  9.000E+00
#rwgt            1           1   3.6529662693797704E-002           7       54808           0
</event>
<event>
      5   9999  3.79277E-02  8.60950E+01 -1.00000E+00  1.26825E-01
      21    -1     0     0   502   511  0.000000000E+00  0.000000000E+00  3.449369104E+02  3.449369104E+02  0.000000000E+00  0.00000E+00  9.000E+00
      21    -1     0     0   501   502  0.000000000E+00  0.000000000E+00 -7.071743436E+02  7.071743436E+02  0.000000000E+00  0.00000E+00  9.000E+00
      25     1     1     2     0     0  3.481649824E+01  1.397737432E+02 -2.782985659E+02  3.373780959E+02  1.250000000E+02  0.00000E+00  9.000E+00
      25     1     1     2     0     0 -1.206299539E+02 -1.328164713E+02 -3.624024533E+02  4.232639117E+02  1.250000000E+02  0.00000E+00  9.000E+00
      21     1     1     2   501   511  8.581345569E+01 -6.957271882E+00  2.784635860E+02  2.914692463E+02  3.814697266E-06  0.00000E+00  9.000E+00
#rwgt            1           1   3.1172429826478634E-002           7       54976           0
</event>
<event>
      5   9999  3.79277E-02  9.57394E+01 -1.00000E+00  1.24684E-01
      21    -1     0     0   512   501  0.000000000E+00  0.000000000E+00  3.560057658E+02  3.560057658E+02  0.000000000E+00  0.00000E+00  9.000E+00
      21    -1     0     0   501   502  0.000000000E+00  0.000000000E+00 -5.330145358E+02  5.330145358E+02  0.000000000E+00  0.00000E+00  9.000E+00
      25     1     1     2     0     0  4.918464771E+01  3.234129969E+02 -7.732064706E+01  3.586343243E+02  1.250000000E+02  0.00000E+00  9.000E+00
      25     1     1     2     0     0 -1.253949224E+02 -2.654645705E+02 -2.117771669E+02  3.829750555E+02  1.250000000E+02  0.00000E+00  9.000E+00
      21     1     1     2   512   502  7.621027470E+01 -5.794842640E+01  1.120890439E+02  1.474109218E+02  2.336015456E-06  0.00000E+00  9.000E+00
#rwgt            1           1   3.4386520444904048E-002           7       55121           0
</event>
<event>
      5   9999  3.79277E-02  4.40584E+00 -1.00000E+00  2.53958E-01
      21    -1     0     0   502   501  0.000000000E+00  0.000000000E+00  2.411823523E+02  2.411823523E+02  0.000000000E+00  0.00000E+00  9.000E+00
       2    -1     0     0   501     0  0.000000000E+00  0.000000000E+00 -1.555337224E+03  1.555337224E+03  0.000000000E+00  0.00000E+00  9.000E+00
      25     1     1     2     0     0 -1.386003044E+02  1.468438996E+02 -3.487249902E+01  2.400297198E+02  1.250000000E+02  0.00000E+00  9.000E+00
      25     1     1     2     0     0  1.407051768E+02 -1.429733822E+02  3.783470462E+01  2.393654103E+02  1.250000000E+02  0.00000E+00  9.000E+00
       2     1     1     2   502     0 -2.104872409E+00 -3.870517404E+00 -1.317117077E+03  1.317124446E+03  2.157918644E-05  0.00000E+00  9.000E+00
#rwgt            1           1   3.3867787114245096E-002           7       55198           0
</event>
<event>
      5   9999  3.79277E-02  9.04361E+01 -1.00000E+00  1.25824E-01
      21    -1     0     0   502   511  0.000000000E+00  0.000000000E+00  6.078364025E+02  6.078364025E+02  0.000000000E+00  0.00000E+00  9.000E+00
      21    -1     0     0   501   502  0.000000000E+00  0.000000000E+00 -2.065185544E+02  2.065185544E+02  0.000000000E+00  0.00000E+00  9.000E+00
      25     1     1     2     0     0 -1.081974187E+02 -2.269421125E+02  2.731025365E+02  3.916878850E+02  1.250000000E+02  0.00000E+00  9.000E+00
      25     1     1     2     0     0  1.795044715E+02  1.713184300E+02  1.566466361E+01  2.782844613E+02  1.250000000E+02  0.00000E+00  9.000E+00
      21     1     1     2   501   511 -7.130705283E+01  5.562368253E+01  1.125506481E+02  1.443826106E+02  2.336015456E-06  0.00000E+00  9.000E+00
#rwgt            1           1   3.8219929853335839E-002           7       55656           0
</event>
<event>
      5   9999  3.79277E-02  6.30830E+01 -1.00000E+00  1.33551E-01
      21    -1     0     0   502   501  0.000000000E+00  0.000000000E+00  2.012559660E+03  2.012559660E+03  0.000000000E+00  0.00000E+00  9.000E+00
      21    -1     0     0   512   502  0.000000000E+00  0.000000000E+00 -2.386234880E+01  2.386234880E+01  0.000000000E+00  0.00000E+00  9.000E+00
      25     1     1     2     0     0 -1.120771611E+02 -5.774651217E+01  1.393621236E+03  1.404884728E+03  1.250000000E+02  0.00000E+00  9.000E+00
      25     1     1     2     0     0  4.937844297E+01  5.079390884E+01  3.470677403E+02  3.756318253E+02  1.250000000E+02  0.00000E+00  9.000E+00
      21     1     1     2   512   501  6.269871815E+01  6.952603328E+00  2.480083349E+02  2.559054554E+02  2.697398305E-06  0.00000E+00  9.000E+00
#rwgt            2          11   6.9572979864998127E-003           7       55762           0
</event>
<event>
      5   9999  3.79277E-02  1.13292E+02 -1.00000E+00  1.21438E-01
      21    -1     0     0   511   501  0.000000000E+00  0.000000000E+00  1.544465484E+03  1.544465484E+03  0.000000000E+00  0.00000E+00  9.000E+00
      21    -1     0     0   501   502  0.000000000E+00  0.000000000E+00 -6.382895128E+01  6.382895128E+01  0.000000000E+00  0.00000E+00  9.000E+00
      25     1     1     2     0     0 -1.562537173E+02 -1.539436796E+02  5.225138980E+02  5.803099639E+02  1.250000000E+02  0.00000E+00  9.000E+00
      25     1     1     2     0     0  2.149743691E+02  5.705718112E+01  5.894505199E+02  6.422977633E+02  1.250000000E+02  0.00000E+00  9.000E+00
      21     1     1     2   511   502 -5.872065185E+01  9.688649845E+01  3.686721148E+02  3.856867081E+02  0.000000000E+00  0.00000E+00  9.000E+00
#rwgt            1           1   3.7999150822320214E-002           7       55842           0
</event>
<event>
      5   9999  3.79277E-02  8.51971E+01 -1.00000E+00  1.27040E-01
       2    -1     0     0   502     0  0.000000000E+00  0.000000000E+00  1.992222842E+02  1.992222842E+02  0.000000000E+00  0.00000E+00  9.000E+00
      21    -1     0     0   501   502  0.000000000E+00  0.000000000E+00 -5.203212096E+02  5.203212096E+02  0.000000000E+00  0.00000E+00  9.000E+00
      25     1     1     2     0     0  5.005515221E+01  1.319066928E+02 -1.800282174E+02  2.606531276E+02  1.250000000E+02  0.00000E+00  9.000E+00
      25     1     1     2     0     0  3.500508665E+01 -1.270803627E+02 -2.571859448E+02  3.148720135E+02  1.250000000E+02  0.00000E+00  9.000E+00
       2     1     1     2   501     0 -8.506023885E+01 -4.826330096E+00  1.161152368E+02  1.440183527E+02  1.907348633E-06  0.00000E+00  9.000E+00
#rwgt            1           1   4.4229492289788432E-002           7       55881           0
</event>
<event>
      5   9999  3.79277E-02  2.09293E+01 -1.00000E+00  1.64758E-01
       2    -1     0     0   502     0  0.000000000E+00  0.000000000E+00  3.344498885E+03  3.344498885E+03  0.000000000E+00  0.00000E+00  9.000E+00
      21    -1     0     0   501   502  0.000000000E+00  0.000000000E+00 -2.143344227E+02  2.143344227E+02  0.000000000E+00  0.00000E+00  9.000E+00
      25     1     1     2     0     0 -1.133951824E+02 -6.412461899E+01 -9.903814041E+01  2.059222849E+02  1.250000000E+02  0.00000E+00  9.000E+00
      25     1     1     2     0     0  1.132982178E+02  8.505373729E+01  8.253503079E+01  2.061738482E+02  1.250000000E+02  0.00000E+00  9.000E+00
       2     1     1     2   501     0  9.696461426E-02 -2.092911830E+01  3.146667572E+03  3.146737175E+03  4.315837288E-05  0.00000E+00  9.000E+00
#rwgt            1           1   4.0200442336103329E-002           7       56041           0
</event>
<event>
      5   9999  3.79277E-02  1.43433E+01 -1.00000E+00  1.79235E-01
      21    -1     0     0   502   501  0.000000000E+00  0.000000000E+00  6.476180559E+02  6.476180559E+02  0.000000000E+00  0.00000E+00  9.000E+00
      21    -1     0     0   511   502  0.000000000E+00  0.000000000E+00 -8.591213243E+01  8.591213243E+01  0.000000000E+00  0.00000E+00  9.000E+00
      25     1     1     2     0     0 -3.992136537E+01  1.633725827E+02  3.876095459E+02  4.406250972E+02  1.250000000E+02  0.00000E+00  9.000E+00
      25     1     1     2     0     0  4.800304373E+01 -1.752223759E+02  1.576482529E+02  2.710814359E+02  1.250000000E+02  0.00000E+00  9.000E+00
      21     1     1     2   511   501 -8.081678365E+00  1.184979325E+01  1.644812468E+01  2.182365530E+01  2.384185791E-07  0.00000E+00  9.000E+00
#rwgt            1           1   2.5812589170597394E-002           7       56408           0
</event>
<event>
      5   9999  3.79277E-02  6.06956E+01 -1.00000E+00  1.34436E-01
      21    -1     0     0   512   501  0.000000000E+00  0.000000000E+00  1.547845066E+02  1.547845066E+02  0.000000000E+00  0.00000E+00  9.000E+00
      21    -1     0     0   501   502  0.000000000E+00  0.000000000E+00 -5.269534015E+02  5.269534015E+02  0.000000000E+00  0.00000E+00  9.000E+00
      25     1     1     2     0     0 -1.571424726E+02 -8.581477716E+01 -3.932562347E+01  2.218770771E+02  1.250000000E+02  0.00000E+00  9.000E+00
      25     1     1     2     0     0  1.394227125E+02  2.776337414E+01 -3.490160716E+02  3.970474984E+02  1.250000000E+02  0.00000E+00  9.000E+00
      21     1     1     2   512   502  1.771976008E+01  5.805140302E+01  1.617280027E+01  6.281333264E+01  7.152557373E-07  0.00000E+00  9.000E+00
#rwgt            1           1   4.2353245382564783E-002           7       56721           0
</event>
<event>
      5   9999  3.79277E-02  3.41364E+01 -1.00000E+00  1.49243E-01
       1    -1     0     0   502     0  0.000000000E+00  0.000000000E+00  5.366300484E+02  5.366300484E+02  0.000000000E+00  0.00000E+00  9.000E+00
      21    -1     0     0   501   502  0.000000000E+00  0.000000000E+00 -2.201587901E+02  2.201587901E+02  0.000000000E+00  0.00000E+00  9.000E+00
      25     1     1     2     0     0 -4.806794858E+01  7.793922674E+01  1.984919139E+02  2.518116173E+02  1.250000000E+02  0.00000E+00  9.000E+00
      25     1     1     2     0     0  1.420970983E+01 -8.228805317E+01 -1.631128379E+02  2.218198310E+02  1.250000000E+02  0.00000E+00  9.000E+00
       1     1     1     2   501     0  3.385823876E+01  4.348826436E+00  2.810921824E+02  2.831573902E+02  0.000000000E+00  0.00000E+00  9.000E+00
#rwgt            1           1   3.9230179529686882E-002           7       56937           0
</event>
<event>
      5   9999  3.79277E-02  2.24581E+01 -1.00000E+00  1.62320E-01
      21    -1     0     0   502   511  0.000000000E+00  0.000000000E+00  3.470120946E+02  3.470120946E+02  0.000000000E+00  0.00000E+00  9.000E+00
      21    -1     0     0   501   502  0.000000000E+00  0.000000000E+00 -6.797206723E+02  6.797206723E+02  0.000000000E+00  0.00000E+00  9.000E+00
      25     1     1     2     0     0 -1.377684643E+02  9.675268029E+00 -2.423718910E+02  3.056843046E+02  1.250000000E+02  0.00000E+00  9.000E+00
      25     1     1     2     0     0  1.182218587E+02  1.383574248E+00 -3.870065929E+02  4.235297216E+02  1.250000000E+02  0.00000E+00  9.000E+00
      21     1     1     2   501   511  1.954660562E+01 -1.105884228E+01  2.966699062E+02  2.975187407E+02  3.814697266E-06  0.00000E+00  9.000E+00
#rwgt            1           1   5.1783188642386117E-002           7       57104           0
</event>
<event>
      5   9999 -3.79277E-02  2.17693E+02 -1.00000E+00  1.10324E-01
      21    -1     0     0   502   501  0.000000000E+00  0.000000000E+00  1.499835710E+02  1.499835710E+02  0.000000000E+00  0.00000E+00  9.000E+00
      21    -1     0     0   501   512  0.000000000E+00  0.000000000E+00 -1.222912117E+03  1.222912117E+03  0.000000000E+00  0.00000E+00  9.000E+00
      25     1     1     2     0     0  1.487256822E+00 -2.952156952E+02 -2.802826330E+02  4.258378483E+02  1.250000000E+02  0.00000E+00  9.000E+00
      25     1     1     2     0     0 -1.933576899E+02  1.923760639E+02 -4.373234690E+02  5.303513578E+02  1.250000000E+02  0.00000E+00  9.000E+00
      21     1     1     2   502   512  1.918704331E+02  1.028396314E+02 -3.553224443E+02  4.167064822E+02  5.394796609E-06  0.00000E+00  9.000E+00
#rwgt            1           1  -6.2050380610218329E-002           7       57265           0
</event>
<event>
      5   9999  3.79277E-02  3.30648E+01 -1.00000E+00  1.50162E-01
      21    -1     0     0   502   501  0.000000000E+00  0.000000000E+00  1.246654199E+03  1.246654199E+03  0.000000000E+00  0.00000E+00  9.000E+00
      21    -1     0     0   501   511  0.000000000E+00  0.000000000E+00 -1.062117936E+02  1.062117936E+02  0.000000000E+00  0.00000E+00  9.000E+00
      25     1     1     2     0     0 -2.454690294E+02 -3.212162953E+00  2.242239237E+02  3.551995640E+02  1.250000000E+02  0.00000E+00  9.000E+00
      25     1     1     2     0     0  2.191550357E+02 -1.680923938E+01  9.285609722E+02  9.623730874E+02  1.250000000E+02  0.00000E+00  9.000E+00
      21     1     1     2   502   511  2.631399363E+01  2.002140233E+01 -1.234249093E+01  3.529334065E+01  1.092571186E-06  0.00000E+00  9.000E+00
#rwgt            1           1   3.5686917081982017E-002           7       57315           0
</event>
<event>
      5   9999  3.79277E-02  3.80338E+01 -1.00000E+00  1.46211E-01
       2    -1     0     0   502     0  0.000000000E+00  0.000000000E+00  3.320673410E+03  3.320673410E+03  0.000000000E+00  0.00000E+00  9.000E+00
      21    -1     0     0   501   502  0.000000000E+00  0.000000000E+00 -1.678102882E+02  1.678102882E+02  0.000000000E+00  0.00000E+00  9.000E+00
      25     1     1     2     0     0 -1.376164507E+02 -1.225290176E+01 -4.132382991E+01  1.908430770E+02  1.250000000E+02  0.00000E+00  9.000E+00
      25     1     1     2     0     0  9.984124218E+01  7.825449814E+00  7.265767309E+01  1.758796428E+02  1.250000000E+02  0.00000E+00  9.000E+00
       2     1     1     2   501     0  3.777520852E+01  4.427451945E+00  3.121529278E+03  3.121760978E+03  0.000000000E+00  0.00000E+00  9.000E+00
#rwgt            1           1   3.4505700396986694E-002           7       57457           0
</event>
<event>
      5   9999  3.79277E-02  6.15169E+01 -1.00000E+00  1.34127E-01
      21    -1     0     0   511   501  0.000000000E+00  0.000000000E+00  7.277861055E+01  7.277861055E+01  0.000000000E+00  0.00000E+00  9.000E+00
      21    -1     0     0   501   502  0.000000000E+00  0.000000000E+00 -1.416075704E+03  1.416075704E+03  0.000000000E+00  0.00000E+00  9.000E+00
      25     1     1     2     0     0  5.368814722E+01  2.506710422E+02 -5.634853541E+02  6.315529533E+02  1.250000000E+02  0.00000E+00  9.000E+00
      25     1     1     2     0     0 -1.078560317E+02 -2.215133523E+02 -7.213121460E+02  7.724100600E+02  1.250000000E+02  0.00000E+00  9.000E+00
      21     1     1     2   511   502  5.416788448E+01 -2.915768989E+01 -5.849959304E+01  8.489130094E+01  6.743495762E-07  0.00000E+00  9.000E+00
#rwgt            1           1   3.0203773389246590E-002           7       57580           0
</event>
<event>
      5   9999  3.79277E-02  1.84385E+02 -1.00000E+00  1.12949E-01
       2    -1     0     0   502     0  0.000000000E+00  0.000000000E+00  2.481456777E+03  2.481456777E+03  0.000000000E+00  0.00000E+00  9.000E+00
      21    -1     0     0   501   502  0.000000000E+00  0.000000000E+00 -3.559368501E+02  3.559368501E+02  0.000000000E+00  0.00000E+00  9.000E+00
      25     1     1     2     0     0  1.249786713E+02  5.361861548E+01 -1.385748351E+02  2.309168879E+02  1.250000000E+02  0.00000E+00  9.000E+00
      25     1     1     2     0     0  5.100004397E+01 -1.086573664E+02 -1.228471826E+02  2.124237700E+02  1.250000000E+02  0.00000E+00  9.000E+00
       2     1     1     2   501     0 -1.759787153E+02  5.503875095E+01  2.386941945E+03  2.394052969E+03  4.315837288E-05  0.00000E+00  9.000E+00
#rwgt            1           1   3.1673921866632031E-002           7       57806           0
</event>
<event>
      5   9999  3.79277E-02  8.06124E+01 -1.00000E+00  1.28189E-01
      21    -1     0     0   502   511  0.000000000E+00  0.000000000E+00  3.575034052E+02  3.575034052E+02  0.000000000E+00  0.00000E+00  9.000E+00
      21    -1     0     0   501   502  0.000000000E+00  0.000000000E+00 -4.383863036E+02  4.383863036E+02  0.000000000E+00  0.00000E+00  9.000E+00
      25     1     1     2     0     0 -4.514833096E+01 -6.877096053E+01 -5.059543469E+01  1.579642833E+02  1.250000000E+02  0.00000E+00  9.000E+00
      25     1     1     2     0     0  1.113783979E+02  1.147267530E+02 -2.967603289E+02  3.595261717E+02  1.250000000E+02  0.00000E+00  9.000E+00
      21     1     1     2   501   511 -6.623006693E+01 -4.595579252E+01  2.664728651E+02  2.783992537E+02  0.000000000E+00  0.00000E+00  9.000E+00
#rwgt            1           1   7.0107888372738472E-002           7       57860           0
</event>
<event>
      5   9999  3.79277E-02  1.07123E+01 -1.00000E+00  1.92365E-01
      21    -1     0     0   502   501  0.000000000E+00  0.000000000E+00  7.327133543E+02  7.327133543E+02  0.000000000E+00  0.00000E+00  9.000E+00
      21    -1     0     0   501   512  0.000000000E+00  0.000000000E+00 -6.387358811E+01  6.387358811E+01  0.000000000E+00  0.00000E+00  9.000E+00
      25     1     1     2     0     0  8.906754909E+01  6.865897176E+01  3.521896353E+02  3.902686535E+02  1.250000000E+02  0.00000E+00  9.000E+00
      25     1     1     2     0     0 -9.461324185E+01 -5.949393348E+01  3.408454572E+02  3.798576303E+02  1.250000000E+02  0.00000E+00  9.000E+00
      21     1     1     2   502   512  5.545692763E+00 -9.165038281E+00 -2.419532631E+01  2.646065854E+01  5.840038640E-07  0.00000E+00  9.000E+00
#rwgt            1           1   4.0915741222575581E-002           7       58013           0
</event>
<event>
      5   9999  3.79277E-02  3.75592E+01 -1.00000E+00  1.46557E-01
      21    -1     0     0   502   501  0.000000000E+00  0.000000000E+00  5.658417157E+02  5.658417157E+02  0.000000000E+00  0.00000E+00  9.000E+00
      21    -1     0     0   511   502  0.000000000E+00  0.000000000E+00 -3.169203825E+02  3.169203825E+02  0.000000000E+00  0.00000E+00  9.000E+00
      25     1     1     2     0     0 -2.790416896E+02  6.298132351E+01 -1.298875440E+02  3.381222940E+02  1.250000000E+02  0.00000E+00  9.000E+00
      25     1     1     2     0     0  3.165536104E+02 -6.109643535E+01  3.692670798E+02  5.058874765E+02  1.250000000E+02  0.00000E+00  9.000E+00
      21     1     1     2   511   501 -3.751192078E+01 -1.884888160E+00  9.541797434E+00  3.875232770E+01  9.000103993E-07  0.00000E+00  9.000E+00
#rwgt            1           1   4.1873894046692631E-002           7       58258           0
</event>
<event>
      5   9999  3.79277E-02  5.54936E+01 -1.00000E+00  1.36541E-01
      21    -1     0     0   502   501  0.000000000E+00  0.000000000E+00  5.069810183E+02  5.069810183E+02  0.000000000E+00  0.00000E+00  9.000E+00
      21    -1     0     0   512   502  0.000000000E+00  0.000000000E+00 -2.151401291E+02  2.151401291E+02  0.000000000E+00  0.00000E+00  9.000E+00
      25     1     1     2     0     0  4.109732684E+01  1.118286806E+02  2.920818626E+02  3.393102688E+02  1.250000000E+02  0.00000E+00  9.000E+00
      25     1     1     2     0     0 -9.418218689E+01 -9.565659894E+01  1.408060747E+02  2.312397456E+02  1.250000000E+02  0.00000E+00  9.000E+00
      21     1     1     2   512   501  5.308486005E+01 -1.617208169E+01 -1.410470481E+02  1.515711330E+02  1.907348633E-06  0.00000E+00  9.000E+00
#rwgt            1           1   4.4066084067663748E-002           7       58490           0
</event>
<event>
      5   9999  3.79277E-02  7.42903E+01 -1.00000E+00  1.29926E-01
      21    -1     0     0   511   501  0.000000000E+00  0.000000000E+00  2.317687122E+02  2.317687122E+02  0.000000000E+00  0.00000E+00  9.000E+00
      21    -1     0     0   501   502  0.000000000E+00  0.000000000E+00 -3.298855942E+02  3.298855942E+02  0.000000000E+00  0.00000E+00  9.000E+00
      25     1     1     2     0     0  3.746916229E+01 -1.346425304E+02  2.564658475E+01  1.892492970E+02  1.250000000E+02  0.00000E+00  9.000E+00
      25     1     1     2     0     0  3.294310455E+01  1.109535842E+02 -2.021825555E+02  2.643836828E+02  1.250000000E+02  0.00000E+00  9.000E+00
      21     1     1     2   511   502 -7.041226684E+01  2.368894617E+01  7.841908884E+01  1.080213265E+02  1.651812370E-06  0.00000E+00  9.000E+00
#rwgt            1           1   3.5898313249003340E-002           7       58593           0
</event>
<event>
      5   9999  3.79277E-02  6.39686E+01 -1.00000E+00  1.33234E-01
      21    -1     0     0   502   512  0.000000000E+00  0.000000000E+00  1.175729696E+02  1.175729696E+02  0.000000000E+00  0.00000E+00  9.000E+00
      21    -1     0     0   501   502  0.000000000E+00  0.000000000E+00 -9.905373537E+02  9.905373537E+02  0.000000000E+00  0.00000E+00  9.000E+00
      25     1     1     2     0     0 -2.363729722E+02  4.189408471E+01 -4.259683110E+02  5.046794015E+02  1.250000000E+02  0.00000E+00  9.000E+00
      25     1     1     2     0     0  2.255682793E+02 -1.049435667E+02 -4.604309244E+02  5.380667589E+02  1.250000000E+02  0.00000E+00  9.000E+00
      21     1     1     2   501   512  1.080469284E+01  6.304948198E+01  1.343485140E+01  6.536416294E+01  1.507891493E-06  0.00000E+00  9.000E+00
#rwgt            1           1   6.4788061407775696E-002           7       58702           0
</event>
<event>
      5   9999 -3.79277E-02  3.38344E+01 -1.00000E+00  1.49498E-01
       2    -1     0     0   502     0  0.000000000E+00  0.000000000E+00  6.163070026E+02  6.163070026E+02  0.000000000E+00  0.00000E+00  9.000E+00
      21    -1     0     0   501   502  0.000000000E+00  0.000000000E+00 -3.014236593E+02  3.014236593E+02  0.000000000E+00  0.00000E+00  9.000E+00
      25     1     1     2     0     0  1.212988598E+02  5.067590068E+01 -1.006010815E+00  1.814041685E+02  1.250000000E+02  0.00000E+00  9.000E+00
      25     1     1     2     0     0 -1.390001017E+02 -7.951042588E+01 -1.604005306E+02  2.588363698E+02  1.250000000E+02  0.00000E+00  9.000E+00
       2     1     1     2   501     0  1.770124193E+01  2.883452520E+01  4.762898847E+02  4.774901235E+02  7.629394531E-06  0.00000E+00  9.000E+00
#rwgt            1           1  -4.1496850336195670E-002           7       58943           0
</event>
<event>
      5   9999  3.79277E-02  1.12091E+02 -1.00000E+00  1.21639E-01
      21    -1     0     0   502   501  0.000000000E+00  0.000000000E+00  4.755154749E+01  4.755154749E+01  0.000000000E+00  0.00000E+00  9.000E+00
       2    -1     0     0   501     0  0.000000000E+00  0.000000000E+00 -2.162974897E+03  2.162974897E+03  0.000000000E+00  0.00000E+00  9.000E+00
      25     1     1     2     0     0  7.822848334E+01  7.812596307E+01 -8.609996203E+02  8.770226382E+02  1.250000000E+02  0.00000E+00  9.000E+00
      25     1     1     2     0     0  2.872669707E+01 -1.116655212E+02 -1.604498443E+02  2.338024043E+02  1.250000000E+02  0.00000E+00  9.000E+00
       2     1     1     2   502     0 -1.069551804E+02  3.353955813E+01 -1.093973885E+03  1.099701402E+03  1.525878906E-05  0.00000E+00  9.000E+00
#rwgt            1           1   2.8441149120754371E-002           7       59069           0
</event>
<event>
      5   9999  3.79277E-02  8.95331E+01 -1.00000E+00  1.26027E-01
       3    -1     0     0   502     0  0.000000000E+00  0.000000000E+00  1.851669487E+02  1.851669487E+02  0.000000000E+00  0.00000E+00  9.000E+00
      21    -1     0     0   501   502  0.000000000E+00  0.000000000E+00 -4.011002328E+02  4.011002328E+02  0.000000000E+00  0.00000E+00  9.000E+00
      25     1     1     2     0     0  1.487576024E+02  9.888762565E+00 -5.602305449E+01  2.024603530E+02  1.250000000E+02  0.00000E+00  9.000E+00
      25     1     1     2     0     0 -1.121765480E+02 -9.160785896E+01 -2.076462754E+02  2.823429713E+02  1.250000000E+02  0.00000E+00  9.000E+00
       3     1     1     2   501     0 -3.658105441E+01  8.171909639E+01  4.773604580E+01  1.014638572E+02  2.236564522E-06  0.00000E+00  9.000E+00
#rwgt            1           1   4.0956209459168620E-002           7       59165           0
</event>
<event>
      5   9999  3.79277E-02  3.37335E+01 -1.00000E+00  1.49584E-01
      21    -1     0     0   502   501  0.000000000E+00  0.000000000E+00  2.413191568E+01  2.413191568E+01  0.000000000E+00  0.00000E+00  9.000E+00
      21    -1     0     0   501   511  0.000000000E+00  0.000000000E+00 -1.446035739E+03  1.446035739E+03  0.000000000E+00  0.00000E+00  9.000E+00
      25     1     1     2     0     0 -8.676336167E+01 -1.321553889E+01 -7.336678437E+02  7.493971152E+02  1.250000000E+02  0.00000E+00  9.000E+00
      25     1     1     2     0     0  9.867167619E+01 -1.834615780E+01 -4.056164581E+02  4.361449211E+02  1.250000000E+02  0.00000E+00  9.000E+00
      21     1     1     2   502   511 -1.190831452E+01  3.156169669E+01 -2.826195220E+02  2.846256188E+02  0.000000000E+00  0.00000E+00  9.000E+00
#rwgt            1           1   3.3506339189503048E-002           7       59214           0
</event>
<event>
      5   9999  3.79277E-02  9.74052E+01 -1.00000E+00  1.24344E-01
      21    -1     0     0   502   501  0.000000000E+00  0.000000000E+00  3.011583862E+02  3.011583862E+02  0.000000000E+00  0.00000E+00  9.000E+00
      21    -1     0     0   512   502  0.000000000E+00  0.000000000E+00 -2.262485433E+02  2.262485433E+02  0.000000000E+00  0.00000E+00  9.000E+00
      25     1     1     2     0     0 -1.520533135E+02 -4.732386585E+01  1.434007553E+01  2.029541726E+02  1.250000000E+02  0.00000E+00  9.000E+00
      25     1     1     2     0     0  8.678979247E+01  1.196318516E+02  1.017700811E+02  2.186924722E+02  1.250000000E+02  0.00000E+00  9.000E+00
      21     1     1     2   512   501  6.526352099E+01 -7.230798577E+01 -4.120031371E+01  1.057602847E+02  1.430511475E-06  0.00000E+00  9.000E+00
#rwgt            1           1   2.8185945897050708E-002           7       59362           0
</event>
<event>
      5   9999  3.79277E-02  5.80736E+01 -1.00000E+00  1.35465E-01
      21    -1     0     0   502   501  0.000000000E+00  0.000000000E+00  2.498714941E+02  2.498714941E+02  0.000000000E+00  0.00000E+00  9.000E+00
       5    -1     0     0   501     0  0.000000000E+00  0.000000000E+00 -6.717107873E+02  6.717107873E+02  0.000000000E+00  0.00000E+00  9.000E+00
      25     1     1     2     0     0 -1.019139004E+02 -6.300268336E+01 -8.416559164E+01  1.925217599E+02  1.250000000E+02  0.00000E+00  9.000E+00
      25     1     1     2     0     0  9.707532305E+01  5.131050315E+00  1.616994008E+02  2.263219880E+02  1.250000000E+02  0.00000E+00  9.000E+00
       5     1     1     2   502     0  4.838577365E+00  5.787163304E+01 -4.993731024E+02  5.027385336E+02  5.394796609E-06  0.00000E+00  9.000E+00
#rwgt            1           1   3.5789065498535014E-002           7       59430           0
</event>
<event>
      5   9999  3.79277E-02  3.10614E+01 -1.00000E+00  1.51998E-01
      21    -1     0     0   502   501  0.000000000E+00  0.000000000E+00  7.352048333E+02  7.352048333E+02  0.000000000E+00  0.00000E+00  9.000E+00
      21    -1     0     0   511   502  0.000000000E+00  0.000000000E+00 -1.829072762E+02  1.829072762E+02  0.000000000E+00  0.00000E+00  9.000E+00
      25     1     1     2     0     0  8.711437550E+01 -2.175030730E+02  3.361301290E+02  4.283747948E+02  1.250000000E+02  0.00000E+00  9.000E+00
      25     1     1     2     0     0 -7.423725373E+01  2.457694937E+02  2.916187471E+02  4.081425088E+02  1.250000000E+02  0.00000E+00  9.000E+00
      21     1     1     2   511   501 -1.287712177E+01 -2.826642064E+01 -7.545131905E+01  8.159480589E+01  0.000000000E+00  0.00000E+00  9.000E+00
#rwgt            1           1   3.0872122824244088E-002           7       59528           0
</event>
<event>
      5   9999  3.79277E-02  8.08541E+01 -1.00000E+00  1.28127E-01
      21    -1     0     0   502   501  0.000000000E+00  0.000000000E+00  1.989613329E+02  1.989613329E+02  0.000000000E+00  0.00000E+00  9.000E+00
      21    -1     0     0   501   512  0.000000000E+00  0.000000000E+00 -5.325900403E+02  5.325900403E+02  0.000000000E+00  0.00000E+00  9.000E+00
      25     1     1     2     0     0 -1.105970679E+02 -1.621901195E+02 -1.507212806E+01  2.332155984E+02  1.250000000E+02  0.00000E+00  9.000E+00
      25     1     1     2     0     0  1.729662573E+02  2.136437108E+02 -2.603715971E+02  3.987221211E+02  1.250000000E+02  0.00000E+00  9.000E+00
      21     1     1     2   502   512 -6.236918945E+01 -5.145359122E+01 -5.818498231E+01  9.961365372E+01  6.743495762E-07  0.00000E+00  9.000E+00
#rwgt            1           1   2.5878568814616205E-002           7       59678           0
</event>
<event>
      5   9999  3.79277E-02  1.04732E+02 -1.00000E+00  1.22931E-01
      21    -1     0     0   502   501  0.000000000E+00  0.000000000E+00  1.496420613E+02  1.496420613E+02  0.000000000E+00  0.00000E+00  9.000E+00
       2    -1     0     0   501     0  0.000000000E+00  0.000000000E+00 -1.019663769E+03  1.019663769E+03  0.000000000E+00  0.00000E+00  9.000E+00
      25     1     1     2     0     0  1.642553062E+02  3.127945347E+01 -1.136095192E+02  2.376769503E+02  1.250000000E+02  0.00000E+00  9.000E+00
      25     1     1     2     0     0 -1.984685723E+02 -1.302655774E+02 -1.329516972E+02  2.994328783E+02  1.250000000E+02  0.00000E+00  9.000E+00
       2     1     1     2   502     0  3.421326606E+01  9.898612389E+01 -6.234604917E+02  6.321960020E+02  0.000000000E+00  0.00000E+00  9.000E+00
#rwgt            1           1   4.9133806596934684E-002           7       59863           0
</event>
<event>
      5   9999  3.79277E-02  7.46891E+01 -1.00000E+00  1.29810E-01
      21    -1     0     0   502   511  0.000000000E+00  0.000000000E+00  6.096394220E+02  6.096394220E+02  0.000000000E+00  0.00000E+00  9.000E+00
      21    -1     0     0   501   502  0.000000000E+00  0.000000000E+00 -1.178908433E+03  1.178908433E+03  0.000000000E+00  0.00000E+00  9.000E+00
      25     1     1     2     0     0 -9.528259866E+00 -1.384324553E+02 -7.268935242E+02  7.505021838E+02  1.250000000E+02  0.00000E+00  9.000E+00
      25     1     1     2     0     0  8.187703831E+01  1.198820529E+02 -4.168353458E+02  4.587507619E+02  1.250000000E+02  0.00000E+00  9.000E+00
      21     1     1     2   501   511 -7.234877845E+01  1.855040243E+01  5.744598587E+02  5.792949097E+02  1.078959322E-05  0.00000E+00  9.000E+00
#rwgt            1           1   4.0969570872654452E-002           7       59908           0
</event>
<event>
      5   9999  3.79277E-02  6.51111E+01 -1.00000E+00  1.32833E-01
      21    -1     0     0   502   512  0.000000000E+00  0.000000000E+00  2.217352511E+02  2.217352511E+02  0.000000000E+00  0.00000E+00  9.000E+00
      21    -1     0     0   501   502  0.000000000E+00  0.000000000E+00 -2.854234304E+03  2.854234304E+03  0.000000000E+00  0.00000E+00  9.000E+00
      25     1     1     2     0     0  4.079360394E+01  1.597970391E+02 -1.414695155E+03  1.429750536E+03  1.250000000E+02  0.00000E+00  9.000E+00
      25     1     1     2     0     0  1.575427867E+01 -1.275201962E+02 -1.421300043E+03  1.432560089E+03  1.250000000E+02  0.00000E+00  9.000E+00
      21     1     1     2   501   512 -5.654788260E+01 -3.227684289E+01  2.034961448E+02  2.136589305E+02  8.946258087E-06  0.00000E+00  9.000E+00
#rwgt            1           1   2.2868115397378243E-002           7       60020           0
</event>
<event>
      5   9999  3.79277E-02  9.33886E+01 -1.00000E+00  1.25179E-01
      21    -1     0     0   502   501  0.000000000E+00  0.000000000E+00  1.295015233E+03  1.295015233E+03  0.000000000E+00  0.00000E+00  9.000E+00
      21    -1     0     0   501   511  0.000000000E+00  0.000000000E+00 -3.940428347E+01  3.940428347E+01  0.000000000E+00  0.00000E+00  9.000E+00
      25     1     1     2     0     0 -5.770559332E+01 -4.668044088E+01  4.497691680E+02  4.726799166E+02  1.250000000E+02  0.00000E+00  9.000E+00
      25     1     1     2     0     0  1.443463584E+02  8.153464687E+01  6.183458495E+02  6.522732245E+02  1.250000000E+02  0.00000E+00  9.000E+00
      21     1     1     2   502   511 -8.664076512E+01 -3.485420600E+01  1.874959315E+02  2.094663748E+02  2.697398305E-06  0.00000E+00  9.000E+00
#rwgt            1           1   4.4182217777023053E-002           7       60204           0
</event>
<event>
      5   9999  3.79277E-02  4.23391E+01 -1.00000E+00  1.43326E-01
      21    -1     0     0   502   512  0.000000000E+00  0.000000000E+00  2.105843370E+02  2.105843370E+02  0.000000000E+00  0.00000E+00  9.000E+00
      21    -1     0     0   501   502  0.000000000E+00  0.000000000E+00 -3.031610856E+02  3.031610856E+02  0.000000000E+00  0.00000E+00  9.000E+00
      25     1     1     2     0     0 -1.059798754E+02 -1.298615121E+02 -1.529615410E+01  2.096538067E+02  1.250000000E+02  0.00000E+00  9.000E+00
      25     1     1     2     0     0  1.283055322E+02  9.388696333E+01 -1.269812450E+02  2.388018175E+02  1.250000000E+02  0.00000E+00  9.000E+00
      21     1     1     2   501   512 -2.232565676E+01  3.597454877E+01  4.970065058E+01  6.528979842E+01  1.168007728E-06  0.00000E+00  9.000E+00
#rwgt            1           1   3.4638196102039637E-002           7       60254           0
</event>
<event>
      5   9999  3.79277E-02  4.29232E+01 -1.00000E+00  1.42966E-01
      21    -1     0     0   502   501  0.000000000E+00  0.000000000E+00  2.126427150E+02  2.126427150E+02  0.000000000E+00  0.00000E+00  9.000E+00
      21    -1     0     0   511   502  0.000000000E+00  0.000000000E+00 -4.680947171E+02  4.680947171E+02  0.000000000E+00  0.00000E+00  9.000E+00
      25     1     1     2     0     0 -7.047779155E+00 -8.146276971E+01 -6.845139778E+01  1.643059582E+02  1.250000000E+02  0.00000E+00  9.000E+00
      25     1     1     2     0     0 -1.543110246E+00  1.235174809E+02  1.158930289E+02  2.105116230E+02  1.250000000E+02  0.00000E+00  9.000E+00
      21     1     1     2   511   501  8.590889401E+00 -4.205471119E+01 -3.028936332E+02  3.059198509E+02  3.814697266E-06  0.00000E+00  9.000E+00
#rwgt            1           1   4.4676285979046153E-002           7       60431           0
</event>
<event>
      5   9999  3.79277E-02  9.15308E+01 -1.00000E+00  1.25582E-01
      21    -1     0     0   512   501  0.000000000E+00  0.000000000E+00  1.218680454E+03  1.218680454E+03  0.000000000E+00  0.00000E+00  9.000E+00
      21    -1     0     0   501   502  0.000000000E+00  0.000000000E+00 -9.092015465E+01  9.092015465E+01  0.000000000E+00  0.00000E+00  9.000E+00
      25     1     1     2     0     0 -2.023536086E+01  1.043809243E+02  4.373454135E+01  1.698309668E+02  1.250000000E+02  0.00000E+00  9.000E+00
      25     1     1     2     0     0 -7.064553659E+01 -1.152692606E+02  3.115688472E+02  3.619087466E+02  1.250000000E+02  0.00000E+00  9.000E+00
      21     1     1     2   512   502  9.088089745E+01  1.088833632E+01  7.724569106E+02  7.778608951E+02  1.078959322E-05  0.00000E+00  9.000E+00
#rwgt            1           1   3.5963051538120225E-002           7       60571           0
</event>
<event>
      5   9999  3.79277E-02  2.63840E+01 -1.00000E+00  1.57018E-01
      21    -1     0     0   502   511  0.000000000E+00  0.000000000E+00  5.889075714E+01  5.889075714E+01  0.000000000E+00  0.00000E+00  9.000E+00
      21    -1     0     0   501   502  0.000000000E+00  0.000000000E+00 -7.845499560E+02  7.845499560E+02  0.000000000E+00  0.00000E+00  9.000E+00
      25     1     1     2     0     0  1.360072183E+02 -2.485330933E+01 -4.313519678E+02  4.698991067E+02  1.250000000E+02  0.00000E+00  9.000E+00
      25     1     1     2     0     0 -1.551522126E+02  6.698776511E+00 -2.794247912E+02  3.432496127E+02  1.250000000E+02  0.00000E+00  9.000E+00
      21     1     1     2   501   511  1.914499428E+01  1.815453282E+01 -1.488243992E+01  3.029199376E+01  4.460403188E-07  0.00000E+00  9.000E+00
#rwgt            1           1   4.2883067707231499E-002           7       60838           0
</event>
<event>
      5   9999  3.79277E-02  3.66727E+01 -1.00000E+00  1.47219E-01
      -3    -1     0     0     0   501  0.000000000E+00  0.000000000E+00  2.075160745E+02  2.075160745E+02  0.000000000E+00  0.00000E+00  9.000E+00
      21    -1     0     0   501   502  0.000000000E+00  0.000000000E+00 -1.949263758E+02  1.949263758E+02  0.000000000E+00  0.00000E+00  9.000E+00
      25     1     1     2     0     0 -1.297408829E+01  5.180840070E+01  9.578494130E+01  1.662894835E+02  1.250000000E+02  0.00000E+00  9.000E+00
      25     1     1     2     0     0 -1.310460711E+01 -7.759184973E+01 -1.153256643E+02  1.873959304E+02  1.250000000E+02  0.00000E+00  9.000E+00
      -3     1     1     2     0   502  2.607869540E+01  2.578344903E+01  3.213042173E+01  4.875703639E+01  4.768371582E-07  0.00000E+00  9.000E+00
#rwgt            1           1   3.4702532896733834E-002           7       60963           0
</event>
<event>
      5   9999  3.79277E-02  8.43128E+00 -1.00000E+00  2.04733E-01
      21    -1     0     0   502   501  0.000000000E+00  0.000000000E+00  2.976013405E+02  2.976013405E+02  0.000000000E+00  0.00000E+00  9.000E+00
      21    -1     0     0   501   511  0.000000000E+00  0.000000000E+00 -1.583646861E+02  1.583646861E+02  0.000000000E+00  0.00000E+00  9.000E+00
      25     1     1     2     0     0 -9.463544936E+01 -7.148414754E+01  1.771400358E+02  2.471223258E+02  1.250000000E+02  0.00000E+00  9.000E+00
      25     1     1     2     0     0  8.624442870E+01  7.066116412E+01  2.552082153E+00  1.675189981E+02  1.250000000E+02  0.00000E+00  9.000E+00
      21     1     1     2   502   511  8.391020653E+00  8.229834229E-01 -4.045546352E+01  4.132470275E+01  4.768371582E-07  0.00000E+00  9.000E+00
#rwgt            1           1   3.8682945468174877E-002           7       61176           0
</event>
<event>
      5   9999  3.79277E-02  1.13156E+02 -1.00000E+00  1.21461E-01
      21    -1     0     0   502   512  0.000000000E+00  0.000000000E+00  1.004436782E+03  1.004436782E+03  0.000000000E+00  0.00000E+00  9.000E+00
      21    -1     0     0   501   502  0.000000000E+00  0.000000000E+00 -2.105170905E+02  2.105170905E+02  0.000000000E+00  0.00000E+00  9.000E+00
      25     1     1     2     0     0 -1.803491286E+02 -1.710066593E+02  5.692810433E+01  2.839628404E+02  1.250000000E+02  0.00000E+00  9.000E+00
      25     1     1     2     0     0  1.923980177E+02  5.849413010E+01  5.953261211E+01  2.441468664E+02  1.250000000E+02  0.00000E+00  9.000E+00
      21     1     1     2   501   512 -1.204888909E+01  1.125125292E+02  6.774589746E+02  6.868441652E+02  7.629394531E-06  0.00000E+00  9.000E+00
#rwgt            1           1   4.9008480441722437E-002           7       61592           0
</event>
<event>
      5   9999  3.79277E-02  6.00883E+01 -1.00000E+00  1.34669E-01
      21    -1     0     0   511   501  0.000000000E+00  0.000000000E+00  4.334265305E+02  4.334265305E+02  0.000000000E+00  0.00000E+00  9.000E+00
      21    -1     0     0   501   502  0.000000000E+00  0.000000000E+00 -1.184725746E+02  1.184725746E+02  0.000000000E+00  0.00000E+00  9.000E+00
      25     1     1     2     0     0  7.102959137E+01  1.232689154E+02  8.838888430E+01  2.089928784E+02  1.250000000E+02  0.00000E+00  9.000E+00
      25     1     1     2     0     0 -1.689808147E+01 -1.493529920E+02  1.551595942E+02  2.495823733E+02  1.250000000E+02  0.00000E+00  9.000E+00
      21     1     1     2   511   502 -5.413150990E+01  2.608407663E+01  7.140547736E+01  9.332385341E+01  9.536743164E-07  0.00000E+00  9.000E+00
#rwgt            1           1   4.1738223779024503E-002           7       61648           0
</event>
<event>
      5   9999  3.79277E-02  1.16866E+02 -1.00000E+00  1.20858E-01
      21    -1     0     0   502   501  0.000000000E+00  0.000000000E+00  3.995899489E+02  3.995899489E+02  0.000000000E+00  0.00000E+00  9.000E+00
      21    -1     0     0   501   512  0.000000000E+00  0.000000000E+00 -9.276302038E+02  9.276302038E+02  0.000000000E+00  0.00000E+00  9.000E+00
      25     1     1     2     0     0  1.738604161E+02  2.169220725E+02 -6.831610087E+01  3.123695239E+02  1.250000000E+02  0.00000E+00  9.000E+00
      25     1     1     2     0     0 -5.889729035E+01 -1.959175553E+02  2.198584330E+02  3.252926527E+02  1.250000000E+02  0.00000E+00  9.000E+00
      21     1     1     2   502   512 -1.149631257E+02 -2.100451712E+01 -6.795825870E+02  6.895579762E+02  7.629394531E-06  0.00000E+00  9.000E+00
#rwgt            1           1   3.8858942038693244E-002           7       61760           0
</event>
<event>
      5   9999  3.79277E-02  2.01858E+02 -1.00000E+00  1.11502E-01
      21    -1     0     0   502   501  0.000000000E+00  0.000000000E+00  9.901141614E+01  9.901141614E+01  0.000000000E+00  0.00000E+00  9.000E+00
      21    -1     0     0   501   511  0.000000000E+00  0.000000000E+00 -1.307008290E+03  1.307008290E+03  0.000000000E+00  0.00000E+00  9.000E+00
      25     1     1     2     0     0  1.339761774E+02 -1.593308024E+01 -5.145587398E+02  5.464422896E+02  1.250000000E+02  0.00000E+00  9.000E+00
      25     1     1     2     0     0 -1.337785046E+02 -1.859248873E+02 -2.075151163E+02  3.333950742E+02  1.250000000E+02  0.00000E+00  9.000E+00
      21     1     1     2   502   511 -1.976728103E-01  2.018579675E+02 -4.859230176E+02  5.261823421E+02  5.394796609E-06  0.00000E+00  9.000E+00
#rwgt            1           1   3.7170888916023062E-002           7       61943           0
</event>
<event>
      5   9999  3.79277E-02  1.33141E+02 -1.00000E+00  1.18483E-01
      21    -1     0     0   512   501  0.000000000E+00  0.000000000E+00  1.296558250E+02  1.296558250E+02  0.000000000E+00  0.00000E+00  9.000E+00
      21    -1     0     0   501   502  0.000000000E+00  0.000000000E+00 -1.239846376E+03  1.239846376E+03  0.000000000E+00  0.00000E+00  9.000E+00
      25     1     1     2     0     0  7.482081217E+01 -2.781083692E+02 -6.152908018E+02  6.907605879E+02  1.250000000E+02  0.00000E+00  9.000E+00
      25     1     1     2     0     0 -1.561672760E+02  1.727082970E+02 -4.757598203E+02  5.442322855E+02  1.250000000E+02  0.00000E+00  9.000E+00
      21     1     1     2   512   502  8.134646379E+01  1.054000722E+02 -1.913992914E+01  1.345093279E+02  1.283923342E-06  0.00000E+00  9.000E+00
#rwgt            1           1   3.1361650350637760E-002           7       62022           0
</event>
<event>
      5   9999  3.79277E-02  8.32641E+00 -1.00000E+00  2.05425E-01
      21    -1     0     0   502   501  0.000000000E+00  0.000000000E+00  3.052921871E+02  3.052921871E+02  0.000000000E+00  0.00000E+00  9.000E+00
      21    -1     0     0   501   511  0.000000000E+00  0.000000000E+00 -1.358325399E+02  1.358325399E+02  0.000000000E+00  0.00000E+00  9.000E+00
      25     1     1     2     0     0 -2.667732009E+01  5.201070962E+01 -6.709972923E+01  1.534410864E+02  1.250000000E+02  0.00000E+00  9.000E+00
      25     1     1     2     0     0  3.264332258E+01 -4.620245013E+01  2.416783980E+02  2.779095194E+02  1.250000000E+02  0.00000E+00  9.000E+00
      21     1     1     2   502   511 -5.966002483E+00 -5.808259494E+00 -5.119021609E+00  9.774121250E+00  1.788139343E-07  0.00000E+00  9.000E+00
#rwgt            1           1   4.4441025816377232E-002           7       62309           0
</event>
<event>
      5   9999  3.79277E-02  2.82161E+01 -1.00000E+00  1.54912E-01
      21    -1     0     0   502   501  0.000000000E+00  0.000000000E+00  1.812907573E+02  1.812907573E+02  0.000000000E+00  0.00000E+00  9.000E+00
      21    -1     0     0   512   502  0.000000000E+00  0.000000000E+00 -8.398906752E+02  8.398906752E+02  0.000000000E+00  0.00000E+00  9.000E+00
      25     1     1     2     0     0  9.408917633E+00 -6.278577288E+01  1.392190495E+02  1.975791607E+02  1.250000000E+02  0.00000E+00  9.000E+00
      25     1     1     2     0     0 -3.434067462E+00  3.520952613E+01 -3.258636609E+02  3.508042603E+02  1.250000000E+02  0.00000E+00  9.000E+00
      21     1     1     2   512   501 -5.974850171E+00  2.757624675E+01 -4.719553066E+02  4.727980114E+02  0.000000000E+00  0.00000E+00  9.000E+00
#rwgt            1           1   4.4632993336472249E-002           7       62652           0
</event>
<event>
      5   9999  3.79277E-02  4.99382E+01 -1.00000E+00  1.39106E-01
      21    -1     0     0   502   501  0.000000000E+00  0.000000000E+00  1.184297697E+02  1.184297697E+02  0.000000000E+00  0.00000E+00  9.000E+00
       2    -1     0     0   501     0  0.000000000E+00  0.000000000E+00 -1.366290027E+03  1.366290027E+03  0.000000000E+00  0.00000E+00  9.000E+00
      25     1     1     2     0     0 -6.681035239E+01 -9.700311079E+01 -1.317425109E+02  2.164585777E+02  1.250000000E+02  0.00000E+00  9.000E+00
      25     1     1     2     0     0  1.765733557E+01  1.058240692E+02 -1.433920348E+01  1.653515282E+02  1.250000000E+02  0.00000E+00  9.000E+00
       2     1     1     2   502     0  4.915301682E+01 -8.820958409E+00 -1.101778543E+03  1.102909691E+03  0.000000000E+00  0.00000E+00  9.000E+00
#rwgt            1           1   5.4132804123059486E-002           7       62787           0
</event>
<event>
      5   9999  3.79277E-02  1.66588E+02 -1.00000E+00  1.14616E-01
      21    -1     0     0   502   511  0.000000000E+00  0.000000000E+00  1.909087501E+03  1.909087501E+03  0.000000000E+00  0.00000E+00  9.000E+00
      21    -1     0     0   501   502  0.000000000E+00  0.000000000E+00 -9.656794682E+01  9.656794682E+01  0.000000000E+00  0.00000E+00  9.000E+00
      25     1     1     2     0     0 -2.407451298E+02 -6.442223686E+01  2.398961042E+02  3.678091665E+02  1.250000000E+02  0.00000E+00  9.000E+00
      25     1     1     2     0     0  1.111415289E+02  1.690855156E+02  5.160524845E+02  5.682231232E+02  1.250000000E+02  0.00000E+00  9.000E+00
      21     1     1     2   501   511  1.296036009E+02 -1.046632787E+02  1.056570965E+03  1.069623158E+03  1.525878906E-05  0.00000E+00  9.000E+00
#rwgt            2          11   9.8082792223614431E-004           7       62919           0
</event>
<event>
      5   9999  3.79277E-02  3.82979E+01 -1.00000E+00  1.46021E-01
      21    -1     0     0   502   512  0.000000000E+00  0.000000000E+00  1.299638379E+03  1.299638379E+03  0.000000000E+00  0.00000E+00  9.000E+00
      21    -1     0     0   501   502  0.000000000E+00  0.000000000E+00 -4.707509787E+01  4.707509787E+01  0.000000000E+00  0.00000E+00  9.000E+00
      25     1     1     2     0     0  1.688283592E+02  5.270150134E+01  6.063876295E+02  6.439032694E+02  1.250000000E+02  0.00000E+00  9.000E+00
      25     1     1     2     0     0 -1.791883906E+02 -1.583149877E+01  4.228117969E+02  4.761868659E+02  1.250000000E+02  0.00000E+00  9.000E+00
      21     1     1     2   501   512  1.036003140E+01 -3.687000257E+01  2.233638552E+02  2.266233420E+02  3.814697266E-06  0.00000E+00  9.000E+00
#rwgt            1           1   3.9720592080176309E-002           7       62954           0
</event>
<event>
      5   9999  3.79277E-02  6.85442E+01 -1.00000E+00  1.31685E-01
      21    -1     0     0   511   501  0.000000000E+00  0.000000000E+00  1.241646709E+03  1.241646709E+03  0.000000000E+00  0.00000E+00  9.000E+00
      21    -1     0     0   501   502  0.000000000E+00  0.000000000E+00 -1.196265981E+02  1.196265981E+02  0.000000000E+00  0.00000E+00  9.000E+00
      25     1     1     2     0     0 -3.891973292E+01 -2.527607980E+02  3.021650689E+02  4.151282879E+02  1.250000000E+02  0.00000E+00  9.000E+00
      25     1     1     2     0     0 -1.870603359E+01  2.156450221E+02  1.936323616E+02  3.161821986E+02  1.250000000E+02  0.00000E+00  9.000E+00
      21     1     1     2   511   502  5.762576652E+01  3.711577586E+01  6.262226805E+02  6.299628207E+02  0.000000000E+00  0.00000E+00  9.000E+00
#rwgt            1           1   2.8412393519499639E-002           7       63128           0
</event>
<event>
      5   9999  3.79277E-02  1.09881E+02 -1.00000E+00  1.22015E-01
       1    -1     0     0   502     0  0.000000000E+00  0.000000000E+00  2.034211350E+03  2.034211350E+03  0.000000000E+00  0.00000E+00  9.000E+00
      21    -1     0     0   501   502  0.000000000E+00  0.000000000E+00 -7.999859453E+01  7.999859453E+01  0.000000000E+00  0.00000E+00  9.000E+00
      25     1     1     2     0     0  6.116264375E+01  2.856290439E+02  4.466364734E+02  5.481185630E+02  1.250000000E+02  0.00000E+00  9.000E+00
      25     1     1     2     0     0 -1.098116954E+02 -1.871048684E+02  5.761255448E+02  6.281818873E+02  1.250000000E+02  0.00000E+00  9.000E+00
       1     1     1     2   501     0  4.864905170E+01 -9.852417549E+01  9.314507373E+02  9.379094943E+02  1.078959322E-05  0.00000E+00  9.000E+00
#rwgt            1           1   3.3745788080294943E-002           7       63251           0
</event>
<event>
      5   9999  3.79277E-02  1.53889E+02 -1.00000E+00  1.15955E-01
      21    -1     0     0   502   501  0.000000000E+00  0.000000000E+00  6.106991020E+02  6.106991020E+02  0.000000000E+00  0.00000E+00  9.000E+00
      21    -1     0     0   501   511  0.000000000E+00  0.000000000E+00 -2.859021721E+02  2.859021721E+02  0.000000000E+00  0.00000E+00  9.000E+00
      25     1     1     2     0     0 -2.207257143E+02  2.081256113E+02  5.451150472E+01  3.326148150E+02  1.250000000E+02  0.00000E+00  9.000E+00
      25     1     1     2     0     0  2.722019785E+02 -6.310158254E+01  2.728762455E+02  4.100758127E+02  1.250000000E+02  0.00000E+00  9.000E+00
      21     1     1     2   502   511 -5.147626426E+01 -1.450240288E+02 -2.590820284E+00  1.539106463E+02  3.823650738E-06  0.00000E+00  9.000E+00
#rwgt            1           1   3.5369670141594908E-002           7       63412           0
</event>
<event>
      5   9999  3.79277E-02  4.98677E+01 -1.00000E+00  1.39141E-01
      21    -1     0     0   502   501  0.000000000E+00  0.000000000E+00  3.466110678E+02  3.466110678E+02  0.000000000E+00  0.00000E+00  9.000E+00
      21    -1     0     0   501   512  0.000000000E+00  0.000000000E+00 -1.915616048E+03  1.915616048E+03  0.000000000E+00  0.00000E+00  9.000E+00
      25     1     1     2     0     0  8.590196478E+01 -1.129774455E+02 -3.532021948E+02  4.006492745E+02  1.250000000E+02  0.00000E+00  9.000E+00
      25     1     1     2     0     0 -4.465244064E+01  1.410000939E+02  2.934038488E+02  3.515475579E+02  1.250000000E+02  0.00000E+00  9.000E+00
      21     1     1     2   502   512 -4.124952415E+01 -2.802264842E+01 -1.509206634E+03  1.510030283E+03  2.157918644E-05  0.00000E+00  9.000E+00
#rwgt            1           1   4.5122462146155617E-002           7       63575           0
</event>
<event>
      5   9999  3.79277E-02  9.36684E+01 -1.00000E+00  1.25119E-01
      21    -1     0     0   502   501  0.000000000E+00  0.000000000E+00  1.064774770E+03  1.064774770E+03  0.000000000E+00  0.00000E+00  9.000E+00
      21    -1     0     0   501   511  0.000000000E+00  0.000000000E+00 -1.016024808E+03  1.016024808E+03  0.000000000E+00  0.00000E+00  9.000E+00
      25     1     1     2     0     0 -6.777792768E+01  5.470451897E+01  9.333530241E+02  9.457057150E+02  1.250000000E+02  0.00000E+00  9.000E+00
      25     1     1     2     0     0  1.559155619E+02 -8.641445666E+01  2.637578130E+01  2.193121123E+02  1.250000000E+02  0.00000E+00  9.000E+00
      21     1     1     2   502   511 -8.813763422E+01  3.170993769E+01 -9.109788430E+02  9.157817508E+02  1.078959322E-05  0.00000E+00  9.000E+00
#rwgt            1           1   4.1990908378676951E-002           7       63730           0
</event>
<event>
      5   9999  3.79277E-02  1.32389E+02 -1.00000E+00  1.18585E-01
      21    -1     0     0   502   501  0.000000000E+00  0.000000000E+00  1.442986069E+02  1.442986069E+02  0.000000000E+00  0.00000E+00  9.000E+00
      21    -1     0     0   512   502  0.000000000E+00  0.000000000E+00 -8.637437149E+02  8.637437149E+02  0.000000000E+00  0.00000E+00  9.000E+00
      25     1     1     2     0     0  1.491822866E+02 -1.296703126E+02 -2.679033656E+02  3.556219312E+02  1.250000000E+02  0.00000E+00  9.000E+00
      25     1     1     2     0     0 -2.043639010E+02  9.329776274E+00 -7.180112124E+01  2.502639602E+02  1.250000000E+02  0.00000E+00  9.000E+00
      21     1     1     2   512   501  5.518161433E+01  1.203405363E+02 -3.797406212E+02  4.021564305E+02  7.629394531E-06  0.00000E+00  9.000E+00
#rwgt            1           1  0.11342605796146522                7       63831           0
</event>
<event>
      5   9999  3.79277E-02  6.85532E+01 -1.00000E+00  1.31682E-01
      21    -1     0     0   502   501  0.000000000E+00  0.000000000E+00  6.958882257E+02  6.958882257E+02  0.000000000E+00  0.00000E+00  9.000E+00
      21    -1     0     0   501   511  0.000000000E+00  0.000000000E+00 -1.452090150E+03  1.452090150E+03  0.000000000E+00  0.00000E+00  9.000E+00
      25     1     1     2     0     0 -1.422103420E+02  2.211035744E+01  2.899286387E+02  3.469816491E+02  1.250000000E+02  0.00000E+00  9.000E+00
      25     1     1     2     0     0  1.269176441E+02 -8.893609368E+01  3.502754846E+02  4.029089627E+02  1.250000000E+02  0.00000E+00  9.000E+00
      21     1     1     2   502   511  1.529269794E+01  6.682573624E+01 -1.396406047E+03  1.398087764E+03  1.525878906E-05  0.00000E+00  9.000E+00
#rwgt            1           1   3.2785060147728209E-002           7       63918           0
</event>
<event>
      5   9999  3.79277E-02  1.36752E+02 -1.00000E+00  1.18008E-01
      21    -1     0     0   502   501  0.000000000E+00  0.000000000E+00  1.209334007E+03  1.209334007E+03  0.000000000E+00  0.00000E+00  9.000E+00
      21    -1     0     0   501   512  0.000000000E+00  0.000000000E+00 -5.360471878E+01  5.360471878E+01  0.000000000E+00  0.00000E+00  9.000E+00
      25     1     1     2     0     0 -1.193151580E+02 -7.296398721E+01  3.359227103E+02  3.847452633E+02  1.250000000E+02  0.00000E+00  9.000E+00
      25     1     1     2     0     0 -5.396019080E+00  1.685574628E+01  6.397794150E+02  6.521165026E+02  1.250000000E+02  0.00000E+00  9.000E+00
      21     1     1     2   502   512  1.247111771E+02  5.610824093E+01  1.800271634E+02  2.260769602E+02  4.672030912E-06  0.00000E+00  9.000E+00
#rwgt            1           1   3.0977013759697709E-002           7       63999           0
</event>
<event>
      5   9999  3.79277E-02  6.45535E+00 -1.00000E+00  2.20649E-01
      21    -1     0     0   511   501  0.000000000E+00  0.000000000E+00  6.175935668E+02  6.175935668E+02  0.000000000E+00  0.00000E+00  9.000E+00
      21    -1     0     0   501   502  0.000000000E+00  0.000000000E+00 -1.001348771E+02  1.001348771E+02  0.000000000E+00  0.00000E+00  9.000E+00
      25     1     1     2     0     0  1.389739019E+02  3.860427962E+00  3.078481475E+02  3.601723619E+02  1.250000000E+02  0.00000E+00  9.000E+00
      25     1     1     2     0     0 -1.454253356E+02 -4.085227748E+00  5.053985742E+01  1.983544668E+02  1.250000000E+02  0.00000E+00  9.000E+00
      21     1     1     2   511   502  6.451433656E+00  2.247997863E-01  1.590706847E+02  1.592016152E+02  2.697398305E-06  0.00000E+00  9.000E+00
#rwgt            1           1   4.4212925142552637E-002           7       64048           0
</event>
<event>
      5   9999  3.79277E-02  2.54657E+01 -1.00000E+00  1.58153E-01
      21    -1     0     0   502   501  0.000000000E+00  0.000000000E+00  9.084553367E+01  9.084553367E+01  0.000000000E+00  0.00000E+00  9.000E+00
      21    -1     0     0   512   502  0.000000000E+00  0.000000000E+00 -8.577842497E+02  8.577842497E+02  0.000000000E+00  0.00000E+00  9.000E+00
      25     1     1     2     0     0 -1.491763570E+02 -1.207749498E+02 -1.355866934E+02  2.661746145E+02  1.250000000E+02  0.00000E+00  9.000E+00
      25     1     1     2     0     0  1.267595441E+02  1.328575283E+02 -4.791459246E+02  5.281334319E+02  1.250000000E+02  0.00000E+00  9.000E+00
      21     1     1     2   512   501  2.241681293E+01 -1.208257853E+01 -1.522060980E+02  1.543217369E+02  2.697398305E-06  0.00000E+00  9.000E+00
#rwgt            1           1  0.12474884151312500                7       64279           0
</event>
<event>
      5   9999  3.79277E-02  3.57235E+02 -1.00000E+00  1.03185E-01
      21    -1     0     0   502   501  0.000000000E+00  0.000000000E+00  1.884451061E+03  1.884451061E+03  0.000000000E+00  0.00000E+00  9.000E+00
       1    -1     0     0   501     0  0.000000000E+00  0.000000000E+00 -1.238051288E+03  1.238051288E+03  0.000000000E+00  0.00000E+00  9.000E+00
      25     1     1     2     0     0  3.137089650E+01 -3.135671740E+02  1.618795186E+03  1.653913951E+03  1.250000000E+02  0.00000E+00  9.000E+00
      25     1     1     2     0     0  1.524035156E+02  7.227378540E+00  1.769645390E+02  2.649915369E+02  1.250000000E+02  0.00000E+00  9.000E+00
       1     1     1     2   502     0 -1.837744121E+02  3.063397954E+02 -1.149359951E+03  1.203596861E+03  1.525878906E-05  0.00000E+00  9.000E+00
#rwgt            2          12   8.3904483255343304E-003           7       64457           0
</event>
<event>
      5   9999  3.79277E-02  1.17731E+01 -1.00000E+00  1.87904E-01
      21    -1     0     0   502   511  0.000000000E+00  0.000000000E+00  2.759106156E+02  2.759106156E+02  0.000000000E+00  0.00000E+00  9.000E+00
      21    -1     0     0   501   502  0.000000000E+00  0.000000000E+00 -1.898672333E+02  1.898672333E+02  0.000000000E+00  0.00000E+00  9.000E+00
      25     1     1     2     0     0  9.521631552E+01 -1.150267910E+02 -6.853878899E+01  2.064458161E+02  1.250000000E+02  0.00000E+00  9.000E+00
      25     1     1     2     0     0 -8.669169209E+01  1.231468840E+02  1.402342986E+02  2.407722223E+02  1.250000000E+02  0.00000E+00  9.000E+00
      21     1     1     2   501   511 -8.524623425E+00 -8.120092997E+00  1.434787266E+01  1.855981047E+01  2.920019320E-07  0.00000E+00  9.000E+00
#rwgt            1           1   2.9460974423467165E-002           7       64521           0
</event>
<event>
      5   9999 -3.79277E-02  5.60133E+01 -1.00000E+00  1.36319E-01
      21    -1     0     0   502   512  0.000000000E+00  0.000000000E+00  1.926175850E+02  1.926175850E+02  0.000000000E+00  0.00000E+00  9.000E+00
      21    -1     0     0   501   502  0.000000000E+00  0.000000000E+00 -4.282177266E+02  4.282177266E+02  0.000000000E+00  0.00000E+00  9.000E+00
      25     1     1     2     0     0  6.230190880E+01 -5.069290950E+01 -1.177430211E+02  1.895777359E+02  1.250000000E+02  0.00000E+00  9.000E+00
      25     1     1     2     0     0 -1.042704140E+02  8.778917545E+01 -2.363991996E+02  3.001480304E+02  1.250000000E+02  0.00000E+00  9.000E+00
      21     1     1     2   501   512  4.196850521E+01 -3.709626595E+01  1.185420791E+02  1.311095454E+02  1.907348633E-06  0.00000E+00  9.000E+00
#rwgt            1           1  -4.2967954378991202E-002           7       64827           0
</event>
<event>
      5   9999  3.79277E-02  3.17758E+02 -1.00000E+00  1.04787E-01
      21    -1     0     0   502   511  0.000000000E+00  0.000000000E+00  1.632643123E+03  1.632643123E+03  0.000000000E+00  0.00000E+00  9.000E+00
      21    -1     0     0   501   502  0.000000000E+00  0.000000000E+00 -1.668231254E+02  1.668231254E+02  0.000000000E+00  0.00000E+00  9.000E+00
      25     1     1     2     0     0  1.309250552E+02  1.542397341E+02  4.410294019E+01  2.418704922E+02  1.250000000E+02  0.00000E+00  9.000E+00
      25     1     1     2     0     0 -2.406841979E+02  1.439603410E+02  5.520302027E+02  6.316769804E+02  1.250000000E+02  0.00000E+00  9.000E+00
      21     1     1     2   501   511  1.097591427E+02 -2.982000752E+02  8.696868549E+02  9.259187760E+02  2.157918644E-05  0.00000E+00  9.000E+00
#rwgt            2          11   7.6271525388022735E-004           7       65020           0
</event>
<event>
      5   9999  3.79277E-02  2.65697E+01 -1.00000E+00  1.56795E-01
      21    -1     0     0   502   501  0.000000000E+00  0.000000000E+00  7.682590312E+02  7.682590312E+02  0.000000000E+00  0.00000E+00  9.000E+00
      21    -1     0     0   501   512  0.000000000E+00  0.000000000E+00 -1.434944334E+02  1.434944334E+02  0.000000000E+00  0.00000E+00  9.000E+00
      25     1     1     2     0     0 -2.186821679E+02  1.707136653E+01  2.401163791E+02  3.484167011E+02  1.250000000E+02  0.00000E+00  9.000E+00
      25     1     1     2     0     0  2.162067913E+02 -4.352552856E+01  4.366707236E+02  5.049219436E+02  1.250000000E+02  0.00000E+00  9.000E+00
      21     1     1     2   502   512  2.475376561E+00  2.645416203E+01 -5.202250482E+01  5.841481991E+01  6.743495762E-07  0.00000E+00  9.000E+00
#rwgt            1           1   4.6304480904372662E-002           7       65070           0
</event>
<event>
      5   9999  3.79277E-02  3.23452E+02 -1.00000E+00  1.04541E-01
      21    -1     0     0   502   501  0.000000000E+00  0.000000000E+00  6.500376127E+02  6.500376127E+02  0.000000000E+00  0.00000E+00  9.000E+00
      21    -1     0     0   511   502  0.000000000E+00  0.000000000E+00 -4.859001385E+02  4.859001385E+02  0.000000000E+00  0.00000E+00  9.000E+00
      25     1     1     2     0     0 -1.335169264E+02 -1.292929287E+02  2.377959488E+02  3.266731460E+02  1.250000000E+02  0.00000E+00  9.000E+00
      25     1     1     2     0     0  4.523744774E+02  7.497179967E+01  9.209275545E+00  4.753664368E+02  1.250000000E+02  0.00000E+00  9.000E+00
      21     1     1     2   511   501 -3.188575509E+02  5.432112902E+01 -8.286775023E+01  3.338981684E+02  5.878843310E-06  0.00000E+00  9.000E+00
#rwgt            2          11   1.4189344161155710E-003           7       65327           0
</event>
<event>
      5   9999 -4.37986E-02  1.00930E+02 -1.00000E+00  1.23647E-01
      21    -1     0     0   502   501  0.000000000E+00  0.000000000E+00  1.665712275E+02  1.665712275E+02  0.000000000E+00  0.00000E+00  9.000E+00
      21    -1     0     0   501   512  0.000000000E+00  0.000000000E+00 -6.347691503E+02  6.347691503E+02  0.000000000E+00  0.00000E+00  9.000E+00
      25     1     1     2     0     0 -1.285879876E+02  1.855963306E+02 -3.242481901E+02  4.144185774E+02  1.250000000E+02  0.00000E+00  9.000E+00
      25     1     1     2     0     0  1.423238234E+02 -8.560548965E+01  3.901822333E+00  2.079052543E+02  1.250000000E+02  0.00000E+00  9.000E+00
      21     1     1     2   502   512 -1.373583581E+01 -9.999084095E+01 -1.478515550E+02  1.790165461E+02  3.303624740E-06  0.00000E+00  9.000E+00
#rwgt            1           1 -0.16193786260266507                7       65407           0
</event>
<event>
      5   9999  3.79277E-02  4.00214E+01 -1.00000E+00  1.44826E-01
      21    -1     0     0   511   501  0.000000000E+00  0.000000000E+00  2.794534533E+02  2.794534533E+02  0.000000000E+00  0.00000E+00  9.000E+00
      21    -1     0     0   501   502  0.000000000E+00  0.000000000E+00 -3.300266082E+02  3.300266082E+02  0.000000000E+00  0.00000E+00  9.000E+00
      25     1     1     2     0     0  1.542468385E+02 -1.376125130E+01 -1.796670615E+02  2.681169749E+02  1.250000000E+02  0.00000E+00  9.000E+00
      25     1     1     2     0     0 -1.810921426E+02 -1.592106437E+01  1.577265931E+01  2.211823257E+02  1.250000000E+02  0.00000E+00  9.000E+00
      21     1     1     2   511   502  2.684530409E+01  2.968231567E+01  1.133212473E+02  1.201807609E+02  1.348699152E-06  0.00000E+00  9.000E+00
#rwgt            1           1   3.5500451386854738E-002           7       65468           0
</event>
<event>
      5   9999  3.79277E-02  5.05165E+01 -1.00000E+00  1.38821E-01
      21    -1     0     0   512   501  0.000000000E+00  0.000000000E+00  1.312885010E+02  1.312885010E+02  0.000000000E+00  0.00000E+00  9.000E+00
      21    -1     0     0   501   502  0.000000000E+00  0.000000000E+00 -6.427756862E+02  6.427756862E+02  0.000000000E+00  0.00000E+00  9.000E+00
      25     1     1     2     0     0 -7.898829909E+01 -1.796022565E+02 -1.788689874E+02  2.934539770E+02  1.250000000E+02  0.00000E+00  9.000E+00
      25     1     1     2     0     0  3.845951270E+01  2.097574362E+02 -3.488503550E+02  4.275498642E+02  1.250000000E+02  0.00000E+00  9.000E+00
      21     1     1     2   512   502  4.052878639E+01 -3.015517969E+01  1.623215734E+01  5.306034603E+01  5.840038640E-07  0.00000E+00  9.000E+00
#rwgt            1           1   3.9501213522654587E-002           7       65745           0
</event>
<event>
      5   9999  3.79277E-02  1.26966E+02 -1.00000E+00  1.19337E-01
      21    -1     0     0   511   501  0.000000000E+00  0.000000000E+00  1.185508743E+03  1.185508743E+03  0.000000000E+00  0.00000E+00  9.000E+00
      21    -1     0     0   501   502  0.000000000E+00  0.000000000E+00 -7.921184589E+01  7.921184589E+01  0.000000000E+00  0.00000E+00  9.000E+00
      25     1     1     2     0     0  9.366856617E+01  6.707696758E+01  4.252577692E+02  4.579762987E+02  1.250000000E+02  0.00000E+00  9.000E+00
      25     1     1     2     0     0 -1.646735082E+02 -1.723325578E+02  2.901983377E+02  3.957978651E+02  1.250000000E+02  0.00000E+00  9.000E+00
      21     1     1     2   511   502  7.100494207E+01  1.052555902E+02  3.908407904E+02  4.109464253E+02  0.000000000E+00  0.00000E+00  9.000E+00
#rwgt            2          11   1.7766482861618048E-003           7       65830           0
</event>
<event>
      5   9999  3.79277E-02  1.44140E+01 -1.00000E+00  1.79030E-01
      21    -1     0     0   502   501  0.000000000E+00  0.000000000E+00  1.288862182E+02  1.288862182E+02  0.000000000E+00  0.00000E+00  9.000E+00
      21    -1     0     0   512   502  0.000000000E+00  0.000000000E+00 -2.000896414E+03  2.000896414E+03  0.000000000E+00  0.00000E+00  9.000E+00
      25     1     1     2     0     0 -1.470729757E+02  1.200581278E+01 -9.072589777E+02  9.276413382E+02  1.250000000E+02  0.00000E+00  9.000E+00
      25     1     1     2     0     0  1.448356170E+02  2.233507145E+00  4.150609858E+01  1.957807466E+02  1.250000000E+02  0.00000E+00  9.000E+00
      21     1     1     2   512   501  2.237358709E+00 -1.423931992E+01 -1.006257316E+03  1.006360547E+03  1.525878906E-05  0.00000E+00  9.000E+00
#rwgt            1           1   4.7273522570206082E-002           7       65850           0
</event>
<event>
      5   9999  3.79277E-02  4.89050E+01 -1.00000E+00  1.39626E-01
      21    -1     0     0   502   501  0.000000000E+00  0.000000000E+00  4.081004138E+02  4.081004138E+02  0.000000000E+00  0.00000E+00  9.000E+00
      21    -1     0     0   511   502  0.000000000E+00  0.000000000E+00 -3.259641492E+02  3.259641492E+02  0.000000000E+00  0.00000E+00  9.000E+00
      25     1     1     2     0     0  8.742440526E+00  2.234121521E+02  2.824120703E+02  3.812754876E+02  1.250000000E+02  0.00000E+00  9.000E+00
      25     1     1     2     0     0 -3.272873831E+01 -1.807934744E+02 -1.051827539E+02  2.458574026E+02  1.250000000E+02  0.00000E+00  9.000E+00
      21     1     1     2   511   501  2.398629778E+01 -4.261867776E+01 -9.509305172E+01  1.069316729E+02  1.348699152E-06  0.00000E+00  9.000E+00
#rwgt            1           1   4.9265306827173373E-002           7       66076           0
</event>
<event>
      5   9999  3.79277E-02  1.24393E+01 -1.00000E+00  1.85401E-01
      21    -1     0     0   512   501  0.000000000E+00  0.000000000E+00  9.879362319E+01  9.879362319E+01  0.000000000E+00  0.00000E+00  9.000E+00
      21    -1     0     0   501   502  0.000000000E+00  0.000000000E+00 -7.769898220E+02  7.769898220E+02  0.000000000E+00  0.00000E+00  9.000E+00
      25     1     1     2     0     0 -1.778211209E+02 -6.773620152E+01 -5.556606033E+02  6.004933390E+02  1.250000000E+02  0.00000E+00  9.000E+00
      25     1     1     2     0     0  1.880072563E+02  6.059632108E+01 -1.131349706E+02  2.596982174E+02  1.250000000E+02  0.00000E+00  9.000E+00
      21     1     1     2   512   502 -1.018613544E+01  7.139880440E+00 -9.400624837E+00  1.559188876E+01  1.192092896E-07  0.00000E+00  9.000E+00
#rwgt            1           1   4.9331337195773088E-002           7       66303           0
</event>
<event>
      5   9999  3.79277E-02  5.83990E+01 -1.00000E+00  1.35334E-01
      21    -1     0     0   502   511  0.000000000E+00  0.000000000E+00  6.477561718E+01  6.477561718E+01  0.000000000E+00  0.00000E+00  9.000E+00
      21    -1     0     0   501   502  0.000000000E+00  0.000000000E+00 -1.015491846E+03  1.015491846E+03  0.000000000E+00  0.00000E+00  9.000E+00
      25     1     1     2     0     0 -8.258711041E+01 -1.079380297E+02 -7.446920261E+02  7.672434182E+02  1.250000000E+02  0.00000E+00  9.000E+00
      25     1     1     2     0     0  2.419354283E+01  1.071429372E+02 -1.062976825E+02  1.974566631E+02  1.250000000E+02  0.00000E+00  9.000E+00
      21     1     1     2   501   511  5.839356758E+01  7.950925923E-01 -9.972652001E+01  1.155673816E+02  1.907348633E-06  0.00000E+00  9.000E+00
#rwgt            1           1   4.9436357968486180E-002           7       66628           0
</event>
<event>
      5   9999  3.79277E-02  9.69296E+00 -1.00000E+00  1.97336E-01
      21    -1     0     0   502   501  0.000000000E+00  0.000000000E+00  5.949742550E+01  5.949742550E+01  0.000000000E+00  0.00000E+00  9.000E+00
      21    -1     0     0   501   512  0.000000000E+00  0.000000000E+00 -9.467754480E+02  9.467754480E+02  0.000000000E+00  0.00000E+00  9.000E+00
      25     1     1     2     0     0 -4.799108739E+01 -1.682487160E+02 -2.600945747E+02  3.374684618E+02  1.250000000E+02  0.00000E+00  9.000E+00
      25     1     1     2     0     0  4.740550537E+01  1.779239687E+02 -6.000423123E+02  6.399843726E+02  1.250000000E+02  0.00000E+00  9.000E+00
      21     1     1     2   502   512  5.855820171E-01 -9.675252663E+00 -2.714113548E+01  2.882003913E+01  3.371747881E-07  0.00000E+00  9.000E+00
#rwgt            1           1   3.5300777594897782E-002           7       66856           0
</event>
<event>
      5   9999  3.79277E-02  2.66101E+01 -1.00000E+00  1.56747E-01
      21    -1     0     0   502   511  0.000000000E+00  0.000000000E+00  4.689933064E+01  4.689933064E+01  0.000000000E+00  0.00000E+00  9.000E+00
      21    -1     0     0   501   502  0.000000000E+00  0.000000000E+00 -7.594559472E+02  7.594559472E+02  0.000000000E+00  0.00000E+00  9.000E+00
      25     1     1     2     0     0 -4.284552518E+01  6.524158630E+01 -5.079328444E+02  5.288789824E+02  1.250000000E+02  0.00000E+00  9.000E+00
      25     1     1     2     0     0  4.232371896E+01 -9.184661733E+01 -1.744087024E+02  2.372140253E+02  1.250000000E+02  0.00000E+00  9.000E+00
      21     1     1     2   501   511  5.218062195E-01  2.660503103E+01 -3.021506967E+01  4.026227009E+01  5.840038640E-07  0.00000E+00  9.000E+00
#rwgt            1           1   4.8378281266868738E-002           7       67096           0
</event>
<event>
      5   9999  3.79277E-02  1.52188E+01 -1.00000E+00  1.76793E-01
      21    -1     0     0   512   501  0.000000000E+00  0.000000000E+00  1.183539096E+02  1.183539096E+02  0.000000000E+00  0.00000E+00  9.000E+00
      21    -1     0     0   501   502  0.000000000E+00  0.000000000E+00 -4.513757450E+02  4.513757450E+02  0.000000000E+00  0.00000E+00  9.000E+00
      25     1     1     2     0     0  4.526088136E+01 -1.753960147E+02 -1.952899148E+02  2.942370816E+02  1.250000000E+02  0.00000E+00  9.000E+00
      25     1     1     2     0     0 -3.811290177E+01  1.619603503E+02 -1.495121413E+02  2.562472024E+02  1.250000000E+02  0.00000E+00  9.000E+00
      21     1     1     2   512   502 -7.147979593E+00  1.343566444E+01  1.178022075E+01  1.924537066E+01  3.371747881E-07  0.00000E+00  9.000E+00
#rwgt            1           1   2.8945787771953620E-002           7       67216           0
</event>
<event>
      5   9999  3.79277E-02  1.23258E+02 -1.00000E+00  1.19877E-01
      21    -1     0     0   502   511  0.000000000E+00  0.000000000E+00  1.606151350E+02  1.606151350E+02  0.000000000E+00  0.00000E+00  9.000E+00
      21    -1     0     0   501   502  0.000000000E+00  0.000000000E+00 -3.432885203E+02  3.432885203E+02  0.000000000E+00  0.00000E+00  9.000E+00
      25     1     1     2     0     0  3.695416005E+01 -6.978367717E+01 -3.201119678E+01  1.512781817E+02  1.250000000E+02  0.00000E+00  9.000E+00
      25     1     1     2     0     0  7.076718711E+01  1.296884395E+02 -1.112326222E+02  2.232146553E+02  1.250000000E+02  0.00000E+00  9.000E+00
      21     1     1     2   501   511 -1.077213472E+02 -5.990476233E+01 -3.942956626E+01  1.294108182E+02  9.536743164E-07  0.00000E+00  9.000E+00
#rwgt            1           1   3.2413860339948947E-002           7       67534           0
</event>
<event>
      5   9999  3.79277E-02  1.97563E+01 -1.00000E+00  1.66810E-01
      21    -1     0     0   502   512  0.000000000E+00  0.000000000E+00  1.626242904E+02  1.626242904E+02  0.000000000E+00  0.00000E+00  9.000E+00
      21    -1     0     0   501   502  0.000000000E+00  0.000000000E+00 -1.978376410E+03  1.978376410E+03  0.000000000E+00  0.00000E+00  9.000E+00
      25     1     1     2     0     0 -3.237180541E+01  4.602450786E+01 -3.976075594E+02  4.205745599E+02  1.250000000E+02  0.00000E+00  9.000E+00
      25     1     1     2     0     0  4.746212949E+01 -5.877569043E+01 -1.565225056E+03  1.572024717E+03  1.250000000E+02  0.00000E+00  9.000E+00
      21     1     1     2   501   512 -1.509032407E+01  1.275118257E+01  1.470804952E+02  1.484014239E+02  7.629394531E-06  0.00000E+00  9.000E+00
#rwgt            1           1  0.14542387988772373                7       67590           0
</event>
<event>
      5   9999  3.79277E-02  7.69832E+01 -1.00000E+00  1.29163E-01
      21    -1     0     0   502   501  0.000000000E+00  0.000000000E+00  3.006728905E+02  3.006728905E+02  0.000000000E+00  0.00000E+00  9.000E+00
      21    -1     0     0   511   502  0.000000000E+00  0.000000000E+00 -1.706953524E+02  1.706953524E+02  0.000000000E+00  0.00000E+00  9.000E+00
      25     1     1     2     0     0  1.378483399E+02  2.848597342E+01  2.704951362E+01  1.901848881E+02  1.250000000E+02  0.00000E+00  9.000E+00
      25     1     1     2     0     0 -8.432409501E+01 -8.381736268E+01  1.088325557E+02  2.039740877E+02  1.250000000E+02  0.00000E+00  9.000E+00
      21     1     1     2   511   501 -5.352424488E+01  5.533138926E+01 -5.904531227E+00  7.720926704E+01  1.491307736E-06  0.00000E+00  9.000E+00
#rwgt            1           1   3.3945966029078331E-002           7       67727           0
</event>
<event>
      5   9999  3.79277E-02  1.27276E+01 -1.00000E+00  1.84380E-01
      21    -1     0     0   502   501  0.000000000E+00  0.000000000E+00  1.456924501E+02  1.456924501E+02  0.000000000E+00  0.00000E+00  9.000E+00
      21    -1     0     0   512   502  0.000000000E+00  0.000000000E+00 -4.132304441E+02  4.132304441E+02  0.000000000E+00  0.00000E+00  9.000E+00
      25     1     1     2     0     0 -1.112742100E+02  8.383245361E+01 -1.861041344E+02  2.639499554E+02  1.250000000E+02  0.00000E+00  9.000E+00
      25     1     1     2     0     0  1.052424447E+02 -9.504002814E+01  2.240550474E+01  1.903564702E+02  1.250000000E+02  0.00000E+00  9.000E+00
      21     1     1     2   512   501  6.031765321E+00  1.120757454E+01 -1.038393643E+02  1.046164686E+02  1.348699152E-06  0.00000E+00  9.000E+00
#rwgt            1           1   4.1348206422565599E-002           7       67857           0
</event>
<event>
      5   9999  3.79277E-02  6.64870E+01 -1.00000E+00  1.32363E-01
      21    -1     0     0   502   501  0.000000000E+00  0.000000000E+00  1.731574198E+03  1.731574198E+03  0.000000000E+00  0.00000E+00  9.000E+00
      21    -1     0     0   501   511  0.000000000E+00  0.000000000E+00 -5.470276463E+01  5.470276463E+01  0.000000000E+00  0.00000E+00  9.000E+00
      25     1     1     2     0     0  1.854756988E+02  2.305367404E+01  6.790125487E+02  7.152731982E+02  1.250000000E+02  0.00000E+00  9.000E+00
      25     1     1     2     0     0 -1.190059915E+02 -2.153697891E+01  9.887081765E+02  1.003889997E+03  1.250000000E+02  0.00000E+00  9.000E+00
      21     1     1     2   502   511 -6.646970732E+01 -1.516695121E+00  9.150708257E+00  6.711376771E+01  2.431401974E-06  0.00000E+00  9.000E+00
#rwgt            1           1   3.7157732795256998E-002           7       68124           0
</event>
<event>
      5   9999  3.79277E-02  7.10968E+01 -1.00000E+00  1.30880E-01
      21    -1     0     0   502   501  0.000000000E+00  0.000000000E+00  3.492534449E+02  3.492534449E+02  0.000000000E+00  0.00000E+00  9.000E+00
      21    -1     0     0   512   502  0.000000000E+00  0.000000000E+00 -4.151848382E+02  4.151848382E+02  0.000000000E+00  0.00000E+00  9.000E+00
      25     1     1     2     0     0  6.207222809E+00  1.301977167E+02  2.108403460E+01  1.818227476E+02  1.250000000E+02  0.00000E+00  9.000E+00
      25     1     1     2     0     0  6.158995837E+01 -1.516056757E+02  1.999201906E+02  2.870029381E+02  1.250000000E+02  0.00000E+00  9.000E+00
      21     1     1     2   512   501 -6.779718118E+01  2.140795902E+01 -2.869356186E+02  2.956125973E+02  5.394796609E-06  0.00000E+00  9.000E+00
#rwgt            1           1   4.0809472420633867E-002           7       68229           0
</event>
<event>
      5   9999  3.79277E-02  2.21081E+01 -1.00000E+00  1.62856E-01
      21    -1     0     0   502   501  0.000000000E+00  0.000000000E+00  7.057461488E+02  7.057461488E+02  0.000000000E+00  0.00000E+00  9.000E+00
      21    -1     0     0   511   502  0.000000000E+00  0.000000000E+00 -5.015038813E+02  5.015038813E+02  0.000000000E+00  0.00000E+00  9.000E+00
      25     1     1     2     0     0  2.278105350E+00  1.479431287E+02  3.926347965E+02  4.378121087E+02  1.250000000E+02  0.00000E+00  9.000E+00
      25     1     1     2     0     0  1.800555028E+01 -1.567375480E+02  2.553498185E+02  3.251451808E+02  1.250000000E+02  0.00000E+00  9.000E+00
      21     1     1     2   511   501 -2.028365563E+01  8.794419216E+00 -4.437423474E+02  4.442927407E+02  7.629394531E-06  0.00000E+00  9.000E+00
#rwgt            1           1   3.5081369117858419E-002           7       68333           0
</event>
<event>
      5   9999  3.79277E-02  2.94693E+01 -1.00000E+00  1.53580E-01
      21    -1     0     0   502   501  0.000000000E+00  0.000000000E+00  3.054490254E+01  3.054490254E+01  0.000000000E+00  0.00000E+00  9.000E+00
      21    -1     0     0   501   512  0.000000000E+00  0.000000000E+00 -1.791042272E+03  1.791042272E+03  0.000000000E+00  0.00000E+00  9.000E+00
      25     1     1     2     0     0 -1.049238083E+02  7.346520983E+01 -1.158383333E+03  1.172127591E+03  1.250000000E+02  0.00000E+00  9.000E+00
      25     1     1     2     0     0  1.289928454E+02 -5.646167294E+01 -3.667631467E+02  4.122708824E+02  1.250000000E+02  0.00000E+00  9.000E+00
      21     1     1     2   502   512 -2.406903710E+01 -1.700353689E+01 -2.353508890E+02  2.371887008E+02  2.697398305E-06  0.00000E+00  9.000E+00
#rwgt            1           1   3.4066003705934808E-002           7       68562           0
</event>
<event>
      5   9999  3.79277E-02  4.72349E+01 -1.00000E+00  1.40500E-01
      21    -1     0     0   502   501  0.000000000E+00  0.000000000E+00  3.623225558E+02  3.623225558E+02  0.000000000E+00  0.00000E+00  9.000E+00
      21    -1     0     0   501   511  0.000000000E+00  0.000000000E+00 -4.923786340E+02  4.923786340E+02  0.000000000E+00  0.00000E+00  9.000E+00
      25     1     1     2     0     0  1.494543505E+02  1.376614071E+02 -1.066964302E+01  2.388013969E+02  1.250000000E+02  0.00000E+00  9.000E+00
      25     1     1     2     0     0 -1.744775146E+02 -9.759922519E+01  1.900741565E+02  3.028550756E+02  1.250000000E+02  0.00000E+00  9.000E+00
      21     1     1     2   502   511  2.502316411E+01 -4.006218188E+01 -3.094605917E+02  3.130447173E+02  3.814697266E-06  0.00000E+00  9.000E+00
#rwgt            1           1   3.0682500463156657E-002           7       68696           0
</event>
<event>
      5   9999  3.79277E-02  4.37314E+01 -1.00000E+00  1.42478E-01
      21    -1     0     0   502   501  0.000000000E+00  0.000000000E+00  6.296789561E+01  6.296789561E+01  0.000000000E+00  0.00000E+00  9.000E+00
      21    -1     0     0   512   502  0.000000000E+00  0.000000000E+00 -5.661106326E+02  5.661106326E+02  0.000000000E+00  0.00000E+00  9.000E+00
      25     1     1     2     0     0  2.053810888E+00  1.078132212E+01 -3.696793571E+01  1.308131619E+02  1.250000000E+02  0.00000E+00  9.000E+00
      25     1     1     2     0     0 -4.258147758E+01  5.648538581E+00 -3.533937704E+02  3.773025910E+02  1.250000000E+02  0.00000E+00  9.000E+00
      21     1     1     2   512   501  4.052766669E+01 -1.642986071E+01 -1.127810308E+02  1.209627753E+02  1.907348633E-06  0.00000E+00  9.000E+00
#rwgt            1           1   3.3795797340895405E-002           7       68876           0
</event>
<event>
      5   9999  3.79277E-02  4.34674E+01 -1.00000E+00  1.42636E-01
      21    -1     0     0   502   511  0.000000000E+00  0.000000000E+00  2.356751672E+03  2.356751672E+03  0.000000000E+00  0.00000E+00  9.000E+00
      21    -1     0     0   501   502  0.000000000E+00  0.000000000E+00 -2.117047888E+02  2.117047888E+02  0.000000000E+00  0.00000E+00  9.000E+00
      25     1     1     2     0     0 -5.461025359E+01 -1.009397287E+02  5.002298089E+01  1.769135587E+02  1.250000000E+02  0.00000E+00  9.000E+00
      25     1     1     2     0     0  9.563960927E+01  8.658684758E+01 -9.355096976E+01  2.025364189E+02  1.250000000E+02  0.00000E+00  9.000E+00
      21     1     1     2   501   511 -4.102935569E+01  1.435288111E+01  2.188574873E+03  2.189006484E+03  3.051757812E-05  0.00000E+00  9.000E+00
#rwgt            1           1   3.7117020760995947E-002           7       69055           0
</event>
<event>
      5   9999  3.79277E-02  4.60386E+01 -1.00000E+00  1.41152E-01
      21    -1     0     0   502   512  0.000000000E+00  0.000000000E+00  4.898316821E+02  4.898316821E+02  0.000000000E+00  0.00000E+00  9.000E+00
      21    -1     0     0   501   502  0.000000000E+00  0.000000000E+00 -6.916180591E+02  6.916180591E+02  0.000000000E+00  0.00000E+00  9.000E+00
      25     1     1     2     0     0  2.215049827E+02  1.208671832E+02 -4.381799170E+02  5.208646399E+02  1.250000000E+02  0.00000E+00  9.000E+00
      25     1     1     2     0     0 -2.673280227E+02 -1.164177546E+02 -9.094865630E+01  3.300212469E+02  1.250000000E+02  0.00000E+00  9.000E+00
      21     1     1     2   501   512  4.582303991E+01 -4.449428585E+00  3.273421963E+02  3.305638545E+02  0.000000000E+00  0.00000E+00  9.000E+00
#rwgt            1           1   3.2347685904421872E-002           7       69217           0
</event>
<event>
      5   9999  3.79277E-02  4.72514E+01 -1.00000E+00  1.40491E-01
      21    -1     0     0   511   501  0.000000000E+00  0.000000000E+00  1.023526546E+03  1.023526546E+03  0.000000000E+00  0.00000E+00  9.000E+00
      21    -1     0     0   501   502  0.000000000E+00  0.000000000E+00 -7.841004179E+01  7.841004179E+01  0.000000000E+00  0.00000E+00  9.000E+00
      25     1     1     2     0     0 -1.141454466E+02 -2.407962906E+01  2.026751620E+02  2.651626535E+02  1.250000000E+02  0.00000E+00  9.000E+00
      25     1     1     2     0     0  1.104811810E+02 -2.302952213E+01  1.068858547E+02  1.994643732E+02  1.250000000E+02  0.00000E+00  9.000E+00
      21     1     1     2   511   502  3.664265635E+00  4.710915119E+01  6.355554874E+02  6.373095610E+02  7.629394531E-06  0.00000E+00  9.000E+00
#rwgt            1           1   4.0395362023786116E-002           7       69500           0
</event>
<event>
      5   9999  3.79277E-02  4.18866E+01 -1.00000E+00  1.43610E-01
      21    -1     0     0   502   512  0.000000000E+00  0.000000000E+00  7.761800304E+02  7.761800304E+02  0.000000000E+00  0.00000E+00  9.000E+00
      21    -1     0     0   501   502  0.000000000E+00  0.000000000E+00 -1.308717459E+02  1.308717459E+02  0.000000000E+00  0.00000E+00  9.000E+00
      25     1     1     2     0     0  9.739786423E+01 -1.687773056E+02  9.018095123E+01  2.484546776E+02  1.250000000E+02  0.00000E+00  9.000E+00
      25     1     1     2     0     0 -8.314946091E+01  2.081660115E+02  2.781471372E+02  3.784676355E+02  1.250000000E+02  0.00000E+00  9.000E+00
      21     1     1     2   501   512 -1.424840332E+01 -3.938870585E+01  2.769801961E+02  2.801294633E+02  3.814697266E-06  0.00000E+00  9.000E+00
#rwgt            1           1   3.4800811730374359E-002           7       69623           0
</event>
<event>
      5   9999  3.79277E-02  4.35502E+01 -1.00000E+00  1.42586E-01
      21    -1     0     0   502   501  0.000000000E+00  0.000000000E+00  1.891529934E+02  1.891529934E+02  0.000000000E+00  0.00000E+00  9.000E+00
       2    -1     0     0   501     0  0.000000000E+00  0.000000000E+00 -1.409289861E+03  1.409289861E+03  0.000000000E+00  0.00000E+00  9.000E+00
      25     1     1     2     0     0  2.470798560E+02 -2.763606477E+02 -1.758989249E+02  4.289395000E+02  1.250000000E+02  0.00000E+00  9.000E+00
      25     1     1     2     0     0 -2.431212823E+02  2.329907038E+02 -4.599046229E+02  5.835493879E+02  1.250000000E+02  0.00000E+00  9.000E+00
       2     1     1     2   502     0 -3.958573783E+00  4.336994389E+01 -5.843333195E+02  5.859539663E+02  7.629394531E-06  0.00000E+00  9.000E+00
#rwgt            1           1   4.4538352100105573E-002           7       69782           0
</event>
<event>
      5   9999  3.79277E-02  2.90297E+01 -1.00000E+00  1.54038E-01
      21    -1     0     0   502   501  0.000000000E+00  0.000000000E+00  7.613467935E+02  7.613467935E+02  0.000000000E+00  0.00000E+00  9.000E+00
      21    -1     0     0   511   502  0.000000000E+00  0.000000000E+00 -1.903548446E+02  1.903548446E+02  0.000000000E+00  0.00000E+00  9.000E+00
      25     1     1     2     0     0  1.673938872E+02 -2.869619831E+02  3.167269460E+02  4.757192991E+02  1.250000000E+02  0.00000E+00  9.000E+00
      25     1     1     2     0     0 -1.557510459E+02  3.135545695E+02  2.460840111E+02  4.458219340E+02  1.250000000E+02  0.00000E+00  9.000E+00
      21     1     1     2   511   501 -1.164284132E+01 -2.659258635E+01  8.180991820E+00  3.016040501E+01  3.576278687E-07  0.00000E+00  9.000E+00
#rwgt            1           1  0.14904598321240212                7       69993           0
</event>
<event>
      5   9999  3.79277E-02  2.91674E+01 -1.00000E+00  1.53894E-01
       1    -1     0     0   502     0  0.000000000E+00  0.000000000E+00  1.590977005E+03  1.590977005E+03  0.000000000E+00  0.00000E+00  9.000E+00
      21    -1     0     0   501   502  0.000000000E+00  0.000000000E+00 -4.485233300E+01  4.485233300E+01  0.000000000E+00  0.00000E+00  9.000E+00
      25     1     1     2     0     0 -1.413839740E+02  2.755748915E+00  2.940809153E+02  3.494361272E+02  1.250000000E+02  0.00000E+00  9.000E+00
      25     1     1     2     0     0  1.195089993E+02 -2.204881868E+01  4.322850729E+02  4.661157963E+02  1.250000000E+02  0.00000E+00  9.000E+00
       1     1     1     2   501     0  2.187497465E+01  1.929306976E+01  8.197586843E+02  8.202774150E+02  1.078959322E-05  0.00000E+00  9.000E+00
#rwgt            1           1   4.4937837518611232E-002           7       70178           0
</event>
<event>
      5   9999  3.79277E-02  5.80677E+01 -1.00000E+00  1.35468E-01
      21    -1     0     0   502   501  0.000000000E+00  0.000000000E+00  1.914975970E+02  1.914975970E+02  0.000000000E+00  0.00000E+00  9.000E+00
      21    -1     0     0   501   511  0.000000000E+00  0.000000000E+00 -2.430733539E+02  2.430733539E+02  0.000000000E+00  0.00000E+00  9.000E+00
      25     1     1     2     0     0  7.900721970E+01 -1.863800038E+01  9.590051168E+01  1.772326831E+02  1.250000000E+02  0.00000E+00  9.000E+00
      25     1     1     2     0     0 -3.509901437E+01  5.663706295E+01 -1.393519534E+02  1.987049688E+02  1.250000000E+02  0.00000E+00  9.000E+00
      21     1     1     2   502   511 -4.390820533E+01 -3.799906256E+01 -8.124315235E+00  5.863329898E+01  5.960464478E-07  0.00000E+00  9.000E+00
#rwgt            1           1   3.9896594430027875E-002           7       70296           0
</event>
<event>
      5   9999  3.79277E-02  3.99714E+01 -1.00000E+00  1.44859E-01
      21    -1     0     0   502   501  0.000000000E+00  0.000000000E+00  9.049032900E+02  9.049032900E+02  0.000000000E+00  0.00000E+00  9.000E+00
       2    -1     0     0   501     0  0.000000000E+00  0.000000000E+00 -1.213463322E+03  1.213463322E+03  0.000000000E+00  0.00000E+00  9.000E+00
      25     1     1     2     0     0  1.291372702E+02  5.567880825E+00  2.226407542E+02  2.861841038E+02  1.250000000E+02  0.00000E+00  9.000E+00
      25     1     1     2     0     0 -1.368806045E+02  3.364632514E+01  6.365007257E+02  6.637970691E+02  1.250000000E+02  0.00000E+00  9.000E+00
       2     1     1     2   502     0  7.743334300E+00 -3.921420596E+01 -1.167701512E+03  1.168385439E+03  2.157918644E-05  0.00000E+00  9.000E+00
#rwgt            1           1   4.1473895173418783E-002           7       70465           0
</event>
<event>
      5   9999  3.79277E-02  3.44249E+02 -1.00000E+00  1.03686E-01
      21    -1     0     0   502   501  0.000000000E+00  0.000000000E+00  1.015133438E+03  1.015133438E+03  0.000000000E+00  0.00000E+00  9.000E+00
      21    -1     0     0   501   511  0.000000000E+00  0.000000000E+00 -2.396154980E+02  2.396154980E+02  0.000000000E+00  0.00000E+00  9.000E+00
      25     1     1     2     0     0  1.361734850E+02 -5.375436702E+01  2.967043280E+02  3.536823550E+02  1.250000000E+02  0.00000E+00  9.000E+00
      25     1     1     2     0     0 -6.413761546E+01  3.903820679E+02  3.083139903E+02  5.169084148E+02  1.250000000E+02  0.00000E+00  9.000E+00
      21     1     1     2   502   511 -7.203586958E+01 -3.366277009E+02  1.704996213E+02  3.841581659E+02  6.607249480E-06  0.00000E+00  9.000E+00
#rwgt            2          11   9.9018864312694897E-004           7       70724           0
</event>
<event>
      5   9999  3.79277E-02  9.31316E+01 -1.00000E+00  1.25234E-01
      21    -1     0     0   502   501  0.000000000E+00  0.000000000E+00  7.525205562E+02  7.525205562E+02  0.000000000E+00  0.00000E+00  9.000E+00
      21    -1     0     0   501   512  0.000000000E+00  0.000000000E+00 -2.196849333E+02  2.196849333E+02  0.000000000E+00  0.00000E+00  9.000E+00
      25     1     1     2     0     0 -1.071637188E+02  2.357804659E+02  5.634792788E+02  6.326218368E+02  1.250000000E+02  0.00000E+00  9.000E+00
      25     1     1     2     0     0  1.809686582E+01 -2.085667989E+02 -3.511604824E+01  2.463447645E+02  1.250000000E+02  0.00000E+00  9.000E+00
      21     1     1     2   502   512  8.906685302E+01 -2.721366698E+01  4.472392347E+00  9.323888819E+01  1.107107140E-06  0.00000E+00  9.000E+00
#rwgt            1           1   3.7015602680694315E-002           7       70744           0
</event>
<event>
      5   9999  3.79277E-02  4.18137E+01 -1.00000E+00  1.43656E-01
      -2    -1     0     0     0   501  0.000000000E+00  0.000000000E+00  3.357040319E+02  3.357040319E+02  0.000000000E+00  0.00000E+00  9.000E+00
      21    -1     0     0   501   502  0.000000000E+00  0.000000000E+00 -1.537098183E+03  1.537098183E+03  0.000000000E+00  0.00000E+00  9.000E+00
      25     1     1     2     0     0  9.760909374E+01 -6.359068728E+01 -7.249135799E+02  7.447791680E+02  1.250000000E+02  0.00000E+00  9.000E+00
      25     1     1     2     0     0 -7.643265048E+01  9.964543830E+01 -7.910678013E+02  8.106691247E+02  1.250000000E+02  0.00000E+00  9.000E+00
      -2     1     1     2     0   502 -2.117644326E+01 -3.605475102E+01  3.145872300E+02  3.173539224E+02  0.000000000E+00  0.00000E+00  9.000E+00
#rwgt            1           1   4.2349085015276601E-002           7       70909           0
</event>
<event>
      5   9999  3.79277E-02  2.86107E+01 -1.00000E+00  1.54484E-01
      21    -1     0     0   502   501  0.000000000E+00  0.000000000E+00  1.979250222E+02  1.979250222E+02  0.000000000E+00  0.00000E+00  9.000E+00
      21    -1     0     0   501   511  0.000000000E+00  0.000000000E+00 -2.950505883E+02  2.950505883E+02  0.000000000E+00  0.00000E+00  9.000E+00
      25     1     1     2     0     0  1.521526957E+02 -2.706297576E+01 -9.315568988E+00  1.989839875E+02  1.250000000E+02  0.00000E+00  9.000E+00
      25     1     1     2     0     0 -1.804392522E+02  2.276874511E+01 -2.144756237E+01  2.217244628E+02  1.250000000E+02  0.00000E+00  9.000E+00
      21     1     1     2   502   511  2.828655650E+01  4.294230649E+00 -6.636243475E+01  7.226716018E+01  0.000000000E+00  0.00000E+00  9.000E+00
#rwgt            1           1   3.1075772313224011E-002           7       71072           0
</event>
<event>
      5   9999  3.79277E-02  4.44385E+01 -1.00000E+00  1.42062E-01
      21    -1     0     0   502   512  0.000000000E+00  0.000000000E+00  9.440663037E+02  9.440663037E+02  0.000000000E+00  0.00000E+00  9.000E+00
      21    -1     0     0   501   502  0.000000000E+00  0.000000000E+00 -1.245482828E+02  1.245482828E+02  0.000000000E+00  0.00000E+00  9.000E+00
      25     1     1     2     0     0  9.686468822E+01 -2.321678231E+02  4.721845127E+02  5.494250449E+02  1.250000000E+02  0.00000E+00  9.000E+00
      25     1     1     2     0     0 -1.073812145E+02  2.753439828E+02  2.331027230E+02  3.966193560E+02  1.250000000E+02  0.00000E+00  9.000E+00
      21     1     1     2   501   512  1.051652626E+01 -4.317615970E+01  1.142307852E+02  1.225701855E+02  1.348699152E-06  0.00000E+00  9.000E+00
#rwgt            1           1   3.4139022750696107E-002           7       71222           0
</event>
<event>
      5   9999  3.79277E-02  1.34633E+01 -1.00000E+00  1.81923E-01
      21    -1     0     0   502   511  0.000000000E+00  0.000000000E+00  9.992290937E+02  9.992290937E+02  0.000000000E+00  0.00000E+00  9.000E+00
      21    -1     0     0   501   502  0.000000000E+00  0.000000000E+00 -3.533193662E+01  3.533193662E+01  0.000000000E+00  0.00000E+00  9.000E+00
      25     1     1     2     0     0 -7.312179079E+01 -3.166855389E+01  6.641882130E+02  6.805297025E+02  1.250000000E+02  0.00000E+00  9.000E+00
      25     1     1     2     0     0  6.692531331E+01  1.971592706E+01  1.641378531E+02  2.177933657E+02  1.250000000E+02  0.00000E+00  9.000E+00
      21     1     1     2   501   511  6.196477485E+00  1.195262684E+01  1.355710910E+02  1.362379621E+02  2.697398305E-06  0.00000E+00  9.000E+00
#rwgt            1           1   3.6077018433021163E-002           7       71376           0
</event>
<event>
      5   9999 -3.79277E-02  5.32306E+01 -1.00000E+00  1.37542E-01
      21    -1     0     0   502   501  0.000000000E+00  0.000000000E+00  1.954754006E+01  1.954754006E+01  0.000000000E+00  0.00000E+00  9.000E+00
      21    -1     0     0   512   502  0.000000000E+00  0.000000000E+00 -1.415645321E+03  1.415645321E+03  0.000000000E+00  0.00000E+00  9.000E+00
      25     1     1     2     0     0 -6.106173886E+01  1.956466449E+01 -7.525982444E+02  7.655980861E+02  1.250000000E+02  0.00000E+00  9.000E+00
      25     1     1     2     0     0  1.825005623E+01  1.206845100E+01 -3.756024663E+02  3.964604958E+02  1.250000000E+02  0.00000E+00  9.000E+00
      21     1     1     2   512   501  4.281168264E+01 -3.163311548E+01 -2.678970704E+02  2.731342793E+02  0.000000000E+00  0.00000E+00  9.000E+00
#rwgt            1           1  -1.9906247193556003E-002           7       71524           0
</event>
<event>
      5   9999  3.79277E-02  2.18486E+02 -1.00000E+00  1.10268E-01
      21    -1     0     0   502   501  0.000000000E+00  0.000000000E+00  4.359467256E+02  4.359467256E+02  0.000000000E+00  0.00000E+00  9.000E+00
      21    -1     0     0   501   511  0.000000000E+00  0.000000000E+00 -3.585332682E+02  3.585332682E+02  0.000000000E+00  0.00000E+00  9.000E+00
      25     1     1     2     0     0 -2.686193639E+01 -2.998839047E+01  7.352195929E+01  1.505036401E+02  1.250000000E+02  0.00000E+00  9.000E+00
      25     1     1     2     0     0  1.169662887E+02  2.290289649E+02  2.011626529E+02  3.496094855E+02  1.250000000E+02  0.00000E+00  9.000E+00
      21     1     1     2   502   511 -9.010435234E+01 -1.990405744E+02 -1.972711547E+02  2.943668681E+02  3.814697266E-06  0.00000E+00  9.000E+00
#rwgt            1           1   3.6392970735364731E-002           7       71840           0
</event>
<event>
      5   9999  3.79277E-02  8.12105E+01 -1.00000E+00  1.28035E-01
      21    -1     0     0   502   501  0.000000000E+00  0.000000000E+00  3.959467284E+02  3.959467284E+02  0.000000000E+00  0.00000E+00  9.000E+00
      21    -1     0     0   512   502  0.000000000E+00  0.000000000E+00 -4.618896763E+02  4.618896763E+02  0.000000000E+00  0.00000E+00  9.000E+00
      25     1     1     2     0     0 -3.696437774E+01 -6.592404016E+01  3.355029338E+02  3.659228920E+02  1.250000000E+02  0.00000E+00  9.000E+00
      25     1     1     2     0     0 -1.820611426E+01  6.330802014E+00 -5.826167935E+01  1.392514450E+02  1.250000000E+02  0.00000E+00  9.000E+00
      21     1     1     2   512   501  5.517049200E+01  5.959323815E+01 -3.431842024E+02  3.526620677E+02  0.000000000E+00  0.00000E+00  9.000E+00
#rwgt            1           1   4.6329138399082294E-002           7       71872           0
</event>
<event>
      5   9999  3.79277E-02  2.80300E+01 -1.00000E+00  1.55117E-01
      21    -1     0     0   502   511  0.000000000E+00  0.000000000E+00  1.762842109E+02  1.762842109E+02  0.000000000E+00  0.00000E+00  9.000E+00
      21    -1     0     0   501   502  0.000000000E+00  0.000000000E+00 -3.987020312E+02  3.987020312E+02  0.000000000E+00  0.00000E+00  9.000E+00
      25     1     1     2     0     0  2.730799916E+01 -1.000820101E+02 -1.044033261E+02  1.930989126E+02  1.250000000E+02  0.00000E+00  9.000E+00
      25     1     1     2     0     0 -2.791489379E+01  1.281054463E+02 -2.148791891E+02  2.810485947E+02  1.250000000E+02  0.00000E+00  9.000E+00
      21     1     1     2   501   511  6.068946226E-01 -2.802343625E+01  9.686469495E+01  1.008387348E+02  1.348699152E-06  0.00000E+00  9.000E+00
#rwgt            1           1   4.0107890800612743E-002           7       71973           0
</event>
<event>
      5   9999  3.79277E-02  1.50858E+02 -1.00000E+00  1.16296E-01
      21    -1     0     0   502   501  0.000000000E+00  0.000000000E+00  1.258036123E+03  1.258036123E+03  0.000000000E+00  0.00000E+00  9.000E+00
       1    -1     0     0   501     0  0.000000000E+00  0.000000000E+00 -5.175319887E+02  5.175319887E+02  0.000000000E+00  0.00000E+00  9.000E+00
      25     1     1     2     0     0  1.702994267E+02 -1.929545976E+02  9.814119338E+02  1.022265991E+03  1.250000000E+02  0.00000E+00  9.000E+00
      25     1     1     2     0     0 -4.913495866E+01  2.828282017E+02  1.404741640E+02  3.431676363E+02  1.250000000E+02  0.00000E+00  9.000E+00
       1     1     1     2   502     0 -1.211644680E+02 -8.987360408E+01 -3.813819640E+02  4.101344846E+02  0.000000000E+00  0.00000E+00  9.000E+00
#rwgt            2          12   6.7967790579761471E-004           7       72200           0
</event>
<event>
      5   9999  3.79277E-02  3.73210E+01 -1.00000E+00  1.46732E-01
      21    -1     0     0   502   501  0.000000000E+00  0.000000000E+00  3.320574017E+02  3.320574017E+02  0.000000000E+00  0.00000E+00  9.000E+00
      21    -1     0     0   501   511  0.000000000E+00  0.000000000E+00 -1.350638693E+03  1.350638693E+03  0.000000000E+00  0.00000E+00  9.000E+00
      25     1     1     2     0     0 -7.111503833E+00 -2.201283933E+02  3.668493302E+01  2.558864344E+02  1.250000000E+02  0.00000E+00  9.000E+00
      25     1     1     2     0     0  4.163124659E+01  2.059423939E+02  1.049062050E+02  2.660371067E+02  1.250000000E+02  0.00000E+00  9.000E+00
      21     1     1     2   502   511 -3.451974276E+01  1.418599932E+01 -1.160172429E+03  1.160772553E+03  1.525878906E-05  0.00000E+00  9.000E+00
#rwgt            1           1   3.2825378098837552E-002           7       72264           0
</event>
<event>
      5   9999  3.79277E-02  6.23723E+01 -1.00000E+00  1.33810E-01
      21    -1     0     0   512   501  0.000000000E+00  0.000000000E+00  2.091303637E+02  2.091303637E+02  0.000000000E+00  0.00000E+00  9.000E+00
      21    -1     0     0   501   502  0.000000000E+00  0.000000000E+00 -3.051236254E+02  3.051236254E+02  0.000000000E+00  0.00000E+00  9.000E+00
      25     1     1     2     0     0 -1.704035032E+02  2.571677985E+01 -2.753116099E+01  2.146664191E+02  1.250000000E+02  0.00000E+00  9.000E+00
      25     1     1     2     0     0  1.715722035E+02  3.664452399E+01 -9.019429720E+01  2.335376916E+02  1.250000000E+02  0.00000E+00  9.000E+00
      21     1     1     2   512   502 -1.168700381E+00 -6.236130384E+01  2.173219641E+01  6.604987841E+01  0.000000000E+00  0.00000E+00  9.000E+00
#rwgt            1           1   3.6599441616044281E-002           7       72386           0
</event>
<event>
      5   9999  3.79277E-02  1.88283E+02 -1.00000E+00  1.12611E-01
      21    -1     0     0   511   501  0.000000000E+00  0.000000000E+00  4.687241289E+02  4.687241289E+02  0.000000000E+00  0.00000E+00  9.000E+00
      21    -1     0     0   501   502  0.000000000E+00  0.000000000E+00 -2.305283682E+02  2.305283682E+02  0.000000000E+00  0.00000E+00  9.000E+00
      25     1     1     2     0     0 -2.883193737E+01  1.332894711E+02 -1.028620400E+02  2.116671042E+02  1.250000000E+02  0.00000E+00  9.000E+00
      25     1     1     2     0     0 -9.311918924E+01  1.016270742E+01  1.915290492E+02  2.471494300E+02  1.250000000E+02  0.00000E+00  9.000E+00
      21     1     1     2   511   502  1.219511266E+02 -1.434521785E+02  1.495287515E+02  2.404359630E+02  3.814697266E-06  0.00000E+00  9.000E+00
#rwgt            1           1   3.1856634514007651E-002           7       72503           0
</event>
<event>
      5   9999  3.79277E-02  8.96885E+01 -1.00000E+00  1.25992E-01
      21    -1     0     0   502   501  0.000000000E+00  0.000000000E+00  1.447783778E+02  1.447783778E+02  0.000000000E+00  0.00000E+00  9.000E+00
      21    -1     0     0   501   512  0.000000000E+00  0.000000000E+00 -6.607946014E+02  6.607946014E+02  0.000000000E+00  0.00000E+00  9.000E+00
      25     1     1     2     0     0  1.017786502E+02 -1.004428187E+02 -4.092752934E+02  4.511972066E+02  1.250000000E+02  0.00000E+00  9.000E+00
      25     1     1     2     0     0 -1.815836860E+02  5.951371317E+01 -1.936315232E+01  2.291603123E+02  1.250000000E+02  0.00000E+00  9.000E+00
      21     1     1     2   502   512  7.980503574E+01  4.092910556E+01 -8.737777795E+01  1.252154603E+02  2.132480600E-06  0.00000E+00  9.000E+00
#rwgt            2          11   3.2018142677867705E-003           7       72750           0
</event>
<event>
      5   9999  3.79277E-02  7.00303E+01 -1.00000E+00  1.31211E-01
      21    -1     0     0   502   501  0.000000000E+00  0.000000000E+00  4.603462840E+02  4.603462840E+02  0.000000000E+00  0.00000E+00  9.000E+00
      21    -1     0     0   511   502  0.000000000E+00  0.000000000E+00 -2.113446857E+02  2.113446857E+02  0.000000000E+00  0.00000E+00  9.000E+00
      25     1     1     2     0     0  1.768398763E+02 -2.502137212E+01  2.360377353E+02  3.213054985E+02  1.250000000E+02  0.00000E+00  9.000E+00
      25     1     1     2     0     0 -2.456364294E+02  3.810891898E+01  2.489430783E+01  2.793461503E+02  1.250000000E+02  0.00000E+00  9.000E+00
      21     1     1     2   511   501  6.879655309E+01 -1.308754686E+01 -1.193044480E+01  7.103932089E+01  1.180111758E-06  0.00000E+00  9.000E+00
#rwgt            1           1  0.34530443463729704                7       72950           0
</event>
<event>
      5   9999  3.79277E-02  2.78589E+02 -1.00000E+00  1.06647E-01
      21    -1     0     0   502   501  0.000000000E+00  0.000000000E+00  9.620191242E+02  9.620191242E+02  0.000000000E+00  0.00000E+00  9.000E+00
      -1    -1     0     0     0   502  0.000000000E+00  0.000000000E+00 -1.717580461E+02  1.717580461E+02  0.000000000E+00  0.00000E+00  9.000E+00
      25     1     1     2     0     0  2.032247823E+02  2.035599527E+01  1.175220108E+02  2.667416385E+02  1.250000000E+02  0.00000E+00  9.000E+00
      25     1     1     2     0     0  5.048082978E+01 -1.354444098E+02  5.094659818E+02  5.441269052E+02  1.250000000E+02  0.00000E+00  9.000E+00
      -1     1     1     2     0   501 -2.537056120E+02  1.150884145E+02  1.632730855E+02  3.229086267E+02  6.325959759E-06  0.00000E+00  9.000E+00
#rwgt            1           1   4.9901810294141390E-002           7       73143           0
</event>
<event>
      5   9999  3.79277E-02  4.09415E+01 -1.00000E+00  1.44216E-01
      21    -1     0     0   502   501  0.000000000E+00  0.000000000E+00  1.281820232E+02  1.281820232E+02  0.000000000E+00  0.00000E+00  9.000E+00
      21    -1     0     0   511   502  0.000000000E+00  0.000000000E+00 -3.371262606E+02  3.371262606E+02  0.000000000E+00  0.00000E+00  9.000E+00
      25     1     1     2     0     0  1.013090637E+02  3.431859054E+01 -2.351513192E+01  1.661904133E+02  1.250000000E+02  0.00000E+00  9.000E+00
      25     1     1     2     0     0 -1.078410721E+02  6.098505166E+00 -7.516532256E+01  1.814985243E+02  1.250000000E+02  0.00000E+00  9.000E+00
      21     1     1     2   511   501  6.532008359E+00 -4.041709571E+01 -1.102637830E+02  1.176193462E+02  1.348699152E-06  0.00000E+00  9.000E+00
#rwgt            1           1   3.8372726019422376E-002           7       73192           0
</event>
<event>
      5   9999 -3.79277E-02  1.79814E+01 -1.00000E+00  1.70274E-01
      21    -1     0     0   502   512  0.000000000E+00  0.000000000E+00  1.802738907E+02  1.802738907E+02  0.000000000E+00  0.00000E+00  9.000E+00
      21    -1     0     0   501   502  0.000000000E+00  0.000000000E+00 -1.694360784E+02  1.694360784E+02  0.000000000E+00  0.00000E+00  9.000E+00
      25     1     1     2     0     0  7.108446357E+01  8.911390621E+01  1.211516665E+01  1.696056205E+02  1.250000000E+02  0.00000E+00  9.000E+00
      25     1     1     2     0     0 -6.455317041E+01 -7.236064569E+01 -1.284492923E+01  1.587235555E+02  1.250000000E+02  0.00000E+00  9.000E+00
      21     1     1     2   501   512 -6.531293154E+00 -1.675326053E+01  1.156757491E+01  2.138079320E+01  2.384185791E-07  0.00000E+00  9.000E+00
#rwgt            1           1  -4.3894897991821981E-002           7       73294           0
</event>
<event>
      5   9999  3.79277E-02  7.97122E+01 -1.00000E+00  1.28425E-01
      21    -1     0     0   502   501  0.000000000E+00  0.000000000E+00  1.008064397E+03  1.008064397E+03  0.000000000E+00  0.00000E+00  9.000E+00
      21    -1     0     0   511   502  0.000000000E+00  0.000000000E+00 -1.105253068E+02  1.105253068E+02  0.000000000E+00  0.00000E+00  9.000E+00
      25     1     1     2     0     0 -7.661524246E+01 -6.919833781E+01  6.545898658E+01  1.748375939E+02  1.250000000E+02  0.00000E+00  9.000E+00
      25     1     1     2     0     0 -1.681657784E+00  8.415235833E+01  8.489945414E+02  8.622651441E+02  1.250000000E+02  0.00000E+00  9.000E+00
      21     1     1     2   511   501  7.829690024E+01 -1.495402052E+01 -1.691443818E+01  8.148696544E+01  9.536743164E-07  0.00000E+00  9.000E+00
#rwgt            1           1   2.7504694258820798E-002           7       73406           0
</event>
<event>
      5   9999  3.79277E-02  2.36427E+01 -1.00000E+00  1.60588E-01
      21    -1     0     0   502   501  0.000000000E+00  0.000000000E+00  3.219393555E+02  3.219393555E+02  0.000000000E+00  0.00000E+00  9.000E+00
      21    -1     0     0   512   502  0.000000000E+00  0.000000000E+00 -9.488667436E+02  9.488667436E+02  0.000000000E+00  0.00000E+00  9.000E+00
      25     1     1     2     0     0 -5.969355923E+01  8.385469526E+01 -6.484810926E+01  1.744282322E+02  1.250000000E+02  0.00000E+00  9.000E+00
      25     1     1     2     0     0  5.629365062E+01 -6.045774712E+01  2.459547586E+02  2.879980166E+02  1.250000000E+02  0.00000E+00  9.000E+00
      21     1     1     2   512   501  3.399908614E+00 -2.339694814E+01 -8.080340374E+02  8.083798502E+02  1.078959322E-05  0.00000E+00  9.000E+00
#rwgt            1           1   1.8107383597380105E-002           7       73549           0
</event>
<event>
      5   9999  3.79277E-02  1.12410E+02 -1.00000E+00  1.21585E-01
      21    -1     0     0   502   511  0.000000000E+00  0.000000000E+00  3.475140530E+02  3.475140530E+02  0.000000000E+00  0.00000E+00  9.000E+00
      21    -1     0     0   501   502  0.000000000E+00  0.000000000E+00 -1.668805817E+02  1.668805817E+02  0.000000000E+00  0.00000E+00  9.000E+00
      25     1     1     2     0     0 -1.712811501E+02  4.682586181E+01  4.034137097E+01  2.208671997E+02  1.250000000E+02  0.00000E+00  9.000E+00
      25     1     1     2     0     0  6.818132739E+01 -2.031688240E+00  5.596530561E+01  1.530030607E+02  1.250000000E+02  0.00000E+00  9.000E+00
      21     1     1     2   501   511  1.030998227E+02 -4.479417357E+01  8.432679471E+01  1.405243742E+02  0.000000000E+00  0.00000E+00  9.000E+00
#rwgt            2          11   2.3347180694412175E-003           7       73732           0
</event>
<event>
      5   9999  3.79277E-02  1.32786E+02 -1.00000E+00  1.18531E-01
      21    -1     0     0   502   512  0.000000000E+00  0.000000000E+00  7.237899601E+02  7.237899601E+02  0.000000000E+00  0.00000E+00  9.000E+00
      21    -1     0     0   501   502  0.000000000E+00  0.000000000E+00 -2.091367296E+02  2.091367296E+02  0.000000000E+00  0.00000E+00  9.000E+00
      25     1     1     2     0     0  2.939907423E+01  1.031126954E+02  4.912896158E+01  1.718580472E+02  1.250000000E+02  0.00000E+00  9.000E+00
      25     1     1     2     0     0 -1.606965985E+02 -8.328363226E+01 -5.262741390E+01  2.261729535E+02  1.250000000E+02  0.00000E+00  9.000E+00
      21     1     1     2   501   512  1.312975243E+02 -1.982906318E+01  5.181516829E+02  5.348956890E+02  7.629394531E-06  0.00000E+00  9.000E+00
#rwgt            1           1   4.5641117845994769E-002           7       73782           0
</event>
<event>
      5   9999  3.79277E-02  5.24963E+01 -1.00000E+00  1.37879E-01
      21    -1     0     0   502   511  0.000000000E+00  0.000000000E+00  1.262642268E+02  1.262642268E+02  0.000000000E+00  0.00000E+00  9.000E+00
      21    -1     0     0   501   502  0.000000000E+00  0.000000000E+00 -3.523652028E+02  3.523652028E+02  0.000000000E+00  0.00000E+00  9.000E+00
      25     1     1     2     0     0 -7.768546842E+01  3.959017451E+01 -2.188411915E+02  2.666812348E+02  1.250000000E+02  0.00000E+00  9.000E+00
      25     1     1     2     0     0  9.794190508E+01  8.840630776E+00 -7.369197452E-01  1.590481580E+02  1.250000000E+02  0.00000E+00  9.000E+00
      21     1     1     2   501   511 -2.025643666E+01 -4.843080529E+01 -6.522864755E+00  5.290003678E+01  4.768371582E-07  0.00000E+00  9.000E+00
#rwgt            1           1   4.9276298351480514E-002           7       73846           0
</event>
<event>
      5   9999  3.79277E-02  7.03501E+01 -1.00000E+00  1.31111E-01
      21    -1     0     0   502   512  0.000000000E+00  0.000000000E+00  9.903097758E+02  9.903097758E+02  0.000000000E+00  0.00000E+00  9.000E+00
      21    -1     0     0   501   502  0.000000000E+00  0.000000000E+00 -1.723218761E+02  1.723218761E+02  0.000000000E+00  0.00000E+00  9.000E+00
      25     1     1     2     0     0 -1.544833983E+02 -1.195208262E+02  1.720352651E+02  2.887412002E+02  1.250000000E+02  0.00000E+00  9.000E+00
      25     1     1     2     0     0  1.620800367E+02  4.958211089E+01 -1.317987479E+01  2.110142960E+02  1.250000000E+02  0.00000E+00  9.000E+00
      21     1     1     2   501   512 -7.596638480E+00  6.993871531E+01  6.591325094E+02  6.628761557E+02  0.000000000E+00  0.00000E+00  9.000E+00
#rwgt            1           1   2.8971755653132681E-003           7       73939           0
</event>
<event>
      5   9999  3.79277E-02  1.50978E+01 -1.00000E+00  1.77118E-01
      21    -1     0     0   502   501  0.000000000E+00  0.000000000E+00  1.837276604E+03  1.837276604E+03  0.000000000E+00  0.00000E+00  9.000E+00
      21    -1     0     0   511   502  0.000000000E+00  0.000000000E+00 -7.088784209E+01  7.088784209E+01  0.000000000E+00  0.00000E+00  9.000E+00
      25     1     1     2     0     0 -9.609797282E+01 -1.541506369E+02  7.074200392E+02  7.409894406E+02  1.250000000E+02  0.00000E+00  9.000E+00
      25     1     1     2     0     0  1.089073743E+02  1.461592426E+02  1.100765700E+03  1.122734816E+03  1.250000000E+02  0.00000E+00  9.000E+00
      21     1     1     2   511   501 -1.280940153E+01  7.991394297E+00 -4.179697726E+01  4.444018968E+01  1.966049969E-06  0.00000E+00  9.000E+00
#rwgt            1           1   3.4711928570831774E-002           7       74065           0
</event>
<event>
      5   9999  3.79277E-02  1.53518E+01 -1.00000E+00  1.76440E-01
      21    -1     0     0   502   501  0.000000000E+00  0.000000000E+00  1.580184423E+02  1.580184423E+02  0.000000000E+00  0.00000E+00  9.000E+00
      21    -1     0     0   512   502  0.000000000E+00  0.000000000E+00 -2.841301130E+02  2.841301130E+02  0.000000000E+00  0.00000E+00  9.000E+00
      25     1     1     2     0     0 -1.232760114E+01 -1.473498896E+02 -2.033450562E+01  1.946855204E+02  1.250000000E+02  0.00000E+00  9.000E+00
      25     1     1     2     0     0  2.767885989E+01  1.474743465E+02 -6.818161410E+01  2.068538969E+02  1.250000000E+02  0.00000E+00  9.000E+00
      21     1     1     2   512   501 -1.535125875E+01 -1.244569062E-01 -3.759555098E+01  4.060913799E+01  0.000000000E+00  0.00000E+00  9.000E+00
#rwgt            1           1   4.5573124563101704E-002           7       74233           0
</event>
<event>
      5   9999  3.79277E-02  1.10916E+02 -1.00000E+00  1.21837E-01
      21    -1     0     0   502   501  0.000000000E+00  0.000000000E+00  1.868050498E+03  1.868050498E+03  0.000000000E+00  0.00000E+00  9.000E+00
      21    -1     0     0   511   502  0.000000000E+00  0.000000000E+00 -3.797810557E+01  3.797810557E+01  0.000000000E+00  0.00000E+00  9.000E+00
      25     1     1     2     0     0 -2.342092976E+01 -3.715654633E+01  1.238469956E+03  1.245536824E+03  1.250000000E+02  0.00000E+00  9.000E+00
      25     1     1     2     0     0 -6.488882469E+01  1.042673283E+02  2.863604983E+02  3.357224602E+02  1.250000000E+02  0.00000E+00  9.000E+00
      21     1     1     2   511   501  8.830975446E+01 -6.711078194E+01  3.052419386E+02  3.247693195E+02  3.814697266E-06  0.00000E+00  9.000E+00
#rwgt            1           1   4.3363123839187834E-002           7       74443           0
</event>
<event>
      5   9999  3.79277E-02  8.06193E+01 -1.00000E+00  1.28188E-01
      21    -1     0     0   502   501  0.000000000E+00  0.000000000E+00  1.733851233E+03  1.733851233E+03  0.000000000E+00  0.00000E+00  9.000E+00
      21    -1     0     0   501   512  0.000000000E+00  0.000000000E+00 -1.216109621E+02  1.216109621E+02  0.000000000E+00  0.00000E+00  9.000E+00
      25     1     1     2     0     0 -2.237317532E+02  1.927706322E+01  6.347215998E+02  6.847802653E+02  1.250000000E+02  0.00000E+00  9.000E+00
      25     1     1     2     0     0  1.940014529E+02 -9.421422177E+01  1.039512561E+03  1.068982810E+03  1.250000000E+02  0.00000E+00  9.000E+00
      21     1     1     2   502   512  2.973030031E+01  7.493715855E+01 -6.199389028E+01  1.016991196E+02  1.507891493E-06  0.00000E+00  9.000E+00
#rwgt            1           1   3.8620905900907110E-002           7       74544           0
</event>
<event>
      5   9999  3.79277E-02  2.17875E+01 -1.00000E+00  1.63359E-01
      21    -1     0     0   502   501  0.000000000E+00  0.000000000E+00  9.870080570E+01  9.870080570E+01  0.000000000E+00  0.00000E+00  9.000E+00
      21    -1     0     0   511   502  0.000000000E+00  0.000000000E+00 -4.779857364E+02  4.779857364E+02  0.000000000E+00  0.00000E+00  9.000E+00
      25     1     1     2     0     0  9.750220878E+01  1.064164443E+02 -1.026045869E+02  2.167575641E+02  1.250000000E+02  0.00000E+00  9.000E+00
      25     1     1     2     0     0 -1.121948277E+02 -1.225043400E+02 -2.427444920E+02  3.196011281E+02  1.250000000E+02  0.00000E+00  9.000E+00
      21     1     1     2   511   501  1.469261895E+01  1.608789570E+01 -3.393585182E+01  4.032784991E+01  4.768371582E-07  0.00000E+00  9.000E+00
#rwgt            1           1   4.3217790794700062E-002           7       74605           0
</event>
<event>
      5   9999  3.79277E-02  1.72637E+01 -1.00000E+00  1.71820E-01
      21    -1     0     0   502   512  0.000000000E+00  0.000000000E+00  6.541693055E+02  6.541693055E+02  0.000000000E+00  0.00000E+00  9.000E+00
      21    -1     0     0   501   502  0.000000000E+00  0.000000000E+00 -7.150041833E+01  7.150041833E+01  0.000000000E+00  0.00000E+00  9.000E+00
      25     1     1     2     0     0  1.447696532E+02  5.153175215E+01  2.916979079E+02  3.525995511E+02  1.250000000E+02  0.00000E+00  9.000E+00
      25     1     1     2     0     0 -1.606989523E+02 -5.818691974E+01  2.442059715E+02  3.232204007E+02  1.250000000E+02  0.00000E+00  9.000E+00
      21     1     1     2   501   512  1.592929910E+01  6.655167585E+00  4.676500786E+01  4.984977217E+01  6.743495762E-07  0.00000E+00  9.000E+00
#rwgt            1           1   3.6380404693785819E-002           7       74912           0
</event>
<event>
      5   9999  3.79277E-02  1.78759E+01 -1.00000E+00  1.70495E-01
      -4    -1     0     0     0   501  0.000000000E+00  0.000000000E+00  1.639279649E+02  1.639279649E+02  0.000000000E+00  0.00000E+00  9.000E+00
      21    -1     0     0   501   502  0.000000000E+00  0.000000000E+00 -1.771742014E+03  1.771742014E+03  0.000000000E+00  0.00000E+00  9.000E+00
      25     1     1     2     0     0  8.118112002E+01 -3.362151961E+02 -7.734360632E+02  8.564224286E+02  1.250000000E+02  0.00000E+00  9.000E+00
      25     1     1     2     0     0 -6.502862816E+01  3.438732067E+02 -9.197683170E+02  9.920061803E+02  1.250000000E+02  0.00000E+00  9.000E+00
      -4     1     1     2     0   502 -1.615249186E+01 -7.658010594E+00  8.539033071E+01  8.724137034E+01  2.132480600E-06  0.00000E+00  9.000E+00
#rwgt            1           1   2.4271387018624444E-002           7       75123           0
</event>
<event>
      5   9999 -3.79277E-02  2.96007E+01 -1.00000E+00  1.53445E-01
      21    -1     0     0   502   501  0.000000000E+00  0.000000000E+00  6.154884829E+02  6.154884829E+02  0.000000000E+00  0.00000E+00  9.000E+00
      21    -1     0     0   501   511  0.000000000E+00  0.000000000E+00 -2.727647363E+02  2.727647363E+02  0.000000000E+00  0.00000E+00  9.000E+00
      25     1     1     2     0     0 -7.479302839E+01  2.590934325E+02  2.950541962E+02  4.188142578E+02  1.250000000E+02  0.00000E+00  9.000E+00
      25     1     1     2     0     0  4.892145540E+01 -2.734762522E+02  1.663642294E+02  3.471089543E+02  1.250000000E+02  0.00000E+00  9.000E+00
      21     1     1     2   502   511  2.587157299E+01  1.438281972E+01 -1.186946790E+02  1.223300070E+02  2.336015456E-06  0.00000E+00  9.000E+00
#rwgt            1           1  -5.2032953058883127E-002           7       75439           0
</event>
<event>
      5   9999  3.79277E-02  1.29091E+01 -1.00000E+00  1.83754E-01
      21    -1     0     0   502   501  0.000000000E+00  0.000000000E+00  9.993295066E+02  9.993295066E+02  0.000000000E+00  0.00000E+00  9.000E+00
      21    -1     0     0   512   502  0.000000000E+00  0.000000000E+00 -2.572887150E+03  2.572887150E+03  0.000000000E+00  0.00000E+00  9.000E+00
      25     1     1     2     0     0 -1.201414528E+02 -2.734903429E-01  4.044297270E+02  4.400255078E+02  1.250000000E+02  0.00000E+00  9.000E+00
      25     1     1     2     0     0  1.078822869E+02 -3.771002742E+00  5.652684517E+02  5.889025647E+02  1.250000000E+02  0.00000E+00  9.000E+00
      21     1     1     2   512   501  1.225916592E+01  4.044493085E+00 -2.543255822E+03  2.543288584E+03  0.000000000E+00  0.00000E+00  9.000E+00
#rwgt            1           1   2.4680088645338414E-002           7       75619           0
</event>
<event>
      5   9999  3.79277E-02  1.53351E+01 -1.00000E+00  1.76484E-01
      21    -1     0     0   502   511  0.000000000E+00  0.000000000E+00  9.935081259E+01  9.935081259E+01  0.000000000E+00  0.00000E+00  9.000E+00
      21    -1     0     0   501   502  0.000000000E+00  0.000000000E+00 -3.871483557E+02  3.871483557E+02  0.000000000E+00  0.00000E+00  9.000E+00
      25     1     1     2     0     0  5.390619712E+01  6.252525571E+01 -2.560439141E+02  2.966458691E+02  1.250000000E+02  0.00000E+00  9.000E+00
      25     1     1     2     0     0 -3.946484937E+01 -6.768400047E+01 -5.876018276E+01  1.587965911E+02  1.250000000E+02  0.00000E+00  9.000E+00
      21     1     1     2   501   511 -1.444134775E+01  5.158744754E+00  2.700655378E+01  3.105670812E+01  3.371747881E-07  0.00000E+00  9.000E+00
#rwgt            1           1   3.9159747464813308E-002           7       75790           0
</event>
<event>
      5   9999  3.79277E-02  1.82099E+02 -1.00000E+00  1.13151E-01
      21    -1     0     0   512   501  0.000000000E+00  0.000000000E+00  5.115795991E+02  5.115795991E+02  0.000000000E+00  0.00000E+00  9.000E+00
      21    -1     0     0   501   502  0.000000000E+00  0.000000000E+00 -2.461721558E+02  2.461721558E+02  0.000000000E+00  0.00000E+00  9.000E+00
      25     1     1     2     0     0 -7.922809488E+01  1.280289573E+02  2.579225526E+02  3.237553830E+02  1.250000000E+02  0.00000E+00  9.000E+00
      25     1     1     2     0     0 -4.406780939E+01  5.979469314E+00 -1.449603926E+02  1.965101557E+02  1.250000000E+02  0.00000E+00  9.000E+00
      21     1     1     2   512   502  1.232959043E+02 -1.340084266E+02  1.524452834E+02  2.374862161E+02  3.814697266E-06  0.00000E+00  9.000E+00
#rwgt            1           1   1.8999549729419432E-002           7       75953           0
</event>
<event>
      5   9999  3.79277E-02  7.81329E+01 -1.00000E+00  1.28848E-01
      21    -1     0     0   502   501  0.000000000E+00  0.000000000E+00  4.955681141E+01  4.955681141E+01  0.000000000E+00  0.00000E+00  9.000E+00
      21    -1     0     0   501   511  0.000000000E+00  0.000000000E+00 -1.932414172E+03  1.932414172E+03  0.000000000E+00  0.00000E+00  9.000E+00
      25     1     1     2     0     0  7.309727911E+01  1.830618402E+02 -6.955337598E+02  7.336532291E+02  1.250000000E+02  0.00000E+00  9.000E+00
      25     1     1     2     0     0 -5.004981026E+00 -2.213788038E+02 -5.466456889E+02  6.028931363E+02  1.250000000E+02  0.00000E+00  9.000E+00
      21     1     1     2   502   511 -6.809229808E+01  3.831696362E+01 -6.406779120E+02  6.454246182E+02  0.000000000E+00  0.00000E+00  9.000E+00
#rwgt            1           1   3.4846672824685863E-002           7       76021           0
</event>
<event>
      5   9999  3.79277E-02  1.58236E+01 -1.00000E+00  1.75224E-01
      21    -1     0     0   502   501  0.000000000E+00  0.000000000E+00  6.082823619E+02  6.082823619E+02  0.000000000E+00  0.00000E+00  9.000E+00
      21    -1     0     0   501   512  0.000000000E+00  0.000000000E+00 -9.829660203E+01  9.829660203E+01  0.000000000E+00  0.00000E+00  9.000E+00
      25     1     1     2     0     0 -5.293851250E+00 -3.451458361E+01  5.422468367E+02  5.575624748E+02  1.250000000E+02  0.00000E+00  9.000E+00
      25     1     1     2     0     0  6.326781948E-02  1.958049636E+01 -1.815882011E+01  1.278207440E+02  1.250000000E+02  0.00000E+00  9.000E+00
      21     1     1     2   502   512  5.230583431E+00  1.493408725E+01 -1.410225680E+01  2.119574514E+01  6.529361695E-07  0.00000E+00  9.000E+00
#rwgt            1           1   4.1061450436337008E-002           7       76142           0
</event>
<event>
      5   9999  3.79277E-02  7.92759E+01 -1.00000E+00  1.28541E-01
      21    -1     0     0   502   501  0.000000000E+00  0.000000000E+00  6.614870002E+01  6.614870002E+01  0.000000000E+00  0.00000E+00  9.000E+00
      21    -1     0     0   501   511  0.000000000E+00  0.000000000E+00 -8.747036263E+02  8.747036263E+02  0.000000000E+00  0.00000E+00  9.000E+00
      25     1     1     2     0     0 -1.084035131E+02 -2.059779584E+01 -3.830790582E+02  4.177920004E+02  1.250000000E+02  0.00000E+00  9.000E+00
      25     1     1     2     0     0  1.322125238E+02 -5.501838659E+01 -1.680982777E+02  2.537502813E+02  1.250000000E+02  0.00000E+00  9.000E+00
      21     1     1     2   502   511 -2.380901073E+01  7.561618243E+01 -2.573775904E+02  2.693100446E+02  5.394796609E-06  0.00000E+00  9.000E+00
#rwgt            1           1   3.9566712402953882E-002           7       76370           0
</event>
<event>
      5   9999  3.79277E-02  1.42457E+02 -1.00000E+00  1.17289E-01
      21    -1     0     0   502   512  0.000000000E+00  0.000000000E+00  1.562869104E+03  1.562869104E+03  0.000000000E+00  0.00000E+00  9.000E+00
      21    -1     0     0   501   502  0.000000000E+00  0.000000000E+00 -1.024290515E+02  1.024290515E+02  0.000000000E+00  0.00000E+00  9.000E+00
      25     1     1     2     0     0  3.938646587E+01  9.111608434E+01  3.568628739E+02  3.909341956E+02  1.250000000E+02  0.00000E+00  9.000E+00
      25     1     1     2     0     0 -1.658781304E+02 -1.566444480E+02  1.307452541E+02  2.911569314E+02  1.250000000E+02  0.00000E+00  9.000E+00
      21     1     1     2   501   512  1.264916645E+02  6.552836369E+01  9.728319247E+02  9.832070287E+02  1.078959322E-05  0.00000E+00  9.000E+00
#rwgt            2          11   9.0202847913754944E-004           7       76726           0
</event>
<event>
      5   9999  3.79277E-02  3.88120E+01 -1.00000E+00  1.45657E-01
      21    -1     0     0   502   501  0.000000000E+00  0.000000000E+00  9.877501000E+01  9.877501000E+01  0.000000000E+00  0.00000E+00  9.000E+00
      21    -1     0     0   511   502  0.000000000E+00  0.000000000E+00 -8.216842351E+02  8.216842351E+02  0.000000000E+00  0.00000E+00  9.000E+00
      25     1     1     2     0     0 -9.243079807E+01 -5.675947477E+01 -7.085631576E+01  1.800297417E+02  1.250000000E+02  0.00000E+00  9.000E+00
      25     1     1     2     0     0  7.329271560E+01  9.052493096E+01 -1.243864613E+02  2.113375902E+02  1.250000000E+02  0.00000E+00  9.000E+00
      21     1     1     2   511   501  1.913808247E+01 -3.376545618E+01 -5.276664480E+02  5.290919131E+02  7.629394531E-06  0.00000E+00  9.000E+00
#rwgt            1           1   4.1446130525429663E-002           7       76746           0
</event>
<event>
      5   9999  3.79277E-02  1.39919E+01 -1.00000E+00  1.80278E-01
      21    -1     0     0   512   501  0.000000000E+00  0.000000000E+00  3.012362738E+02  3.012362738E+02  0.000000000E+00  0.00000E+00  9.000E+00
      21    -1     0     0   501   502  0.000000000E+00  0.000000000E+00 -8.737895055E+02  8.737895055E+02  0.000000000E+00  0.00000E+00  9.000E+00
      25     1     1     2     0     0  1.544200675E+02 -6.754385008E+01 -2.593102058E+02  3.335783443E+02  1.250000000E+02  0.00000E+00  9.000E+00
      25     1     1     2     0     0 -1.405501849E+02  6.569993591E+01 -5.599521498E+02  5.943418596E+02  1.250000000E+02  0.00000E+00  9.000E+00
      21     1     1     2   512   502 -1.386988260E+01  1.843914170E+00  2.467091238E+02  2.471055755E+02  3.814697266E-06  0.00000E+00  9.000E+00
#rwgt            1           1  0.22505619444126018                7       76879           0
</event>
<event>
      5   9999  3.79277E-02  1.05681E+01 -1.00000E+00  1.93023E-01
       2    -1     0     0   502     0  0.000000000E+00  0.000000000E+00  9.648834116E+02  9.648834116E+02  0.000000000E+00  0.00000E+00  9.000E+00
      21    -1     0     0   501   502  0.000000000E+00  0.000000000E+00 -6.716629251E+01  6.716629251E+01  0.000000000E+00  0.00000E+00  9.000E+00
      25     1     1     2     0     0 -3.059976466E+01  1.424999533E+02  2.683267291E+02  3.299497172E+02  1.250000000E+02  0.00000E+00  9.000E+00
      25     1     1     2     0     0  3.701046867E+01 -1.340983145E+02  2.046728424E+02  2.772509787E+02  1.250000000E+02  0.00000E+00  9.000E+00
       2     1     1     2   501     0 -6.410704014E+00 -8.401638771E+00  4.247175475E+02  4.248490082E+02  7.629394531E-06  0.00000E+00  9.000E+00
#rwgt            1           1   2.5276441709939545E-002           7       77092           0
</event>
<event>
      5   9999  3.79277E-02  2.18902E+01 -1.00000E+00  1.63197E-01
      21    -1     0     0   511   501  0.000000000E+00  0.000000000E+00  4.351192590E+02  4.351192590E+02  0.000000000E+00  0.00000E+00  9.000E+00
      21    -1     0     0   501   502  0.000000000E+00  0.000000000E+00 -9.915391564E+01  9.915391564E+01  0.000000000E+00  0.00000E+00  9.000E+00
      25     1     1     2     0     0 -7.368292189E+00  1.696154996E+01  3.346599489E+02  3.577209350E+02  1.250000000E+02  0.00000E+00  9.000E+00
      25     1     1     2     0     0  1.342499991E+01 -3.799714871E+01 -3.340370547E+01  1.355168679E+02  1.250000000E+02  0.00000E+00  9.000E+00
      21     1     1     2   511   502 -6.056707724E+00  2.103559875E+01  3.470909987E+01  4.103537178E+01  8.259061849E-07  0.00000E+00  9.000E+00
#rwgt            1           1   3.2698493717407962E-002           7       77375           0
</event>
<event>
      5   9999  3.79277E-02  1.18965E+01 -1.00000E+00  1.87424E-01
      21    -1     0     0   502   512  0.000000000E+00  0.000000000E+00  1.034439500E+02  1.034439500E+02  0.000000000E+00  0.00000E+00  9.000E+00
      21    -1     0     0   501   502  0.000000000E+00  0.000000000E+00 -6.150879790E+02  6.150879790E+02  0.000000000E+00  0.00000E+00  9.000E+00
      25     1     1     2     0     0 -5.373324679E+01  9.774602778E+01 -5.707250753E+00  1.676279227E+02  1.250000000E+02  0.00000E+00  9.000E+00
      25     1     1     2     0     0  6.512598866E+01 -1.011712286E+02 -5.097051946E+02  5.384249226E+02  1.250000000E+02  0.00000E+00  9.000E+00
      21     1     1     2   501   512 -1.139274187E+01  3.425200809E+00  3.768416320E+00  1.247908368E+01  2.950279396E-07  0.00000E+00  9.000E+00
#rwgt            1           1   3.8968761066344698E-002           7       77540           0
</event>
<event>
      5   9999  3.79277E-02  2.71053E+01 -1.00000E+00  1.56165E-01
      21    -1     0     0   502   501  0.000000000E+00  0.000000000E+00  3.637426608E+01  3.637426608E+01  0.000000000E+00  0.00000E+00  9.000E+00
       2    -1     0     0   501     0  0.000000000E+00  0.000000000E+00 -1.708089801E+03  1.708089801E+03  0.000000000E+00  0.00000E+00  9.000E+00
      25     1     1     2     0     0  2.396494352E+01  1.375410916E+02 -5.110922726E+02  5.443640156E+02  1.250000000E+02  0.00000E+00  9.000E+00
      25     1     1     2     0     0 -4.108920936E+01 -1.585519492E+02 -5.262352343E+02  5.651332281E+02  1.250000000E+02  0.00000E+00  9.000E+00
       2     1     1     2   502     0  1.712426584E+01  2.101085767E+01 -6.343880279E+02  6.349668232E+02  7.629394531E-06  0.00000E+00  9.000E+00
#rwgt            1           1   3.3422202502529301E-002           7       77907           0
</event>
<event>
      5   9999  3.79277E-02  4.33008E+01 -1.00000E+00  1.42736E-01
      21    -1     0     0   502   501  0.000000000E+00  0.000000000E+00  7.094275962E+02  7.094275962E+02  0.000000000E+00  0.00000E+00  9.000E+00
       1    -1     0     0   501     0  0.000000000E+00  0.000000000E+00 -5.437937139E+02  5.437937139E+02  0.000000000E+00  0.00000E+00  9.000E+00
      25     1     1     2     0     0  1.895905365E+02  1.683536612E+02  3.193837729E+02  4.265190748E+02  1.250000000E+02  0.00000E+00  9.000E+00
      25     1     1     2     0     0 -1.763326484E+02 -1.271324616E+02  2.885515146E+02  3.822863355E+02  1.250000000E+02  0.00000E+00  9.000E+00
       1     1     1     2   502     0 -1.325788801E+01 -4.122119963E+01 -4.423014052E+02  4.444158998E+02  7.629394531E-06  0.00000E+00  9.000E+00
#rwgt            1           1   2.9973189264714387E-002           7       78009           0
</event>
<event>
      5   9999  3.79277E-02  5.95019E+01 -1.00000E+00  1.34897E-01
      21    -1     0     0   502   501  0.000000000E+00  0.000000000E+00  2.367569513E+02  2.367569513E+02  0.000000000E+00  0.00000E+00  9.000E+00
      21    -1     0     0   511   502  0.000000000E+00  0.000000000E+00 -1.718488442E+02  1.718488442E+02  0.000000000E+00  0.00000E+00  9.000E+00
      25     1     1     2     0     0  1.076547252E+02 -4.275705659E+01 -7.463153474E+00  1.705825442E+02  1.250000000E+02  0.00000E+00  9.000E+00
      25     1     1     2     0     0 -6.709399340E+01  8.629211495E+01  6.389832186E+01  1.779211302E+02  1.250000000E+02  0.00000E+00  9.000E+00
      21     1     1     2   511   501 -4.056073175E+01 -4.353505836E+01  8.472938679E+00  6.010212106E+01  8.172577143E-07  0.00000E+00  9.000E+00
#rwgt            1           1   3.5832160134152705E-002           7       78118           0
</event>
<event>
      5   9999  3.79277E-02  2.28866E+01 -1.00000E+00  1.61679E-01
      21    -1     0     0   502   501  0.000000000E+00  0.000000000E+00  4.555803689E+01  4.555803689E+01  0.000000000E+00  0.00000E+00  9.000E+00
      21    -1     0     0   512   502  0.000000000E+00  0.000000000E+00 -1.038420281E+03  1.038420281E+03  0.000000000E+00  0.00000E+00  9.000E+00
      25     1     1     2     0     0  6.386434288E+01  1.073373845E+02 -2.047360786E+02  2.704474631E+02  1.250000000E+02  0.00000E+00  9.000E+00
      25     1     1     2     0     0 -4.254384058E+01 -9.901683128E+01 -5.479344142E+02  5.722511979E+02  1.250000000E+02  0.00000E+00  9.000E+00
      21     1     1     2   512   501 -2.132050230E+01 -8.320553266E+00 -2.401917510E+02  2.412796566E+02  3.814697266E-06  0.00000E+00  9.000E+00
#rwgt            1           1  0.26770319937970349                7       78246           0
</event>
<event>
      5   9999  3.79277E-02  5.08726E+01 -1.00000E+00  1.38648E-01
       4    -1     0     0   502     0  0.000000000E+00  0.000000000E+00  5.850536970E+02  5.850536970E+02  0.000000000E+00  0.00000E+00  9.000E+00
      21    -1     0     0   501   502  0.000000000E+00  0.000000000E+00 -1.918032507E+02  1.918032507E+02  0.000000000E+00  0.00000E+00  9.000E+00
      25     1     1     2     0     0 -4.279311308E+01  9.511370349E+01 -1.022701783E+02  1.922551859E+02  1.250000000E+02  0.00000E+00  9.000E+00
      25     1     1     2     0     0 -6.797085074E+00 -1.064642952E+02  1.147148650E+02  2.004129406E+02  1.250000000E+02  0.00000E+00  9.000E+00
       4     1     1     2   501     0  4.959019816E+01  1.135059174E+01  3.808057597E+02  3.841888212E+02  0.000000000E+00  0.00000E+00  9.000E+00
#rwgt            1           1   4.3135200259026014E-002           7       78538           0
</event>
<event>
      5   9999  3.79277E-02  1.18963E+02 -1.00000E+00  1.20528E-01
      21    -1     0     0   502   501  0.000000000E+00  0.000000000E+00  1.244265345E+02  1.244265345E+02  0.000000000E+00  0.00000E+00  9.000E+00
      21    -1     0     0   511   502  0.000000000E+00  0.000000000E+00 -6.198337943E+02  6.198337943E+02  0.000000000E+00  0.00000E+00  9.000E+00
      25     1     1     2     0     0  1.247578784E+02  1.056480482E+01 -1.479630127E+02  2.306386708E+02  1.250000000E+02  0.00000E+00  9.000E+00
      25     1     1     2     0     0 -2.025938116E+02 -1.005304037E+02 -2.211621574E+02  3.401298494E+02  1.250000000E+02  0.00000E+00  9.000E+00
      21     1     1     2   511   501  7.783593322E+01  8.996559891E+01 -1.262820897E+02  1.734918087E+02  3.303624740E-06  0.00000E+00  9.000E+00
#rwgt            1           1   8.1492480505066009E-002           7       78733           0
</event>
<event>
      5   9999  3.79277E-02  4.67393E+01 -1.00000E+00  1.40767E-01
      21    -1     0     0   512   501  0.000000000E+00  0.000000000E+00  1.059400718E+02  1.059400718E+02  0.000000000E+00  0.00000E+00  9.000E+00
      21    -1     0     0   501   502  0.000000000E+00  0.000000000E+00 -6.524785416E+02  6.524785416E+02  0.000000000E+00  0.00000E+00  9.000E+00
      25     1     1     2     0     0 -4.898297561E+01 -2.037205177E+02 -3.439755244E+02  4.217173729E+02  1.250000000E+02  0.00000E+00  9.000E+00
      25     1     1     2     0     0  2.389153694E+01  1.642873119E+02 -2.022154225E+02  2.899606930E+02  1.250000000E+02  0.00000E+00  9.000E+00
      21     1     1     2   512   502  2.509143866E+01  3.943320577E+01 -3.475228813E-01  4.674054753E+01  6.919419624E-08  0.00000E+00  9.000E+00
#rwgt            1           1   3.6413155042877544E-002           7       78935           0
</event>
<event>
      5   9999  3.79277E-02  2.17364E+01 -1.00000E+00  1.63440E-01
      21    -1     0     0   502   501  0.000000000E+00  0.000000000E+00  5.769264324E+02  5.769264324E+02  0.000000000E+00  0.00000E+00  9.000E+00
      21    -1     0     0   501   511  0.000000000E+00  0.000000000E+00 -1.261908897E+02  1.261908897E+02  0.000000000E+00  0.00000E+00  9.000E+00
      25     1     1     2     0     0 -3.011893774E+00 -1.515122335E+02  1.621807873E+02  2.547403309E+02  1.250000000E+02  0.00000E+00  9.000E+00
      25     1     1     2     0     0 -1.687107665E+01  1.427293856E+02  3.415637607E+02  3.910845348E+02  1.250000000E+02  0.00000E+00  9.000E+00
      21     1     1     2   502   511  1.988297043E+01  8.782847872E+00 -5.300900525E+01  5.729245646E+01  1.348699152E-06  0.00000E+00  9.000E+00
#rwgt            1           1   4.1728744610473094E-002           7       79142           0
</event>
<event>
      5   9999  3.79277E-02  1.24660E+02 -1.00000E+00  1.19670E-01
      21    -1     0     0   502   501  0.000000000E+00  0.000000000E+00  1.499014866E+02  1.499014866E+02  0.000000000E+00  0.00000E+00  9.000E+00
      21    -1     0     0   512   502  0.000000000E+00  0.000000000E+00 -4.170702168E+02  4.170702168E+02  0.000000000E+00  0.00000E+00  9.000E+00
      25     1     1     2     0     0 -1.184723030E+01  1.742841020E+01  5.793289524E+00  1.268962905E+02  1.250000000E+02  0.00000E+00  9.000E+00
      25     1     1     2     0     0  8.889967254E+01 -1.154240078E+02 -7.492533634E+01  2.060695498E+02  1.250000000E+02  0.00000E+00  9.000E+00
      21     1     1     2   512   501 -7.705244224E+01  9.799559756E+01 -1.980366833E+02  2.340058631E+02  2.697398305E-06  0.00000E+00  9.000E+00
#rwgt            1           1   9.9666253663537999E-002           7       79285           0
</event>
<event>
      5   9999  3.79277E-02  1.46960E+01 -1.00000E+00  1.78225E-01
      21    -1     0     0   502   501  0.000000000E+00  0.000000000E+00  3.722416789E+01  3.722416789E+01  0.000000000E+00  0.00000E+00  9.000E+00
      21    -1     0     0   511   502  0.000000000E+00  0.000000000E+00 -2.210911235E+03  2.210911235E+03  0.000000000E+00  0.00000E+00  9.000E+00
      25     1     1     2     0     0 -1.673494677E+02  9.360214859E+01 -9.674262800E+02  9.941357119E+02  1.250000000E+02  0.00000E+00  9.000E+00
      25     1     1     2     0     0  1.701880994E+02 -7.918289826E+01 -5.106236593E+02  5.582073467E+02  1.250000000E+02  0.00000E+00  9.000E+00
      21     1     1     2   511   501 -2.838631639E+00 -1.441925033E+01 -6.956371276E+02  6.957923440E+02  0.000000000E+00  0.00000E+00  9.000E+00
#rwgt            1           1   4.3253756718604375E-002           7       79340           0
</event>
<event>
      5   9999  3.79277E-02  1.80424E+01 -1.00000E+00  1.70147E-01
       2    -1     0     0   502     0  0.000000000E+00  0.000000000E+00  1.762408698E+03  1.762408698E+03  0.000000000E+00  0.00000E+00  9.000E+00
      21    -1     0     0   501   502  0.000000000E+00  0.000000000E+00 -8.885819189E+01  8.885819189E+01  0.000000000E+00  0.00000E+00  9.000E+00
      25     1     1     2     0     0 -2.186483970E+01 -7.319073614E+01 -1.661081534E+01  1.474309135E+02  1.250000000E+02  0.00000E+00  9.000E+00
      25     1     1     2     0     0  1.191699895E+01  8.824297923E+01  8.671199892E+02  8.805969077E+02  1.250000000E+02  0.00000E+00  9.000E+00
       2     1     1     2   501     0  9.947840751E+00 -1.505224309E+01  8.230413324E+02  8.232390688E+02  1.868812365E-05  0.00000E+00  9.000E+00
#rwgt            1           1   3.7510564450308551E-002           7       79628           0
</event>
<event>
      5   9999  3.79277E-02  4.59745E+01 -1.00000E+00  1.41188E-01
      21    -1     0     0   502   511  0.000000000E+00  0.000000000E+00  4.638965757E+01  4.638965757E+01  0.000000000E+00  0.00000E+00  9.000E+00
      21    -1     0     0   501   502  0.000000000E+00  0.000000000E+00 -2.788832152E+03  2.788832152E+03  0.000000000E+00  0.00000E+00  9.000E+00
      25     1     1     2     0     0  2.901163511E+01  4.407357841E+01 -2.436702310E+03  2.440476860E+03  1.250000000E+02  0.00000E+00  9.000E+00
      25     1     1     2     0     0  1.676743179E+01 -3.983892261E+01 -3.202891146E+02  3.465233087E+02  1.250000000E+02  0.00000E+00  9.000E+00
      21     1     1     2   501   511 -4.577906690E+01 -4.234655798E+00  1.454893042E+01  4.822164092E+01  1.168007728E-06  0.00000E+00  9.000E+00
#rwgt            1           1   4.7856379429043139E-002           7       79972           0
</event>
<event>
      5   9999  3.79277E-02  2.10368E+01 -1.00000E+00  1.64578E-01
      21    -1     0     0   512   501  0.000000000E+00  0.000000000E+00  3.681077497E+01  3.681077497E+01  0.000000000E+00  0.00000E+00  9.000E+00
      21    -1     0     0   501   502  0.000000000E+00  0.000000000E+00 -1.396071014E+03  1.396071014E+03  0.000000000E+00  0.00000E+00  9.000E+00
      25     1     1     2     0     0  4.431592484E+01  3.518204819E+01 -1.193625668E+03  1.201486126E+03  1.250000000E+02  0.00000E+00  9.000E+00
      25     1     1     2     0     0 -6.026431066E+01 -2.146366682E+01 -1.470540211E+02  2.033282107E+02  1.250000000E+02  0.00000E+00  9.000E+00
      21     1     1     2   512   502  1.594838582E+01 -1.371838136E+01 -1.858055007E+01  2.806745159E+01  6.307962682E-07  0.00000E+00  9.000E+00
#rwgt            1           1   4.4387132719594123E-002           7       80070           0
</event>
<event>
      5   9999  3.79277E-02  3.63488E+01 -1.00000E+00  1.47466E-01
      21    -1     0     0   511   501  0.000000000E+00  0.000000000E+00  1.086072108E+02  1.086072108E+02  0.000000000E+00  0.00000E+00  9.000E+00
      21    -1     0     0   501   502  0.000000000E+00  0.000000000E+00 -7.685302570E+02  7.685302570E+02  0.000000000E+00  0.00000E+00  9.000E+00
      25     1     1     2     0     0  2.691645161E+01 -1.430601143E+02 -5.739582815E+02  6.051807999E+02  1.250000000E+02  0.00000E+00  9.000E+00
      25     1     1     2     0     0 -1.140715354E+01  1.759341139E+02 -5.217673722E+01  2.223293672E+02  1.250000000E+02  0.00000E+00  9.000E+00
      21     1     1     2   511   502 -1.550929807E+01 -3.287399962E+01 -3.378802752E+01  4.962730077E+01  1.066240300E-06  0.00000E+00  9.000E+00
#rwgt            1           1   2.7966633291786561E-002           7       80205           0
</event>
<event>
      5   9999 -3.79277E-02  9.99208E+01 -1.00000E+00  1.23843E-01
      21    -1     0     0   502   501  0.000000000E+00  0.000000000E+00  9.854328324E+02  9.854328324E+02  0.000000000E+00  0.00000E+00  9.000E+00
      21    -1     0     0   512   502  0.000000000E+00  0.000000000E+00 -5.394638202E+02  5.394638202E+02  0.000000000E+00  0.00000E+00  9.000E+00
      25     1     1     2     0     0  8.013689038E+01  2.809192277E+02  8.269909854E+02  8.859326293E+02  1.250000000E+02  0.00000E+00  9.000E+00
      25     1     1     2     0     0 -4.962127180E+01 -3.760662437E+02 -2.394145278E+02  4.656526671E+02  1.250000000E+02  0.00000E+00  9.000E+00
      21     1     1     2   512   501 -3.051561858E+01  9.514701597E+01 -1.416074454E+02  1.733113562E+02  2.697398305E-06  0.00000E+00  9.000E+00
#rwgt            1           1 -0.12085635858894013                7       80369           0
</event>
<event>
      5   9999  3.79277E-02  3.90976E+01 -1.00000E+00  1.45457E-01
      21    -1     0     0   502   501  0.000000000E+00  0.000000000E+00  1.278248819E+02  1.278248819E+02  0.000000000E+00  0.00000E+00  9.000E+00
      21    -1     0     0   501   511  0.000000000E+00  0.000000000E+00 -4.360936232E+02  4.360936232E+02  0.000000000E+00  0.00000E+00  9.000E+00
      25     1     1     2     0     0 -1.533188029E+02 -3.236585575E+01 -2.382677021E+02  3.113690765E+02  1.250000000E+02  0.00000E+00  9.000E+00
      25     1     1     2     0     0  1.450833779E+02 -5.854521665E+00 -2.545332838E+01  1.932778671E+02  1.250000000E+02  0.00000E+00  9.000E+00
      21     1     1     2   502   511  8.235424953E+00  3.822037741E+01 -4.454771081E+01  5.927156158E+01  6.743495762E-07  0.00000E+00  9.000E+00
#rwgt            1           1   4.4283209782419522E-003           7       80506           0
</event>
<event>
      5   9999  3.79277E-02  6.72745E+01 -1.00000E+00  1.32100E-01
      21    -1     0     0   512   501  0.000000000E+00  0.000000000E+00  9.455085375E+01  9.455085375E+01  0.000000000E+00  0.00000E+00  9.000E+00
      21    -1     0     0   501   502  0.000000000E+00  0.000000000E+00 -8.134514756E+02  8.134514756E+02  0.000000000E+00  0.00000E+00  9.000E+00
      25     1     1     2     0     0  1.518771215E+02 -6.399060760E+01 -4.496366798E+02  4.949339368E+02  1.250000000E+02  0.00000E+00  9.000E+00
      25     1     1     2     0     0 -1.268998328E+02  1.264565292E+02 -2.680408873E+02  3.457827911E+02  1.250000000E+02  0.00000E+00  9.000E+00
      21     1     1     2   512   502 -2.497728868E+01 -6.246592163E+01 -1.223054815E+00  6.728560157E+01  1.465474469E-06  0.00000E+00  9.000E+00
#rwgt            1           1   4.0814872853216680E-002           7       80629           0
</event>
<event>
      5   9999  3.79277E-02  1.48617E+02 -1.00000E+00  1.16553E-01
      21    -1     0     0   502   501  0.000000000E+00  0.000000000E+00  2.664883503E+02  2.664883503E+02  0.000000000E+00  0.00000E+00  9.000E+00
      21    -1     0     0   511   502  0.000000000E+00  0.000000000E+00 -5.056078941E+02  5.056078941E+02  0.000000000E+00  0.00000E+00  9.000E+00
      25     1     1     2     0     0 -3.002509932E+01 -1.928665255E+02  1.178810023E+02  2.600383317E+02  1.250000000E+02  0.00000E+00  9.000E+00
      25     1     1     2     0     0 -1.083935427E+02  1.387621288E+02 -2.405300326E+02  3.232395166E+02  1.250000000E+02  0.00000E+00  9.000E+00
      21     1     1     2   511   501  1.384186420E+02  5.410439674E+01 -1.164705135E+02  1.888183962E+02  4.046097457E-06  0.00000E+00  9.000E+00
#rwgt            1           1   3.1141592938447784E-002           7       80811           0
</event>
<event>
      5   9999  3.79277E-02  5.09666E+01 -1.00000E+00  1.38603E-01
      21    -1     0     0   502   501  0.000000000E+00  0.000000000E+00  8.231186911E+01  8.231186911E+01  0.000000000E+00  0.00000E+00  9.000E+00
      21    -1     0     0   512   502  0.000000000E+00  0.000000000E+00 -6.700292614E+02  6.700292614E+02  0.000000000E+00  0.00000E+00  9.000E+00
      25     1     1     2     0     0  1.165977062E+02 -3.934560040E+01 -7.343094795E+01  1.901583695E+02  1.250000000E+02  0.00000E+00  9.000E+00
      25     1     1     2     0     0 -8.124655903E+01  7.605925343E+01 -3.175938198E+02  3.589942169E+02  1.250000000E+02  0.00000E+00  9.000E+00
      21     1     1     2   512   501 -3.535114716E+01 -3.671365303E+01 -1.966926245E+02  2.031885441E+02  3.814697266E-06  0.00000E+00  9.000E+00
#rwgt            1           1   4.0748576735749505E-002           7       80951           0
</event>
<event>
      5   9999  3.79277E-02  1.71949E+01 -1.00000E+00  1.71973E-01
      21    -1     0     0   502   511  0.000000000E+00  0.000000000E+00  1.242937820E+03  1.242937820E+03  0.000000000E+00  0.00000E+00  9.000E+00
      21    -1     0     0   501   502  0.000000000E+00  0.000000000E+00 -1.069893114E+02  1.069893114E+02  0.000000000E+00  0.00000E+00  9.000E+00
      25     1     1     2     0     0  7.641945850E+01 -1.153125913E+02  6.137987872E+02  6.414911367E+02  1.250000000E+02  0.00000E+00  9.000E+00
      25     1     1     2     0     0 -6.874324471E+01  1.306989257E+02  7.626926055E+00  1.936259613E+02  1.250000000E+02  0.00000E+00  9.000E+00
      21     1     1     2   501   511 -7.676213791E+00 -1.538633441E+01  5.145227951E+02  5.148100332E+02  7.629394531E-06  0.00000E+00  9.000E+00
#rwgt            1           1   2.5212464452711650E-002           7       81282           0
</event>
<event>
      5   9999  3.79277E-02  2.82197E+01 -1.00000E+00  1.54908E-01
      21    -1     0     0   502   501  0.000000000E+00  0.000000000E+00  1.766642792E+03  1.766642792E+03  0.000000000E+00  0.00000E+00  9.000E+00
       1    -1     0     0   501     0  0.000000000E+00  0.000000000E+00 -8.178430115E+01  8.178430115E+01  0.000000000E+00  0.00000E+00  9.000E+00
      25     1     1     2     0     0 -1.284355191E+02  2.590788961E+02  1.008103342E+03  1.056179391E+03  1.250000000E+02  0.00000E+00  9.000E+00
      25     1     1     2     0     0  1.456364664E+02 -2.367075050E+02  6.948416667E+02  7.587294413E+02  1.250000000E+02  0.00000E+00  9.000E+00
       1     1     1     2   502     0 -1.720094733E+01 -2.237139106E+01 -1.808651770E+01  3.351826144E+01  1.348699152E-06  0.00000E+00  9.000E+00
#rwgt            1           1   3.4395731132995488E-002           7       81515           0
</event>
<event>
      5   9999  3.79277E-02  1.41638E+02 -1.00000E+00  1.17390E-01
      21    -1     0     0   502   501  0.000000000E+00  0.000000000E+00  4.109008697E+02  4.109008697E+02  0.000000000E+00  0.00000E+00  9.000E+00
      21    -1     0     0   511   502  0.000000000E+00  0.000000000E+00 -1.011845377E+03  1.011845377E+03  0.000000000E+00  0.00000E+00  9.000E+00
      25     1     1     2     0     0  1.808625628E+02 -2.444936053E+02  2.168995309E+02  3.939020134E+02  1.250000000E+02  0.00000E+00  9.000E+00
      25     1     1     2     0     0 -3.182141142E+02  2.790739232E+02 -4.309328901E+02  6.168230158E+02  1.250000000E+02  0.00000E+00  9.000E+00
      21     1     1     2   511   501  1.373515514E+02 -3.458031788E+01 -3.869111483E+02  4.120212176E+02  5.394796609E-06  0.00000E+00  9.000E+00
#rwgt            1           1   5.8861607846449303E-002           7       81727           0
</event>
<event>
      5   9999 -3.79277E-02  2.07793E+01 -1.00000E+00  1.65011E-01
      21    -1     0     0   502   501  0.000000000E+00  0.000000000E+00  5.586340600E+01  5.586340600E+01  0.000000000E+00  0.00000E+00  9.000E+00
      21    -1     0     0   501   512  0.000000000E+00  0.000000000E+00 -1.196690569E+03  1.196690569E+03  0.000000000E+00  0.00000E+00  9.000E+00
      25     1     1     2     0     0  1.300361464E+02  1.502463804E+02 -3.178474109E+02  3.951396599E+02  1.250000000E+02  0.00000E+00  9.000E+00
      25     1     1     2     0     0 -1.126238281E+02 -1.389065963E+02 -7.750314065E+02  8.051570345E+02  1.250000000E+02  0.00000E+00  9.000E+00
      21     1     1     2   502   512 -1.741231834E+01 -1.133978413E+01 -4.794834600E+01  5.225728101E+01  6.743495762E-07  0.00000E+00  9.000E+00
#rwgt            1           1  -6.9132972556055799E-002           7       81859           0
</event>
<event>
      5   9999  3.79277E-02  2.96514E+01 -1.00000E+00  1.53393E-01
      21    -1     0     0   502   511  0.000000000E+00  0.000000000E+00  3.947694829E+02  3.947694829E+02  0.000000000E+00  0.00000E+00  9.000E+00
      21    -1     0     0   501   502  0.000000000E+00  0.000000000E+00 -3.263032432E+02  3.263032432E+02  0.000000000E+00  0.00000E+00  9.000E+00
      25     1     1     2     0     0 -2.162141352E+02 -2.333061224E+02 -5.417020025E+01  3.460342607E+02  1.250000000E+02  0.00000E+00  9.000E+00
      25     1     1     2     0     0  1.868570382E+02  2.291390584E+02  9.567277441E+01  3.349605060E+02  1.250000000E+02  0.00000E+00  9.000E+00
      21     1     1     2   501   511  2.935709697E+01  4.167064002E+00  2.696366557E+01  4.007795935E+01  5.840038640E-07  0.00000E+00  9.000E+00
#rwgt            1           1   4.1702345799426756E-002           7       82126           0
</event>
<event>
      5   9999  3.79277E-02  1.95371E+01 -1.00000E+00  1.67213E-01
       2    -1     0     0   502     0  0.000000000E+00  0.000000000E+00  3.113669731E+03  3.113669731E+03  0.000000000E+00  0.00000E+00  9.000E+00
      21    -1     0     0   501   502  0.000000000E+00  0.000000000E+00 -6.296958438E+01  6.296958438E+01  0.000000000E+00  0.00000E+00  9.000E+00
      25     1     1     2     0     0 -1.351070755E+02 -1.747945053E+02  3.037242541E+02  3.958288310E+02  1.250000000E+02  0.00000E+00  9.000E+00
      25     1     1     2     0     0  1.331420518E+02  1.553564712E+02  8.351829500E+02  8.689177171E+02  1.250000000E+02  0.00000E+00  9.000E+00
       2     1     1     2   501     0  1.965023768E+00  1.943803412E+01  1.911792942E+03  1.911892767E+03  0.000000000E+00  0.00000E+00  9.000E+00
#rwgt            1           1   3.5038089666054012E-002           7       82494           0
</event>
<event>
      5   9999  3.79277E-02  1.41386E+02 -1.00000E+00  1.17421E-01
      21    -1     0     0   502   501  0.000000000E+00  0.000000000E+00  9.361756032E+02  9.361756032E+02  0.000000000E+00  0.00000E+00  9.000E+00
      -4    -1     0     0     0   502  0.000000000E+00  0.000000000E+00 -3.400419537E+02  3.400419537E+02  0.000000000E+00  0.00000E+00  9.000E+00
      25     1     1     2     0     0 -4.454526874E+00  9.871615680E+01  8.888027205E+01  1.824538988E+02  1.250000000E+02  0.00000E+00  9.000E+00
      25     1     1     2     0     0 -7.085842241E+01 -2.183741714E+02  7.602525045E+02  8.039384711E+02  1.250000000E+02  0.00000E+00  9.000E+00
      -4     1     1     2     0   501  7.531294928E+01  1.196580147E+02 -2.529991270E+02  2.898251871E+02  6.031565972E-06  0.00000E+00  9.000E+00
#rwgt            1           1   4.2973005636477844E-002           7       82681           0
</event>
<event>
      5   9999  3.79277E-02  3.12344E+01 -1.00000E+00  1.51833E-01
      21    -1     0     0   502   501  0.000000000E+00  0.000000000E+00  2.360249385E+02  2.360249385E+02  0.000000000E+00  0.00000E+00  9.000E+00
      21    -1     0     0   501   511  0.000000000E+00  0.000000000E+00 -3.231891382E+02  3.231891382E+02  0.000000000E+00  0.00000E+00  9.000E+00
      25     1     1     2     0     0  2.252792052E+02 -5.336116294E+01 -7.992836520E+01  2.749757763E+02  1.250000000E+02  0.00000E+00  9.000E+00
      25     1     1     2     0     0 -2.016499514E+02  3.293461125E+01  2.317600938E+01  2.406439671E+02  1.250000000E+02  0.00000E+00  9.000E+00
      21     1     1     2   502   511 -2.362925380E+01  2.042655169E+01 -3.041184381E+01  4.359433327E+01  3.371747881E-07  0.00000E+00  9.000E+00
#rwgt            1           1   3.0610990746542069E-002           7       82810           0
</event>
<event>
      5   9999  3.79277E-02  3.84177E+01 -1.00000E+00  1.45936E-01
       2    -1     0     0   502     0  0.000000000E+00  0.000000000E+00  9.774546374E+02  9.774546374E+02  0.000000000E+00  0.00000E+00  9.000E+00
      21    -1     0     0   501   502  0.000000000E+00  0.000000000E+00 -6.997027518E+01  6.997027518E+01  0.000000000E+00  0.00000E+00  9.000E+00
      25     1     1     2     0     0 -8.396075194E+00 -6.810147050E+01  7.833428212E+02  7.962155989E+02  1.250000000E+02  0.00000E+00  9.000E+00
      25     1     1     2     0     0 -5.016182607E+00  1.041019339E+02  5.442520695E+01  1.716085018E+02  1.250000000E+02  0.00000E+00  9.000E+00
       2     1     1     2   501     0  1.341225780E+01 -3.600046340E+01  6.971633404E+01  7.960081191E+01  9.536743164E-07  0.00000E+00  9.000E+00
#rwgt            1           1   4.0641281174660628E-002           7       82937           0
</event>
<event>
      5   9999  3.79277E-02  3.49796E+01 -1.00000E+00  1.48547E-01
      21    -1     0     0   502   501  0.000000000E+00  0.000000000E+00  3.296665094E+02  3.296665094E+02  0.000000000E+00  0.00000E+00  9.000E+00
      21    -1     0     0   511   502  0.000000000E+00  0.000000000E+00 -3.168420651E+02  3.168420651E+02  0.000000000E+00  0.00000E+00  9.000E+00
      25     1     1     2     0     0 -1.567588435E+02  1.193360073E+02  1.404959218E+02  2.723573419E+02  1.250000000E+02  0.00000E+00  9.000E+00
      25     1     1     2     0     0  1.635726044E+02 -8.502649113E+01  1.883282905E+01  2.235289166E+02  1.250000000E+02  0.00000E+00  9.000E+00
      21     1     1     2   511   501 -6.813760930E+00 -3.430951612E+01 -1.465043066E+02  1.506223160E+02  1.907348633E-06  0.00000E+00  9.000E+00
#rwgt            1           1   2.3516030984186635E-002           7       83148           0
</event>
<event>
      5   9999  3.79277E-02  2.32164E+01 -1.00000E+00  1.61197E-01
      21    -1     0     0   502   501  0.000000000E+00  0.000000000E+00  1.259181818E+02  1.259181818E+02  0.000000000E+00  0.00000E+00  9.000E+00
      21    -1     0     0   501   512  0.000000000E+00  0.000000000E+00 -2.790314017E+02  2.790314017E+02  0.000000000E+00  0.00000E+00  9.000E+00
      25     1     1     2     0     0 -5.336142712E+01  2.849454133E+01 -1.468229041E+02  2.020924193E+02  1.250000000E+02  0.00000E+00  9.000E+00
      25     1     1     2     0     0  3.716983216E+01 -1.185618424E+01  5.139746447E+01  1.406729003E+02  1.250000000E+02  0.00000E+00  9.000E+00
      21     1     1     2   502   512  1.619159496E+01 -1.663835709E+01 -5.768778029E+01  6.218426383E+01  9.536743164E-07  0.00000E+00  9.000E+00
#rwgt            1           1   2.8752182887005741E-002           7       83530           0
</event>
<event>
      5   9999  3.79277E-02  1.58558E+02 -1.00000E+00  1.15447E-01
      21    -1     0     0   511   501  0.000000000E+00  0.000000000E+00  8.447235687E+02  8.447235687E+02  0.000000000E+00  0.00000E+00  9.000E+00
      21    -1     0     0   501   502  0.000000000E+00  0.000000000E+00 -2.208347796E+02  2.208347796E+02  0.000000000E+00  0.00000E+00  9.000E+00
      25     1     1     2     0     0  3.549093984E+01 -4.863931001E+01 -1.577631725E+02  2.100942833E+02  1.250000000E+02  0.00000E+00  9.000E+00
      25     1     1     2     0     0  6.832333495E+01 -7.120738303E+01  2.182702347E+02  2.701952347E+02  1.250000000E+02  0.00000E+00  9.000E+00
      21     1     1     2   511   502 -1.038142748E+02  1.198466930E+02  5.633817269E+02  5.852688303E+02  0.000000000E+00  0.00000E+00  9.000E+00
#rwgt            1           1   4.3833040837941879E-002           7       83696           0
</event>
<event>
      5   9999  3.79277E-02  3.54913E+01 -1.00000E+00  1.48137E-01
       2    -1     0     0   502     0  0.000000000E+00  0.000000000E+00  9.960977531E+02  9.960977531E+02  0.000000000E+00  0.00000E+00  9.000E+00
      21    -1     0     0   501   502  0.000000000E+00  0.000000000E+00 -1.211342759E+02  1.211342759E+02  0.000000000E+00  0.00000E+00  9.000E+00
      25     1     1     2     0     0  2.396305207E+02  2.642271535E+01  1.195906450E+02  2.967286112E+02  1.250000000E+02  0.00000E+00  9.000E+00
      25     1     1     2     0     0 -2.352870659E+02 -6.164727539E+01  5.755959122E+02  6.372566548E+02  1.250000000E+02  0.00000E+00  9.000E+00
       2     1     1     2   501     0 -4.343454750E+00  3.522456005E+01  1.797769200E+02  1.832467631E+02  3.814697266E-06  0.00000E+00  9.000E+00
#rwgt            1           1  0.11604915248723487                7       83783           0
</event>
<event>
      5   9999  3.79277E-02  1.24025E+01 -1.00000E+00  1.85534E-01
      21    -1     0     0   511   501  0.000000000E+00  0.000000000E+00  1.277776940E+02  1.277776940E+02  0.000000000E+00  0.00000E+00  9.000E+00
      21    -1     0     0   501   502  0.000000000E+00  0.000000000E+00 -1.919583438E+02  1.919583438E+02  0.000000000E+00  0.00000E+00  9.000E+00
      25     1     1     2     0     0  5.536186764E+01 -5.695465816E+01  4.838171642E+00  1.481795444E+02  1.250000000E+02  0.00000E+00  9.000E+00
      25     1     1     2     0     0 -4.571736406E+01  4.915686994E+01 -7.153937146E+01  1.589004623E+02  1.250000000E+02  0.00000E+00  9.000E+00
      21     1     1     2   511   502 -9.644503586E+00  7.797788220E+00  2.520550091E+00  1.265603110E+01  1.604904177E-07  0.00000E+00  9.000E+00
#rwgt            1           1  0.10511120147728446                7       83970           0
</event>
<event>
      5   9999  3.79277E-02  1.11940E+02 -1.00000E+00  1.21664E-01
      -3    -1     0     0     0   501  0.000000000E+00  0.000000000E+00  1.239222635E+03  1.239222635E+03  0.000000000E+00  0.00000E+00  9.000E+00
      21    -1     0     0   501   502  0.000000000E+00  0.000000000E+00 -1.000887411E+02  1.000887411E+02  0.000000000E+00  0.00000E+00  9.000E+00
      25     1     1     2     0     0 -2.131408803E+02  1.562319816E+01  2.655460024E+02  3.630603235E+02  1.250000000E+02  0.00000E+00  9.000E+00
      25     1     1     2     0     0  2.567522689E+02 -1.187186685E+02  5.162808238E+02  6.018195235E+02  1.250000000E+02  0.00000E+00  9.000E+00
      -3     1     1     2     0   502 -4.361138867E+01  1.030954703E+02  3.573070674E+02  3.744315286E+02  6.607249480E-06  0.00000E+00  9.000E+00
#rwgt            1           1   3.7665845091750375E-002           7       84085           0
</event>
<event>
      5   9999  3.79277E-02  1.47782E+01 -1.00000E+00  1.77995E-01
      21    -1     0     0   502   511  0.000000000E+00  0.000000000E+00  1.950962747E+03  1.950962747E+03  0.000000000E+00  0.00000E+00  9.000E+00
      21    -1     0     0   501   502  0.000000000E+00  0.000000000E+00 -3.573042807E+01  3.573042807E+01  0.000000000E+00  0.00000E+00  9.000E+00
      25     1     1     2     0     0  2.198550574E+01  9.921802408E+01  2.211599046E+02  2.736133808E+02  1.250000000E+02  0.00000E+00  9.000E+00
      25     1     1     2     0     0 -2.662551163E+01 -1.132488648E+02  7.623636813E+02  7.812538677E+02  1.250000000E+02  0.00000E+00  9.000E+00
      21     1     1     2   501   511  4.640005884E+00  1.403084069E+01  9.317087328E+02  9.318259263E+02  1.525878906E-05  0.00000E+00  9.000E+00
#rwgt            1           1   4.3631103998828587E-002           7       84265           0
</event>
<event>
      5   9999  3.79277E-02  5.67146E+01 -1.00000E+00  1.36023E-01
       2    -1     0     0   502     0  0.000000000E+00  0.000000000E+00  1.612884116E+02  1.612884116E+02  0.000000000E+00  0.00000E+00  9.000E+00
      21    -1     0     0   501   502  0.000000000E+00  0.000000000E+00 -4.452309176E+02  4.452309176E+02  0.000000000E+00  0.00000E+00  9.000E+00
      25     1     1     2     0     0  1.277193005E+02 -1.668683873E+01 -2.925268451E+02  3.432020184E+02  1.250000000E+02  0.00000E+00  9.000E+00
      25     1     1     2     0     0 -8.743862091E+01  5.661193550E+01 -6.080167038E+01  1.737016603E+02  1.250000000E+02  0.00000E+00  9.000E+00
       2     1     1     2   501     0 -4.028067957E+01 -3.992509677E+01  6.938600958E+01  8.961565055E+01  1.348699152E-06  0.00000E+00  9.000E+00
#rwgt            1           1   4.3442942440357069E-002           7       84556           0
</event>
<event>
      5   9999  3.79277E-02  2.88379E+01 -1.00000E+00  1.54241E-01
      21    -1     0     0   502   501  0.000000000E+00  0.000000000E+00  1.408132507E+02  1.408132507E+02  0.000000000E+00  0.00000E+00  9.000E+00
      21    -1     0     0   501   511  0.000000000E+00  0.000000000E+00 -3.055044293E+02  3.055044293E+02  0.000000000E+00  0.00000E+00  9.000E+00
      25     1     1     2     0     0  1.345799592E+02  4.520976730E+01 -1.299481825E+02  2.294933956E+02  1.250000000E+02  0.00000E+00  9.000E+00
      25     1     1     2     0     0 -1.084163833E+02 -5.733800123E+01 -4.702695886E+00  1.751824018E+02  1.250000000E+02  0.00000E+00  9.000E+00
      21     1     1     2   502   511 -2.616357587E+01  1.212823393E+01 -3.004030014E+01  4.164188268E+01  6.743495762E-07  0.00000E+00  9.000E+00
#rwgt            1           1   4.5103712861148310E-002           7       84636           0
</event>
<event>
      5   9999  3.79277E-02  1.64097E+02 -1.00000E+00  1.14868E-01
      21    -1     0     0   502   501  0.000000000E+00  0.000000000E+00  3.374937678E+02  3.374937678E+02  0.000000000E+00  0.00000E+00  9.000E+00
       2    -1     0     0   501     0  0.000000000E+00  0.000000000E+00 -6.025841885E+02  6.025841885E+02  0.000000000E+00  0.00000E+00  9.000E+00
      25     1     1     2     0     0 -1.287651068E+02  3.783664898E+01  1.944309555E+02  2.672834847E+02  1.250000000E+02  0.00000E+00  9.000E+00
      25     1     1     2     0     0  2.581729772E+02  6.306624501E+01 -1.682327760E+02  3.384640370E+02  1.250000000E+02  0.00000E+00  9.000E+00
       2     1     1     2   502     0 -1.294078704E+02 -1.009028940E+02 -2.912886002E+02  3.343304346E+02  6.607249480E-06  0.00000E+00  9.000E+00
#rwgt            1           1   4.4142418387374899E-002           7       84791           0
</event>
<event>
      5   9999  3.79277E-02  6.14555E+01 -1.00000E+00  1.34149E-01
      21    -1     0     0   511   501  0.000000000E+00  0.000000000E+00  5.718884006E+02  5.718884006E+02  0.000000000E+00  0.00000E+00  9.000E+00
      21    -1     0     0   501   502  0.000000000E+00  0.000000000E+00 -1.179356222E+02  1.179356222E+02  0.000000000E+00  0.00000E+00  9.000E+00
      25     1     1     2     0     0 -9.740254170E+01  4.963539037E+01 -9.263981665E+00  1.663182145E+02  1.250000000E+02  0.00000E+00  9.000E+00
      25     1     1     2     0     0  7.132476214E+01 -1.052836534E+02  2.985959935E+02  3.477879192E+02  1.250000000E+02  0.00000E+00  9.000E+00
      21     1     1     2   511   502  2.607777956E+01  5.564826307E+01  1.646207666E+02  1.757178891E+02  1.907348633E-06  0.00000E+00  9.000E+00
#rwgt            1           1   3.1623894555125237E-002           7       84923           0
</event>
<event>
      5   9999  3.79277E-02  3.27761E+01 -1.00000E+00  1.50417E-01
      21    -1     0     0   502   501  0.000000000E+00  0.000000000E+00  9.802775973E+01  9.802775973E+01  0.000000000E+00  0.00000E+00  9.000E+00
      21    -1     0     0   501   512  0.000000000E+00  0.000000000E+00 -8.607724093E+02  8.607724093E+02  0.000000000E+00  0.00000E+00  9.000E+00
      25     1     1     2     0     0 -4.530184906E+01  1.989744450E+02 -5.345346683E+02  5.856580904E+02  1.250000000E+02  0.00000E+00  9.000E+00
      25     1     1     2     0     0  2.872515732E+01 -1.706992389E+02 -9.104488241E+01  2.321153494E+02  1.250000000E+02  0.00000E+00  9.000E+00
      21     1     1     2   502   512  1.657669174E+01 -2.827520618E+01 -1.371650988E+02  1.410267291E+02  1.907348633E-06  0.00000E+00  9.000E+00
#rwgt            1           1   3.3621225792347303E-002           7       85053           0
</event>
<event>
      5   9999  3.79277E-02  7.91741E+01 -1.00000E+00  1.28568E-01
      21    -1     0     0   502   501  0.000000000E+00  0.000000000E+00  3.620532616E+02  3.620532616E+02  0.000000000E+00  0.00000E+00  9.000E+00
      21    -1     0     0   501   511  0.000000000E+00  0.000000000E+00 -2.095468694E+02  2.095468694E+02  0.000000000E+00  0.00000E+00  9.000E+00
      25     1     1     2     0     0  2.790433055E+01 -3.107898946E+01  2.589419974E+02  2.905520836E+02  1.250000000E+02  0.00000E+00  9.000E+00
      25     1     1     2     0     0  7.639739569E+00  1.018261762E+02 -1.809062789E+01  1.624167682E+02  1.250000000E+02  0.00000E+00  9.000E+00
      21     1     1     2   502   511 -3.554407011E+01 -7.074718678E+01 -8.834497739E+01  1.186312791E+02  0.000000000E+00  0.00000E+00  9.000E+00
#rwgt            1           1   4.3659706425092433E-002           7       85539           0
</event>
<event>
      5   9999  3.79277E-02  2.54858E+01 -1.00000E+00  1.58127E-01
      21    -1     0     0   502   501  0.000000000E+00  0.000000000E+00  1.659359781E+02  1.659359781E+02  0.000000000E+00  0.00000E+00  9.000E+00
      21    -1     0     0   501   512  0.000000000E+00  0.000000000E+00 -3.310299250E+02  3.310299250E+02  0.000000000E+00  0.00000E+00  9.000E+00
      25     1     1     2     0     0  1.047225214E+02 -7.782236722E+01 -1.106182636E+02  2.118596884E+02  1.250000000E+02  0.00000E+00  9.000E+00
      25     1     1     2     0     0 -1.259569120E+02  9.191582950E+01  2.522279981E+01  2.014320059E+02  1.250000000E+02  0.00000E+00  9.000E+00
      21     1     1     2   502   512  2.123439058E+01 -1.409346228E+01 -7.969848303E+01  8.367420881E+01  0.000000000E+00  0.00000E+00  9.000E+00
#rwgt            1           1   2.9640165982442186E-002           7       85584           0
</event>
<event>
      5   9999  3.79277E-02  6.22385E+01 -1.00000E+00  1.33859E-01
      21    -1     0     0   511   501  0.000000000E+00  0.000000000E+00  1.698680390E+02  1.698680390E+02  0.000000000E+00  0.00000E+00  9.000E+00
      21    -1     0     0   501   502  0.000000000E+00  0.000000000E+00 -5.759549039E+02  5.759549039E+02  0.000000000E+00  0.00000E+00  9.000E+00
      25     1     1     2     0     0  1.566021721E+02  4.811930446E+01 -4.496215488E+02  4.945950312E+02  1.250000000E+02  0.00000E+00  9.000E+00
      25     1     1     2     0     0 -1.184693319E+02  1.069249737E+00  6.688150457E+01  1.847545982E+02  1.250000000E+02  0.00000E+00  9.000E+00
      21     1     1     2   511   502 -3.813284024E+01 -4.918855419E+01 -2.334682069E+01  6.647331347E+01  0.000000000E+00  0.00000E+00  9.000E+00
#rwgt            1           1   5.3408545655088881E-002           7       85712           0
</event>
<event>
      5   9999  3.79277E-02  4.66749E+01 -1.00000E+00  1.40802E-01
      21    -1     0     0   502   512  0.000000000E+00  0.000000000E+00  3.388339847E+02  3.388339847E+02  0.000000000E+00  0.00000E+00  9.000E+00
      21    -1     0     0   501   502  0.000000000E+00  0.000000000E+00 -1.652175725E+02  1.652175725E+02  0.000000000E+00  0.00000E+00  9.000E+00
      25     1     1     2     0     0  9.743616961E+01 -5.683682931E+01 -1.817219256E+01  1.693501134E+02  1.250000000E+02  0.00000E+00  9.000E+00
      25     1     1     2     0     0 -1.077271928E+02  1.023630621E+02  7.366269819E+01  2.076885593E+02  1.250000000E+02  0.00000E+00  9.000E+00
      21     1     1     2   501   512  1.029102317E+01 -4.552623276E+01  1.181259066E+02  1.270128845E+02  1.348699152E-06  0.00000E+00  9.000E+00
#rwgt            1           1   4.6810727531131677E-002           7       85789           0
</event>
<event>
      5   9999  3.79277E-02  1.36008E+01 -1.00000E+00  1.81486E-01
      21    -1     0     0   502   501  0.000000000E+00  0.000000000E+00  5.959778151E+02  5.959778151E+02  0.000000000E+00  0.00000E+00  9.000E+00
      21    -1     0     0   501   511  0.000000000E+00  0.000000000E+00 -1.540993041E+02  1.540993041E+02  0.000000000E+00  0.00000E+00  9.000E+00
      25     1     1     2     0     0 -1.875024056E+01 -1.478375794E+02  1.346834129E+02  2.365843256E+02  1.250000000E+02  0.00000E+00  9.000E+00
      25     1     1     2     0     0  1.340164047E+01  1.603425124E+02  3.844206084E+02  4.350787623E+02  1.250000000E+02  0.00000E+00  9.000E+00
      21     1     1     2   502   511  5.348600092E+00 -1.250493301E+01 -7.722551029E+01  7.841403135E+01  2.336015456E-06  0.00000E+00  9.000E+00
#rwgt            1           1   3.4331032184254588E-002           7       85944           0
</event>
<event>
      5   9999 -3.79277E-02  3.99750E+01 -1.00000E+00  1.44857E-01
      21    -1     0     0   502   512  0.000000000E+00  0.000000000E+00  8.607815517E+01  8.607815517E+01  0.000000000E+00  0.00000E+00  9.000E+00
      21    -1     0     0   501   502  0.000000000E+00  0.000000000E+00 -5.801761600E+02  5.801761600E+02  0.000000000E+00  0.00000E+00  9.000E+00
      25     1     1     2     0     0 -4.220704830E+01  8.749364712E+01 -4.187931065E+02  4.477155786E+02  1.250000000E+02  0.00000E+00  9.000E+00
      25     1     1     2     0     0  7.761348821E+01 -6.893603480E+01 -4.567999402E+01  1.687829740E+02  1.250000000E+02  0.00000E+00  9.000E+00
      21     1     1     2   501   512 -3.540643991E+01 -1.855761232E+01 -2.962490426E+01  4.975576262E+01  6.743495762E-07  0.00000E+00  9.000E+00
#rwgt            1           1  -1.2343599677520916E-002           7       86114           0
</event>
<event>
      5   9999  3.79277E-02  6.91485E+01 -1.00000E+00  1.31490E-01
      21    -1     0     0   511   501  0.000000000E+00  0.000000000E+00  1.447533797E+03  1.447533797E+03  0.000000000E+00  0.00000E+00  9.000E+00
      21    -1     0     0   501   502  0.000000000E+00  0.000000000E+00 -8.745729799E+01  8.745729799E+01  0.000000000E+00  0.00000E+00  9.000E+00
      25     1     1     2     0     0 -2.032023203E+02 -6.560483034E+01  3.087629800E+02  3.956700071E+02  1.250000000E+02  0.00000E+00  9.000E+00
      25     1     1     2     0     0  2.060606546E+02 -3.484580617E+00  3.000140201E+02  3.848461354E+02  1.250000000E+02  0.00000E+00  9.000E+00
      21     1     1     2   511   502 -2.858334247E+00  6.908941095E+01  7.512994991E+02  7.544749526E+02  1.525878906E-05  0.00000E+00  9.000E+00
#rwgt            1           1   4.0659764486151322E-002           7       86236           0
</event>
<event>
      5   9999  3.79277E-02  2.58312E+01 -1.00000E+00  1.57694E-01
      21    -1     0     0   512   501  0.000000000E+00  0.000000000E+00  9.151183067E+02  9.151183067E+02  0.000000000E+00  0.00000E+00  9.000E+00
      21    -1     0     0   501   502  0.000000000E+00  0.000000000E+00 -1.535533091E+02  1.535533091E+02  0.000000000E+00  0.00000E+00  9.000E+00
      25     1     1     2     0     0  2.335261392E+02 -2.008472105E+02  5.906228077E+02  6.777421048E+02  1.250000000E+02  0.00000E+00  9.000E+00
      25     1     1     2     0     0 -2.334024834E+02  1.750163108E+02  1.309862860E+02  3.433508925E+02  1.250000000E+02  0.00000E+00  9.000E+00
      21     1     1     2   512   502 -1.236558307E-01  2.583089974E+01  3.995590395E+01  4.757861844E+01  4.768371582E-07  0.00000E+00  9.000E+00
#rwgt            1           1   6.1539920519526399E-002           7       86368           0
</event>
<event>
      5   9999  3.79277E-02  3.18351E+01 -1.00000E+00  1.51270E-01
      21    -1     0     0   502   501  0.000000000E+00  0.000000000E+00  4.523521150E+02  4.523521150E+02  0.000000000E+00  0.00000E+00  9.000E+00
      21    -1     0     0   511   502  0.000000000E+00  0.000000000E+00 -2.372404037E+02  2.372404037E+02  0.000000000E+00  0.00000E+00  9.000E+00
      25     1     1     2     0     0  6.561457284E+01 -1.839633954E+02  3.013658897E+02  3.802554438E+02  1.250000000E+02  0.00000E+00  9.000E+00
      25     1     1     2     0     0 -9.712960501E+01  1.884662677E+02 -3.444122255E+01  2.485254354E+02  1.250000000E+02  0.00000E+00  9.000E+00
      21     1     1     2   511   501  3.151503217E+01 -4.502872240E+00 -5.181295591E+01  6.081163961E+01  6.743495762E-07  0.00000E+00  9.000E+00
#rwgt            1           1   3.0753985839798097E-002           7       86701           0
</event>
<event>
      5   9999  3.79277E-02  4.33051E+01 -1.00000E+00  1.42734E-01
      21    -1     0     0   502   501  0.000000000E+00  0.000000000E+00  2.109253652E+02  2.109253652E+02  0.000000000E+00  0.00000E+00  9.000E+00
      21    -1     0     0   512   502  0.000000000E+00  0.000000000E+00 -2.864787424E+02  2.864787424E+02  0.000000000E+00  0.00000E+00  9.000E+00
      25     1     1     2     0     0 -1.238869680E+02  4.904660699E+00  5.092954915E+01  1.832780825E+02  1.250000000E+02  0.00000E+00  9.000E+00
      25     1     1     2     0     0  1.671747713E+02 -3.681514150E+00 -3.335279236E+01  2.114198819E+02  1.250000000E+02  0.00000E+00  9.000E+00
      21     1     1     2   512   501 -4.328780329E+01 -1.223146549E+00 -9.313013401E+01  1.027061433E+02  0.000000000E+00  0.00000E+00  9.000E+00
#rwgt            1           1   3.8813201176972449E-002           7       86941           0
</event>
<event>
      5   9999  3.79277E-02  1.58130E+02 -1.00000E+00  1.15492E-01
      21    -1     0     0   502   511  0.000000000E+00  0.000000000E+00  1.639071548E+02  1.639071548E+02  0.000000000E+00  0.00000E+00  9.000E+00
      21    -1     0     0   501   502  0.000000000E+00  0.000000000E+00 -5.253601028E+02  5.253601028E+02  0.000000000E+00  0.00000E+00  9.000E+00
      25     1     1     2     0     0  2.739531174E+01  1.558123155E+02 -3.883758700E+01  2.053322647E+02  1.250000000E+02  0.00000E+00  9.000E+00
      25     1     1     2     0     0 -1.368293882E+02 -4.166678537E+01 -2.382506810E+02  3.047077116E+02  1.250000000E+02  0.00000E+00  9.000E+00
      21     1     1     2   501   511  1.094340765E+02 -1.141455301E+02 -8.436467998E+01  1.792272813E+02  2.861022949E-06  0.00000E+00  9.000E+00
#rwgt            1           1   3.4346586649336625E-002           7       87056           0
</event>
<event>
      5   9999  3.79277E-02  4.80577E+01 -1.00000E+00  1.40064E-01
      21    -1     0     0   512   501  0.000000000E+00  0.000000000E+00  4.365839953E+02  4.365839953E+02  0.000000000E+00  0.00000E+00  9.000E+00
      21    -1     0     0   501   502  0.000000000E+00  0.000000000E+00 -1.095292598E+02  1.095292598E+02  0.000000000E+00  0.00000E+00  9.000E+00
      25     1     1     2     0     0 -2.035761625E+01  2.700037138E+01 -3.856281160E+01  1.351130750E+02  1.250000000E+02  0.00000E+00  9.000E+00
      25     1     1     2     0     0  6.045897109E+01 -5.158802965E-01  2.539980803E+02  2.894746589E+02  1.250000000E+02  0.00000E+00  9.000E+00
      21     1     1     2   512   502 -4.010135484E+01 -2.648449109E+01  1.116194669E+02  1.215255212E+02  0.000000000E+00  0.00000E+00  9.000E+00
#rwgt            1           1   4.6713958169714062E-002           7       87102           0
</event>
<event>
      5   9999  3.79277E-02  1.14530E+01 -1.00000E+00  1.89184E-01
      21    -1     0     0   502   501  0.000000000E+00  0.000000000E+00  2.942075015E+03  2.942075015E+03  0.000000000E+00  0.00000E+00  9.000E+00
      21    -1     0     0   511   502  0.000000000E+00  0.000000000E+00 -2.002746477E+01  2.002746477E+01  0.000000000E+00  0.00000E+00  9.000E+00
      25     1     1     2     0     0 -1.609818577E+02  1.179331830E+00  1.943545158E+03  1.954202991E+03  1.250000000E+02  0.00000E+00  9.000E+00
      25     1     1     2     0     0  1.499587211E+02  1.929079471E+00  9.770380915E+02  9.963532364E+02  1.250000000E+02  0.00000E+00  9.000E+00
      21     1     1     2   511   501  1.102313663E+01 -3.108411301E+00  1.464300584E+00  1.154625213E+01  4.400260168E-07  0.00000E+00  9.000E+00
#rwgt            1           1   3.1376030218784282E-002           7       87178           0
</event>
<event>
      5   9999  3.79277E-02  2.05059E+01 -1.00000E+00  1.65479E-01
      21    -1     0     0   502   501  0.000000000E+00  0.000000000E+00  1.832026303E+02  1.832026303E+02  0.000000000E+00  0.00000E+00  9.000E+00
      21    -1     0     0   501   512  0.000000000E+00  0.000000000E+00 -4.247318213E+02  4.247318213E+02  0.000000000E+00  0.00000E+00  9.000E+00
      25     1     1     2     0     0 -7.500757212E+01  4.806268434E+01 -3.373748460E+02  3.706520528E+02  1.250000000E+02  0.00000E+00  9.000E+00
      25     1     1     2     0     0  6.070037289E+01 -3.337272128E+01  1.327565889E+02  1.950579034E+02  1.250000000E+02  0.00000E+00  9.000E+00
      21     1     1     2   502   512  1.430719922E+01 -1.468996306E+01 -3.691093392E+01  4.222449535E+01  0.000000000E+00  0.00000E+00  9.000E+00
#rwgt            1           1   5.0715742626548856E-002           7       87497           0
</event>
<event>
      5   9999  3.79277E-02  3.61702E+01 -1.00000E+00  1.47604E-01
      21    -1     0     0   502   511  0.000000000E+00  0.000000000E+00  6.665353617E+02  6.665353617E+02  0.000000000E+00  0.00000E+00  9.000E+00
      21    -1     0     0   501   502  0.000000000E+00  0.000000000E+00 -4.845696355E+02  4.845696355E+02  0.000000000E+00  0.00000E+00  9.000E+00
      25     1     1     2     0     0 -4.999810575E+01  3.008785011E+02 -2.171810933E+02  3.947408141E+02  1.250000000E+02  0.00000E+00  9.000E+00
      25     1     1     2     0     0  2.112965925E+01 -2.790864356E+02 -4.581470396E+01  3.099349740E+02  1.250000000E+02  0.00000E+00  9.000E+00
      21     1     1     2   501   511  2.886844650E+01 -2.179206551E+01  4.449615235E+02  4.464292091E+02  7.629394531E-06  0.00000E+00  9.000E+00
#rwgt            1           1   3.0241200273487021E-002           7       87720           0
</event>
<event>
      5   9999  3.79277E-02  4.82105E+01 -1.00000E+00  1.39985E-01
      -4    -1     0     0     0   501  0.000000000E+00  0.000000000E+00  1.179841021E+03  1.179841021E+03  0.000000000E+00  0.00000E+00  9.000E+00
      21    -1     0     0   501   502  0.000000000E+00  0.000000000E+00 -1.972949857E+02  1.972949857E+02  0.000000000E+00  0.00000E+00  9.000E+00
      25     1     1     2     0     0  6.842718254E+01  5.252243894E+01 -1.249197889E+02  1.966490264E+02  1.250000000E+02  0.00000E+00  9.000E+00
      25     1     1     2     0     0 -1.161698942E+02 -5.922229469E+01  1.914837562E+02  2.632370669E+02  1.250000000E+02  0.00000E+00  9.000E+00
      -4     1     1     2     0   502  4.774271162E+01  6.699855744E+00  9.159820680E+02  9.172499133E+02  1.868812365E-05  0.00000E+00  9.000E+00
#rwgt            1           1   3.6280927933446928E-002           7       88160           0
</event>
<event>
      5   9999  3.79277E-02  1.67004E+01 -1.00000E+00  1.73100E-01
      21    -1     0     0   502   511  0.000000000E+00  0.000000000E+00  9.106744423E+02  9.106744423E+02  0.000000000E+00  0.00000E+00  9.000E+00
      21    -1     0     0   501   502  0.000000000E+00  0.000000000E+00 -4.940896146E+01  4.940896146E+01  0.000000000E+00  0.00000E+00  9.000E+00
      25     1     1     2     0     0  9.999169557E+01  9.884381477E+01  5.859949950E+02  6.154539569E+02  1.250000000E+02  0.00000E+00  9.000E+00
      25     1     1     2     0     0 -9.050174313E+01 -8.510180102E+01  1.958303142E+02  2.634528307E+02  1.250000000E+02  0.00000E+00  9.000E+00
      21     1     1     2   501   511 -9.489952441E+00 -1.374201375E+01  7.944017167E+01  8.117661618E+01  0.000000000E+00  0.00000E+00  9.000E+00
#rwgt            1           1   3.9568791752364406E-002           7       88321           0
</event>
<event>
      5   9999  3.79277E-02  1.42824E+01 -1.00000E+00  1.79413E-01
      21    -1     0     0   512   501  0.000000000E+00  0.000000000E+00  5.399298175E+02  5.399298175E+02  0.000000000E+00  0.00000E+00  9.000E+00
      21    -1     0     0   501   502  0.000000000E+00  0.000000000E+00 -2.205414091E+02  2.205414091E+02  0.000000000E+00  0.00000E+00  9.000E+00
      25     1     1     2     0     0 -1.639620805E+02  1.496056260E+02 -2.558962875E+01  2.560180390E+02  1.250000000E+02  0.00000E+00  9.000E+00
      25     1     1     2     0     0  1.525036034E+02 -1.581315438E+02  1.213710950E+02  2.803905792E+02  1.250000000E+02  0.00000E+00  9.000E+00
      21     1     1     2   512   502  1.145847717E+01  8.525917860E+00  2.236069420E+02  2.240626084E+02  0.000000000E+00  0.00000E+00  9.000E+00
#rwgt            1           1  0.43228954940829412                7       88530           0
</event>
<event>
      5   9999  3.79277E-02  2.87052E+01 -1.00000E+00  1.54383E-01
      21    -1     0     0   502   501  0.000000000E+00  0.000000000E+00  1.123563981E+03  1.123563981E+03  0.000000000E+00  0.00000E+00  9.000E+00
      21    -1     0     0   511   502  0.000000000E+00  0.000000000E+00 -6.994202364E+02  6.994202364E+02  0.000000000E+00  0.00000E+00  9.000E+00
      25     1     1     2     0     0 -9.438265485E+01 -6.585290002E+01  1.058302603E+03  1.071855443E+03  1.250000000E+02  0.00000E+00  9.000E+00
      25     1     1     2     0     0  8.787848626E+01  3.789429483E+01 -4.844716560E+01  1.647140971E+02  1.250000000E+02  0.00000E+00  9.000E+00
      21     1     1     2   511   501  6.504168589E+00  2.795860519E+01 -5.857116926E+02  5.864146781E+02  0.000000000E+00  0.00000E+00  9.000E+00
#rwgt            1           1   5.1192681532345442E-002           7       88716           0
</event>
<event>
      5   9999 -3.79277E-02  1.25389E+01 -1.00000E+00  1.85044E-01
      21    -1     0     0   512   501  0.000000000E+00  0.000000000E+00  9.362122979E+02  9.362122979E+02  0.000000000E+00  0.00000E+00  9.000E+00
      21    -1     0     0   501   502  0.000000000E+00  0.000000000E+00 -7.336395161E+01  7.336395161E+01  0.000000000E+00  0.00000E+00  9.000E+00
      25     1     1     2     0     0  1.049171765E+02  1.786694262E+02  5.630574183E+02  6.128531913E+02  1.250000000E+02  0.00000E+00  9.000E+00
      25     1     1     2     0     0 -9.553249122E+01 -1.869852215E+02  2.687087627E+02  3.632070059E+02  1.250000000E+02  0.00000E+00  9.000E+00
      21     1     1     2   512   502 -9.384685289E+00  8.315795227E+00  3.108216524E+01  3.351605234E+01  3.371747881E-07  0.00000E+00  9.000E+00
#rwgt            1           1  -1.4104338695876299E-002           7       88988           0
</event>
<event>
      5   9999  3.79277E-02  3.32706E+01 -1.00000E+00  1.49983E-01
      21    -1     0     0   511   501  0.000000000E+00  0.000000000E+00  1.091406798E+03  1.091406798E+03  0.000000000E+00  0.00000E+00  9.000E+00
      21    -1     0     0   501   502  0.000000000E+00  0.000000000E+00 -1.477040296E+02  1.477040296E+02  0.000000000E+00  0.00000E+00  9.000E+00
      25     1     1     2     0     0 -8.613315801E+01  2.673417217E+02  6.905740729E+02  7.559153836E+02  1.250000000E+02  0.00000E+00  9.000E+00
      25     1     1     2     0     0  1.192764195E+02 -2.644333128E+02  1.072727383E+02  3.335929879E+02  1.250000000E+02  0.00000E+00  9.000E+00
      21     1     1     2   511   502 -3.314326148E+01 -2.908408840E+00  1.458559574E+02  1.496024563E+02  0.000000000E+00  0.00000E+00  9.000E+00
#rwgt            1           1   7.8949586710310396E-002           7       89416           0
</event>
<event>
      5   9999  3.79277E-02  2.86208E+01 -1.00000E+00  1.54473E-01
      21    -1     0     0   502   501  0.000000000E+00  0.000000000E+00  4.235333312E+02  4.235333312E+02  0.000000000E+00  0.00000E+00  9.000E+00
      21    -1     0     0   512   502  0.000000000E+00  0.000000000E+00 -1.328865032E+02  1.328865032E+02  0.000000000E+00  0.00000E+00  9.000E+00
      25     1     1     2     0     0 -1.286193435E+02 -7.080228760E+01  2.352444220E+02  3.041723812E+02  1.250000000E+02  0.00000E+00  9.000E+00
      25     1     1     2     0     0  1.381713543E+02  9.778204991E+01  6.777323881E+01  2.210675560E+02  1.250000000E+02  0.00000E+00  9.000E+00
      21     1     1     2   512   501 -9.552010748E+00 -2.697976232E+01 -1.237083274E+01  3.117989716E+01  4.460403188E-07  0.00000E+00  9.000E+00
#rwgt            1           1   3.9009669157871955E-002           7       89630           0
</event>
<event>
      5   9999  3.79277E-02  1.28211E+02 -1.00000E+00  1.19161E-01
      21    -1     0     0   502   511  0.000000000E+00  0.000000000E+00  1.970057340E+02  1.970057340E+02  0.000000000E+00  0.00000E+00  9.000E+00
      21    -1     0     0   501   502  0.000000000E+00  0.000000000E+00 -5.582881127E+02  5.582881127E+02  0.000000000E+00  0.00000E+00  9.000E+00
      25     1     1     2     0     0  7.948327249E+01 -9.773223513E+01 -3.921049289E+02  4.303956966E+02  1.250000000E+02  0.00000E+00  9.000E+00
      25     1     1     2     0     0 -1.467277700E+02 -1.142908981E+01  2.496151222E-01  1.930925293E+02  1.250000000E+02  0.00000E+00  9.000E+00
      21     1     1     2   501   511  6.724449747E+01  1.091613249E+02  3.057293509E+01  1.318056208E+02  9.536743164E-07  0.00000E+00  9.000E+00
#rwgt            1           1   2.3945221947073343E-002           7       89851           0
</event>
<event>
      5   9999  3.79277E-02  5.72571E+01 -1.00000E+00  1.35798E-01
      21    -1     0     0   502   501  0.000000000E+00  0.000000000E+00  4.648796380E+02  4.648796380E+02  0.000000000E+00  0.00000E+00  9.000E+00
      21    -1     0     0   512   502  0.000000000E+00  0.000000000E+00 -1.297231910E+02  1.297231910E+02  0.000000000E+00  0.00000E+00  9.000E+00
      25     1     1     2     0     0  1.503260423E+02  6.011848933E+00  3.051775801E+02  3.624809191E+02  1.250000000E+02  0.00000E+00  9.000E+00
      25     1     1     2     0     0 -9.308290037E+01 -4.746769250E+00  6.048689183E+01  1.672441994E+02  1.250000000E+02  0.00000E+00  9.000E+00
      21     1     1     2   512   501 -5.724314193E+01 -1.265079684E+00 -3.050802502E+01  6.487771046E+01  0.000000000E+00  0.00000E+00  9.000E+00
#rwgt            1           1   3.5291646013303181E-002           7       90184           0
</event>
<event>
      5   9999  3.79277E-02  1.01637E+02 -1.00000E+00  1.23512E-01
      21    -1     0     0   511   501  0.000000000E+00  0.000000000E+00  3.943626877E+02  3.943626877E+02  0.000000000E+00  0.00000E+00  9.000E+00
      21    -1     0     0   501   502  0.000000000E+00  0.000000000E+00 -3.378542858E+02  3.378542858E+02  0.000000000E+00  0.00000E+00  9.000E+00
      25     1     1     2     0     0 -2.240805707E+02  2.152785044E+02  6.075083552E+01  3.404006473E+02  1.250000000E+02  0.00000E+00  9.000E+00
      25     1     1     2     0     0  1.224885748E+02 -2.183116194E+02 -4.291039152E+01  2.830719269E+02  1.250000000E+02  0.00000E+00  9.000E+00
      21     1     1     2   511   502  1.015919959E+02  3.033114929E+00  3.866795791E+01  1.087443994E+02  9.536743164E-07  0.00000E+00  9.000E+00
#rwgt            1           1   3.6094978357358122E-002           7       90379           0
</event>
<event>
      5   9999  3.79277E-02  3.10117E+01 -1.00000E+00  1.52046E-01
      21    -1     0     0   512   501  0.000000000E+00  0.000000000E+00  4.522814344E+01  4.522814344E+01  0.000000000E+00  0.00000E+00  9.000E+00
      21    -1     0     0   501   502  0.000000000E+00  0.000000000E+00 -2.225787313E+03  2.225787313E+03  0.000000000E+00  0.00000E+00  9.000E+00
      25     1     1     2     0     0 -9.840904198E+01 -2.019474354E+02 -5.018561007E+02  5.638720174E+02  1.250000000E+02  0.00000E+00  9.000E+00
      25     1     1     2     0     0  8.485192823E+01  2.298388910E+02 -1.577394491E+03  1.601194599E+03  1.250000000E+02  0.00000E+00  9.000E+00
      21     1     1     2   512   502  1.355711375E+01 -2.789145564E+01 -1.013085783E+02  1.059488398E+02  0.000000000E+00  0.00000E+00  9.000E+00
#rwgt            1           1   9.1644215239086127E-002           7       90441           0
</event>
<event>
      5   9999  3.79277E-02  4.13790E+01 -1.00000E+00  1.43933E-01
      21    -1     0     0   502   501  0.000000000E+00  0.000000000E+00  5.437443550E+02  5.437443550E+02  0.000000000E+00  0.00000E+00  9.000E+00
      21    -1     0     0   501   511  0.000000000E+00  0.000000000E+00 -1.806723741E+02  1.806723741E+02  0.000000000E+00  0.00000E+00  9.000E+00
      25     1     1     2     0     0  1.144025474E+02 -1.256643540E+02  3.396779396E+02  3.998569436E+02  1.250000000E+02  0.00000E+00  9.000E+00
      25     1     1     2     0     0 -8.250162978E+01  1.520187913E+02  1.013915944E+02  2.362657132E+02  1.250000000E+02  0.00000E+00  9.000E+00
      21     1     1     2   502   511 -3.190091759E+01 -2.635443729E+01 -7.799755313E+01  8.829407230E+01  2.132480600E-06  0.00000E+00  9.000E+00
#rwgt            1           1   3.9721796529098130E-002           7       90701           0
</event>
<event>
      5   9999  3.79277E-02  6.31221E+01 -1.00000E+00  1.33537E-01
      21    -1     0     0   502   501  0.000000000E+00  0.000000000E+00  1.358483211E+02  1.358483211E+02  0.000000000E+00  0.00000E+00  9.000E+00
       1    -1     0     0   501     0  0.000000000E+00  0.000000000E+00 -8.688718671E+02  8.688718671E+02  0.000000000E+00  0.00000E+00  9.000E+00
      25     1     1     2     0     0  1.989552048E+00  6.404715844E+01  6.735516145E+01  1.557809828E+02  1.250000000E+02  0.00000E+00  9.000E+00
      25     1     1     2     0     0  5.347249673E+01 -3.390811394E+01 -1.941507176E+02  2.394338515E+02  1.250000000E+02  0.00000E+00  9.000E+00
       1     1     1     2   502     0 -5.546204877E+01 -3.013904450E+01 -6.062279899E+02  6.095053540E+02  0.000000000E+00  0.00000E+00  9.000E+00
#rwgt            1           1   3.9646577826996404E-002           7       90868           0
</event>
<event>
      5   9999  3.79277E-02  3.22432E+01 -1.00000E+00  1.50896E-01
      21    -1     0     0   502   501  0.000000000E+00  0.000000000E+00  6.449714836E+02  6.449714836E+02  0.000000000E+00  0.00000E+00  9.000E+00
      21    -1     0     0   511   502  0.000000000E+00  0.000000000E+00 -5.378550860E+01  5.378550860E+01  0.000000000E+00  0.00000E+00  9.000E+00
      25     1     1     2     0     0  5.702596490E+01  1.899695436E+01  4.476624093E+02  4.686571003E+02  1.250000000E+02  0.00000E+00  9.000E+00
      25     1     1     2     0     0 -7.413053698E+01  8.335420712E+00  1.030404586E+02  1.783455967E+02  1.250000000E+02  0.00000E+00  9.000E+00
      21     1     1     2   511   501  1.710457209E+01 -2.733237508E+01  4.048310700E+01  5.175429514E+01  4.768371582E-07  0.00000E+00  9.000E+00
#rwgt            1           1   3.9319119106588619E-002           7       91192           0
</event>
<event>
      5   9999  3.79277E-02  7.21662E+01 -1.00000E+00  1.30554E-01
      21    -1     0     0   502   501  0.000000000E+00  0.000000000E+00  8.941267983E+01  8.941267983E+01  0.000000000E+00  0.00000E+00  9.000E+00
       2    -1     0     0   501     0  0.000000000E+00  0.000000000E+00 -8.677612823E+02  8.677612823E+02  0.000000000E+00  0.00000E+00  9.000E+00
      25     1     1     2     0     0  9.931801875E+01  2.072655739E+01 -3.654378184E+02  3.993287595E+02  1.250000000E+02  0.00000E+00  9.000E+00
      25     1     1     2     0     0 -1.179111046E+02 -9.045642449E+01 -6.844439120E+01  2.059005294E+02  1.250000000E+02  0.00000E+00  9.000E+00
       2     1     1     2   502     0  1.859308587E+01  6.972986709E+01 -3.444663928E+02  3.519446732E+02  0.000000000E+00  0.00000E+00  9.000E+00
#rwgt            1           1   3.9525142247175668E-002           7       91358           0
</event>
<event>
      5   9999  3.79277E-02  8.34124E+01 -1.00000E+00  1.27478E-01
      21    -1     0     0   502   511  0.000000000E+00  0.000000000E+00  3.181271406E+02  3.181271406E+02  0.000000000E+00  0.00000E+00  9.000E+00
      21    -1     0     0   501   502  0.000000000E+00  0.000000000E+00 -2.266182695E+02  2.266182695E+02  0.000000000E+00  0.00000E+00  9.000E+00
      25     1     1     2     0     0 -1.012651239E+02  1.625303232E+01  1.404577016E+02  2.141778521E+02  1.250000000E+02  0.00000E+00  9.000E+00
      25     1     1     2     0     0  1.751304412E+02 -5.500270169E+01 -8.747240710E+01  2.386888993E+02  1.250000000E+02  0.00000E+00  9.000E+00
      21     1     1     2   501   511 -7.386531732E+01  3.874966936E+01  3.852357654E+01  9.187865872E+01  9.536743164E-07  0.00000E+00  9.000E+00
#rwgt            1           1   4.3500709496538684E-002           7       91472           0
</event>
<event>
      5   9999  3.79277E-02  5.51826E+01 -1.00000E+00  1.36675E-01
      21    -1     0     0   502   501  0.000000000E+00  0.000000000E+00  2.673288827E+02  2.673288827E+02  0.000000000E+00  0.00000E+00  9.000E+00
      21    -1     0     0   512   502  0.000000000E+00  0.000000000E+00 -6.797502005E+02  6.797502005E+02  0.000000000E+00  0.00000E+00  9.000E+00
      25     1     1     2     0     0  5.895042712E+01  1.151956348E+02 -1.606545596E+02  2.412054615E+02  1.250000000E+02  0.00000E+00  9.000E+00
      25     1     1     2     0     0 -9.155226044E+01 -7.067332361E+01  1.931749750E+02  2.575230204E+02  1.250000000E+02  0.00000E+00  9.000E+00
      21     1     1     2   512   501  3.260183332E+01 -4.452231122E+01 -4.449417333E+02  4.483506013E+02  0.000000000E+00  0.00000E+00  9.000E+00
#rwgt            1           1   3.4294177369781242E-002           7       91639           0
</event>
<event>
      5   9999  3.79277E-02  1.21507E+01 -1.00000E+00  1.86460E-01
       1    -1     0     0   502     0  0.000000000E+00  0.000000000E+00  2.250959722E+03  2.250959722E+03  0.000000000E+00  0.00000E+00  9.000E+00
      21    -1     0     0   501   502  0.000000000E+00  0.000000000E+00 -6.973028284E+01  6.973028284E+01  0.000000000E+00  0.00000E+00  9.000E+00
      25     1     1     2     0     0  2.044026882E+02 -9.187147185E+01  7.997077558E+02  8.398680378E+02  1.250000000E+02  0.00000E+00  9.000E+00
      25     1     1     2     0     0 -2.051375913E+02  1.039999120E+02  2.956464802E+02  3.948787843E+02  1.250000000E+02  0.00000E+00  9.000E+00
       1     1     1     2   501     0  7.349030514E-01 -1.212844020E+01  1.085875203E+03  1.085943182E+03  0.000000000E+00  0.00000E+00  9.000E+00
#rwgt            1           1   3.6758730557123726E-002           7       91767           0
</event>
<event>
      5   9999  3.79277E-02  7.09135E+01 -1.00000E+00  1.30936E-01
      21    -1     0     0   502   511  0.000000000E+00  0.000000000E+00  1.072953614E+03  1.072953614E+03  0.000000000E+00  0.00000E+00  9.000E+00
      21    -1     0     0   501   502  0.000000000E+00  0.000000000E+00 -1.488541750E+02  1.488541750E+02  0.000000000E+00  0.00000E+00  9.000E+00
      25     1     1     2     0     0 -2.255216172E+02 -1.309313249E+02  2.780280075E+02  4.011578052E+02  1.250000000E+02  0.00000E+00  9.000E+00
      25     1     1     2     0     0  2.910614096E+02  1.038524426E+02  2.458872679E+02  4.142313635E+02  1.250000000E+02  0.00000E+00  9.000E+00
      21     1     1     2   501   511 -6.553979241E+01  2.707888231E+01  4.001841636E+02  4.064186204E+02  5.394796609E-06  0.00000E+00  9.000E+00
#rwgt            1           1   3.8704635663562463E-002           7       92106           0
</event>
<event>
      5   9999  3.79277E-02  4.08694E+01 -1.00000E+00  1.44263E-01
      21    -1     0     0   502   512  0.000000000E+00  0.000000000E+00  3.819387358E+02  3.819387358E+02  0.000000000E+00  0.00000E+00  9.000E+00
      21    -1     0     0   501   502  0.000000000E+00  0.000000000E+00 -2.696838922E+02  2.696838922E+02  0.000000000E+00  0.00000E+00  9.000E+00
      25     1     1     2     0     0 -1.848382707E+02 -3.157333063E+01  1.871150789E+02  2.929148584E+02  1.250000000E+02  0.00000E+00  9.000E+00
      25     1     1     2     0     0  1.930379201E+02  7.161174361E+01 -1.423658522E+02  2.797944179E+02  1.250000000E+02  0.00000E+00  9.000E+00
      21     1     1     2   501   512 -8.199649362E+00 -4.003841299E+01  6.750561689E+01  7.891335170E+01  0.000000000E+00  0.00000E+00  9.000E+00
#rwgt            1           1   3.4220927060997088E-002           7       92198           0
</event>
<event>
      5   9999  3.79277E-02  2.11844E+01 -1.00000E+00  1.64334E-01
      21    -1     0     0   502   511  0.000000000E+00  0.000000000E+00  1.576177774E+02  1.576177774E+02  0.000000000E+00  0.00000E+00  9.000E+00
      21    -1     0     0   501   502  0.000000000E+00  0.000000000E+00 -8.783895452E+02  8.783895452E+02  0.000000000E+00  0.00000E+00  9.000E+00
      25     1     1     2     0     0  1.093848286E+02 -3.078126923E+02 -4.634092118E+02  5.805917601E+02  1.250000000E+02  0.00000E+00  9.000E+00
      25     1     1     2     0     0 -8.910116738E+01  3.139241696E+02 -2.577616558E+02  4.342274444E+02  1.250000000E+02  0.00000E+00  9.000E+00
      21     1     1     2   501   511 -2.028366122E+01 -6.111477301E+00  3.990998596E-01  2.118811808E+01  2.363138128E-07  0.00000E+00  9.000E+00
#rwgt            1           1   3.3678482998923918E-002           7       92272           0
</event>
<event>
      5   9999  3.79277E-02  5.56972E+01 -1.00000E+00  1.36453E-01
      21    -1     0     0   502   512  0.000000000E+00  0.000000000E+00  9.346780647E+02  9.346780647E+02  0.000000000E+00  0.00000E+00  9.000E+00
      21    -1     0     0   501   502  0.000000000E+00  0.000000000E+00 -6.202248880E+01  6.202248880E+01  0.000000000E+00  0.00000E+00  9.000E+00
      25     1     1     2     0     0 -1.025143891E+02  1.566907853E+02  3.791088241E+02  4.409191566E+02  1.250000000E+02  0.00000E+00  9.000E+00
      25     1     1     2     0     0  1.170616024E+02 -1.029268865E+02  3.901954444E+02  4.383775172E+02  1.250000000E+02  0.00000E+00  9.000E+00
      21     1     1     2   501   512 -1.454721335E+01 -5.376389882E+01  1.033513073E+02  1.174038797E+02  1.348699152E-06  0.00000E+00  9.000E+00
#rwgt            1           1  0.10421563027566952                7       92513           0
</event>
<event>
      5   9999  3.79277E-02  2.41325E+01 -1.00000E+00  1.59908E-01
      21    -1     0     0   502   501  0.000000000E+00  0.000000000E+00  3.574863823E+02  3.574863823E+02  0.000000000E+00  0.00000E+00  9.000E+00
      21    -1     0     0   501   511  0.000000000E+00  0.000000000E+00 -1.082606238E+03  1.082606238E+03  0.000000000E+00  0.00000E+00  9.000E+00
      25     1     1     2     0     0  1.838012669E+01 -1.431795490E+02 -3.881750437E+02  4.326003662E+02  1.250000000E+02  0.00000E+00  9.000E+00
      25     1     1     2     0     0 -3.149290688E+00  1.618984745E+02  3.038225413E+02  3.662706249E+02  1.250000000E+02  0.00000E+00  9.000E+00
      21     1     1     2   502   511 -1.523083600E+01 -1.871892543E+01 -6.407673536E+02  6.412216294E+02  7.629394531E-06  0.00000E+00  9.000E+00
#rwgt            1           1   4.1736061958079308E-002           7       92684           0
</event>
<event>
      5   9999  3.79277E-02  1.42280E+01 -1.00000E+00  1.79573E-01
      21    -1     0     0   502   501  0.000000000E+00  0.000000000E+00  1.691143140E+02  1.691143140E+02  0.000000000E+00  0.00000E+00  9.000E+00
      21    -1     0     0   501   512  0.000000000E+00  0.000000000E+00 -1.820420468E+02  1.820420468E+02  0.000000000E+00  0.00000E+00  9.000E+00
      25     1     1     2     0     0 -4.273144707E+01  5.753580202E+01  8.524998980E+01  1.674183558E+02  1.250000000E+02  0.00000E+00  9.000E+00
      25     1     1     2     0     0  2.857868754E+01 -5.607450289E+01 -8.204125666E+01  1.622247178E+02  1.250000000E+02  0.00000E+00  9.000E+00
      21     1     1     2   502   512  1.415275953E+01 -1.461299132E+00 -1.613646589E+01  2.151328727E+01  2.384185791E-07  0.00000E+00  9.000E+00
#rwgt            1           1   5.1280256847091643E-002           7       93119           0
</event>
<event>
      5   9999  3.79277E-02  1.93753E+01 -1.00000E+00  1.67514E-01
      21    -1     0     0   502   501  0.000000000E+00  0.000000000E+00  1.454550359E+02  1.454550359E+02  0.000000000E+00  0.00000E+00  9.000E+00
      21    -1     0     0   511   502  0.000000000E+00  0.000000000E+00 -5.198035934E+02  5.198035934E+02  0.000000000E+00  0.00000E+00  9.000E+00
      25     1     1     2     0     0 -1.383004285E+02 -3.449141702E+01 -4.319498469E+01  1.944414387E+02  1.250000000E+02  0.00000E+00  9.000E+00
      25     1     1     2     0     0  1.193280536E+02  3.842232963E+01 -4.321912651E+01  1.822315908E+02  1.250000000E+02  0.00000E+00  9.000E+00
      21     1     1     2   511   501  1.897237489E+01 -3.930912613E+00 -2.879344463E+02  2.885855998E+02  8.529922400E-06  0.00000E+00  9.000E+00
#rwgt            1           1   4.6606766931044936E-002           7       93383           0
</event>
<event>
      5   9999  3.79277E-02  6.43392E+00 -1.00000E+00  2.20863E-01
      21    -1     0     0   502   512  0.000000000E+00  0.000000000E+00  1.988379687E+01  1.988379687E+01  0.000000000E+00  0.00000E+00  9.000E+00
      21    -1     0     0   501   502  0.000000000E+00  0.000000000E+00 -1.287783533E+03  1.287783533E+03  0.000000000E+00  0.00000E+00  9.000E+00
      25     1     1     2     0     0 -9.052576736E+00 -6.949697741E+01 -8.015712166E+02  8.142807835E+02  1.250000000E+02  0.00000E+00  9.000E+00
      25     1     1     2     0     0  3.062684489E+00  7.184570233E+01 -4.649582352E+02  4.868083252E+02  1.250000000E+02  0.00000E+00  9.000E+00
      21     1     1     2   501   512  5.989892246E+00 -2.348724914E+00 -1.370284549E+00  6.578221461E+00  2.799674008E-07  0.00000E+00  9.000E+00
#rwgt            1           1  0.11378729403305309                7       93572           0
</event>
<event>
      5   9999  3.79277E-02  2.28773E+02 -1.00000E+00  1.09563E-01
      21    -1     0     0   502   501  0.000000000E+00  0.000000000E+00  7.994640305E+02  7.994640305E+02  0.000000000E+00  0.00000E+00  9.000E+00
      21    -1     0     0   511   502  0.000000000E+00  0.000000000E+00 -2.125258386E+02  2.125258386E+02  0.000000000E+00  0.00000E+00  9.000E+00
      25     1     1     2     0     0  1.214199572E+02 -1.341682191E+02  9.669915292E+01  2.402491273E+02  1.250000000E+02  0.00000E+00  9.000E+00
      25     1     1     2     0     0  1.071357259E+02  1.241903515E+02  5.019577876E+02  5.426674190E+02  1.250000000E+02  0.00000E+00  9.000E+00
      21     1     1     2   511   501 -2.285556831E+02  9.977867582E+00 -1.171874863E+01  2.290733227E+02  7.152557373E-07  0.00000E+00  9.000E+00
#rwgt            2          11   2.1532513313105768E-003           7       93841           0
</event>
<event>
      5   9999  3.79277E-02  2.32218E+01 -1.00000E+00  1.61189E-01
      21    -1     0     0   502   501  0.000000000E+00  0.000000000E+00  1.123496281E+02  1.123496281E+02  0.000000000E+00  0.00000E+00  9.000E+00
      21    -1     0     0   512   502  0.000000000E+00  0.000000000E+00 -5.828353353E+02  5.828353353E+02  0.000000000E+00  0.00000E+00  9.000E+00
      25     1     1     2     0     0  1.947855778E+02  6.287782533E+01 -1.542773614E+02  2.851693295E+02  1.250000000E+02  0.00000E+00  9.000E+00
      25     1     1     2     0     0 -1.856247646E+02 -4.153927302E+01 -2.418348763E+02  3.321011470E+02  1.250000000E+02  0.00000E+00  9.000E+00
      21     1     1     2   512   501 -9.160813187E+00 -2.133855231E+01 -7.437346949E+01  7.791448695E+01  0.000000000E+00  0.00000E+00  9.000E+00
#rwgt            1           1   4.5576178190901352E-002           7       93951           0
</event>
<event>
      5   9999  3.79277E-02  5.71585E+01 -1.00000E+00  1.35839E-01
      21    -1     0     0   502   501  0.000000000E+00  0.000000000E+00  3.241701103E+01  3.241701103E+01  0.000000000E+00  0.00000E+00  9.000E+00
       2    -1     0     0   501     0  0.000000000E+00  0.000000000E+00 -4.034768695E+03  4.034768695E+03  0.000000000E+00  0.00000E+00  9.000E+00
      25     1     1     2     0     0  7.823225211E+01  1.188000448E+01 -8.447820363E+02  8.576380988E+02  1.250000000E+02  0.00000E+00  9.000E+00
      25     1     1     2     0     0 -1.128290911E+02  3.361897312E+01 -2.610398972E+02  3.124539439E+02  1.250000000E+02  0.00000E+00  9.000E+00
       2     1     1     2   502     0  3.459683894E+01 -4.549897759E+01 -2.896529750E+03  2.897093663E+03  0.000000000E+00  0.00000E+00  9.000E+00
#rwgt            1           1   3.8682816526202286E-003           7       94175           0
</event>
<event>
      5   9999  3.79277E-02  1.14468E+01 -1.00000E+00  1.89209E-01
      21    -1     0     0   502   511  0.000000000E+00  0.000000000E+00  1.005342620E+02  1.005342620E+02  0.000000000E+00  0.00000E+00  9.000E+00
      21    -1     0     0   501   502  0.000000000E+00  0.000000000E+00 -1.121566250E+03  1.121566250E+03  0.000000000E+00  0.00000E+00  9.000E+00
      25     1     1     2     0     0 -2.728756082E+01  2.819497408E+02 -3.011014650E+02  4.318881332E+02  1.250000000E+02  0.00000E+00  9.000E+00
      25     1     1     2     0     0  3.872839089E+01 -2.815792425E+02 -7.104860930E+02  7.753723276E+02  1.250000000E+02  0.00000E+00  9.000E+00
      21     1     1     2   501   511 -1.144083007E+01 -3.704983302E-01 -9.444429806E+00  1.484005108E+01  3.371747881E-07  0.00000E+00  9.000E+00
#rwgt            1           1   2.9206854324048629E-003           7       94319           0
</event>
<event>
      5   9999  3.79277E-02  1.52076E+01 -1.00000E+00  1.76823E-01
      21    -1     0     0   512   501  0.000000000E+00  0.000000000E+00  7.406861639E+02  7.406861639E+02  0.000000000E+00  0.00000E+00  9.000E+00
      21    -1     0     0   501   502  0.000000000E+00  0.000000000E+00 -4.342637762E+01  4.342637762E+01  0.000000000E+00  0.00000E+00  9.000E+00
      25     1     1     2     0     0  7.824417293E+00 -1.041647686E+02  4.236658996E+02  4.539045220E+02  1.250000000E+02  0.00000E+00  9.000E+00
      25     1     1     2     0     0 -2.102489166E+01  1.117157338E+02  2.420233142E+02  2.951656075E+02  1.250000000E+02  0.00000E+00  9.000E+00
      21     1     1     2   512   502  1.320047436E+01 -7.550965154E+00  3.157057246E+01  3.504241207E+01  0.000000000E+00  0.00000E+00  9.000E+00
#rwgt            1           1   4.5021615289331740E-002           7       94677           0
</event>
<event>
      5   9999  3.79277E-02  8.28996E+01 -1.00000E+00  1.27606E-01
      21    -1     0     0   502   501  0.000000000E+00  0.000000000E+00  3.776652641E+01  3.776652641E+01  0.000000000E+00  0.00000E+00  9.000E+00
      21    -1     0     0   511   502  0.000000000E+00  0.000000000E+00 -9.416458830E+02  9.416458830E+02  0.000000000E+00  0.00000E+00  9.000E+00
      25     1     1     2     0     0 -7.049447221E+00 -5.367272033E+01 -2.171419988E+02  2.563320176E+02  1.250000000E+02  0.00000E+00  9.000E+00
      25     1     1     2     0     0  6.106341443E+01 -9.214793613E+00 -3.617849509E+02  3.877202647E+02  1.250000000E+02  0.00000E+00  9.000E+00
      21     1     1     2   511   501 -5.401396721E+01  6.288751394E+01 -3.249524069E+02  3.353601271E+02  6.607249480E-06  0.00000E+00  9.000E+00
#rwgt            1           1   2.1239399378181936E-002           7       94861           0
</event>
<event>
      5   9999  3.79277E-02  1.24007E+01 -1.00000E+00  1.85541E-01
      21    -1     0     0   502   501  0.000000000E+00  0.000000000E+00  3.390118595E+02  3.390118595E+02  0.000000000E+00  0.00000E+00  9.000E+00
      21    -1     0     0   512   502  0.000000000E+00  0.000000000E+00 -2.045872224E+02  2.045872224E+02  0.000000000E+00  0.00000E+00  9.000E+00
      25     1     1     2     0     0 -1.835382733E+02  8.713959095E+01  1.391786429E+02  2.761798340E+02  1.250000000E+02  0.00000E+00  9.000E+00
      25     1     1     2     0     0  1.791603650E+02 -9.874179247E+01  1.914009273E+01  2.404989004E+02  1.250000000E+02  0.00000E+00  9.000E+00
      21     1     1     2   512   501  4.377908330E+00  1.160220152E+01 -2.389409858E+01  2.692034748E+01  3.371747881E-07  0.00000E+00  9.000E+00
#rwgt            1           1   6.6284067444002240E-002           7       94922           0
</event>
<event>
      5   9999  3.79277E-02  2.96367E+01 -1.00000E+00  1.53408E-01
       3    -1     0     0   502     0  0.000000000E+00  0.000000000E+00  1.600755223E+03  1.600755223E+03  0.000000000E+00  0.00000E+00  9.000E+00
      21    -1     0     0   501   502  0.000000000E+00  0.000000000E+00 -5.373209214E+01  5.373209214E+01  0.000000000E+00  0.00000E+00  9.000E+00
      25     1     1     2     0     0  1.043073432E+02 -1.684210969E+02  8.378507583E+02  8.699796439E+02  1.250000000E+02  0.00000E+00  9.000E+00
      25     1     1     2     0     0 -1.238648260E+02  1.461536808E+02  3.154038797E+02  3.896254623E+02  1.250000000E+02  0.00000E+00  9.000E+00
       3     1     1     2   501     0  1.955748276E+01  2.226741611E+01  3.937684929E+02  3.948822090E+02  0.000000000E+00  0.00000E+00  9.000E+00
#rwgt            1           1   4.5055301495508931E-002           7       95110           0
</event>
<event>
      5   9999  3.79277E-02  2.12596E+01 -1.00000E+00  1.64210E-01
      21    -1     0     0   502   501  0.000000000E+00  0.000000000E+00  2.605120585E+02  2.605120585E+02  0.000000000E+00  0.00000E+00  9.000E+00
      21    -1     0     0   511   502  0.000000000E+00  0.000000000E+00 -2.953299290E+02  2.953299290E+02  0.000000000E+00  0.00000E+00  9.000E+00
      25     1     1     2     0     0 -1.500065771E+02  1.508583968E+02  5.624989732E+01  2.530795922E+02  1.250000000E+02  0.00000E+00  9.000E+00
      25     1     1     2     0     0  1.333375960E+02 -1.640537236E+02 -4.183279700E+01  2.491335417E+02  1.250000000E+02  0.00000E+00  9.000E+00
      21     1     1     2   511   501  1.666898113E+01  1.319532680E+01 -4.923497082E+01  5.362885354E+01  6.743495762E-07  0.00000E+00  9.000E+00
#rwgt            1           1   4.0726103251102971E-002           7       95251           0
</event>
<event>
      5   9999  3.79277E-02  4.35918E+01 -1.00000E+00  1.42561E-01
      21    -1     0     0   502   512  0.000000000E+00  0.000000000E+00  1.493036728E+03  1.493036728E+03  0.000000000E+00  0.00000E+00  9.000E+00
      21    -1     0     0   501   502  0.000000000E+00  0.000000000E+00 -4.396260143E+01  4.396260143E+01  0.000000000E+00  0.00000E+00  9.000E+00
      25     1     1     2     0     0 -1.548206674E+02 -1.414801116E+02  5.827960666E+02  6.318720727E+02  1.250000000E+02  0.00000E+00  9.000E+00
      25     1     1     2     0     0  1.442139643E+02  9.919836330E+01  6.554209619E+02  6.898112931E+02  1.250000000E+02  0.00000E+00  9.000E+00
      21     1     1     2   501   512  1.060670315E+01  4.228174826E+01  2.108570981E+02  2.153159636E+02  2.697398305E-06  0.00000E+00  9.000E+00
#rwgt            1           1   3.4074949129585974E-002           7       95431           0
</event>
<event>
      5   9999  3.79277E-02  5.16879E+01 -1.00000E+00  1.38258E-01
      21    -1     0     0   502   511  0.000000000E+00  0.000000000E+00  5.751859510E+02  5.751859510E+02  0.000000000E+00  0.00000E+00  9.000E+00
      21    -1     0     0   501   502  0.000000000E+00  0.000000000E+00 -2.551103480E+02  2.551103480E+02  0.000000000E+00  0.00000E+00  9.000E+00
      25     1     1     2     0     0 -2.168694375E+02 -2.727553043E+02  1.808323195E+02  4.120110881E+02  1.250000000E+02  0.00000E+00  9.000E+00
      25     1     1     2     0     0  2.259675646E+02  2.218744247E+02  1.050100353E+02  3.562887988E+02  1.250000000E+02  0.00000E+00  9.000E+00
      21     1     1     2   501   511 -9.098127149E+00  5.088087959E+01  3.423324827E+01  6.199641209E+01  8.259061849E-07  0.00000E+00  9.000E+00
#rwgt            1           1  0.24937338315252067                7       95494           0
</event>
<event>
      5   9999  3.79277E-02  2.52985E+01 -1.00000E+00  1.58366E-01
      21    -1     0     0   512   501  0.000000000E+00  0.000000000E+00  5.022958136E+02  5.022958136E+02  0.000000000E+00  0.00000E+00  9.000E+00
      21    -1     0     0   501   502  0.000000000E+00  0.000000000E+00 -9.782979120E+01  9.782979120E+01  0.000000000E+00  0.00000E+00  9.000E+00
      25     1     1     2     0     0 -5.775887016E+01 -1.223623432E+02  7.588102685E+01  1.992274086E+02  1.250000000E+02  0.00000E+00  9.000E+00
      25     1     1     2     0     0  5.586521695E+01  1.475898361E+02  2.675734348E+02  3.348495561E+02  1.250000000E+02  0.00000E+00  9.000E+00
      21     1     1     2   512   502  1.893653214E+00 -2.522749291E+01  6.101156071E+01  6.604864012E+01  1.348699152E-06  0.00000E+00  9.000E+00
#rwgt            1           1   3.2443175816546460E-002           7       95632           0
</event>
<event>
      5   9999  3.79277E-02  1.60357E+01 -1.00000E+00  1.74695E-01
      21    -1     0     0   502   501  0.000000000E+00  0.000000000E+00  8.370709264E+02  8.370709264E+02  0.000000000E+00  0.00000E+00  9.000E+00
      21    -1     0     0   511   502  0.000000000E+00  0.000000000E+00 -1.230943777E+02  1.230943777E+02  0.000000000E+00  0.00000E+00  9.000E+00
      25     1     1     2     0     0  6.564560713E+01 -1.994617665E+02  5.707294444E+02  6.208473570E+02  1.250000000E+02  0.00000E+00  9.000E+00
      25     1     1     2     0     0 -7.914479778E+01  1.908064279E+02  1.787163213E+02  3.003922693E+02  1.250000000E+02  0.00000E+00  9.000E+00
      21     1     1     2   511   501  1.349919066E+01  8.655338579E+00 -3.546921704E+01  3.892567779E+01  1.348699152E-06  0.00000E+00  9.000E+00
#rwgt            1           1   4.0613922296534835E-002           7       95770           0
</event>
<event>
      5   9999  3.79277E-02  1.58409E+01 -1.00000E+00  1.75181E-01
      21    -1     0     0   512   501  0.000000000E+00  0.000000000E+00  1.621833608E+02  1.621833608E+02  0.000000000E+00  0.00000E+00  9.000E+00
      21    -1     0     0   501   502  0.000000000E+00  0.000000000E+00 -5.067895507E+02  5.067895507E+02  0.000000000E+00  0.00000E+00  9.000E+00
      25     1     1     2     0     0  1.462344290E+02 -8.303664984E+01 -2.281303445E+02  3.097548184E+02  1.250000000E+02  0.00000E+00  9.000E+00
      25     1     1     2     0     0 -1.420020325E+02  6.777160818E+01 -1.944621423E+02  2.796392191E+02  1.250000000E+02  0.00000E+00  9.000E+00
      21     1     1     2   512   502 -4.232396517E+00  1.526504166E+01  7.798629692E+01  7.957887398E+01  2.132480600E-06  0.00000E+00  9.000E+00
#rwgt            1           1   4.0507367965119404E-002           7       96046           0
</event>
<event>
      5   9999  3.79277E-02  1.23308E+01 -1.00000E+00  1.85795E-01
      21    -1     0     0   502   501  0.000000000E+00  0.000000000E+00  4.932185709E+01  4.932185709E+01  0.000000000E+00  0.00000E+00  9.000E+00
      21    -1     0     0   501   511  0.000000000E+00  0.000000000E+00 -7.819594201E+02  7.819594201E+02  0.000000000E+00  0.00000E+00  9.000E+00
      25     1     1     2     0     0 -1.819216263E+01  4.951199978E-01 -6.429767647E+02  6.552673652E+02  1.250000000E+02  0.00000E+00  9.000E+00
      25     1     1     2     0     0  1.036501368E+01  9.033024774E+00 -5.146568311E+01  1.358776861E+02  1.250000000E+02  0.00000E+00  9.000E+00
      21     1     1     2   502   511  7.827148954E+00 -9.528144772E+00 -3.819511517E+01  4.013622586E+01  4.768371582E-07  0.00000E+00  9.000E+00
#rwgt            1           1   3.9978244803251635E-002           7       96181           0
</event>
<event>
      5   9999  3.79277E-02  2.99247E+01 -1.00000E+00  1.53116E-01
      21    -1     0     0   502   512  0.000000000E+00  0.000000000E+00  5.027723103E+02  5.027723103E+02  0.000000000E+00  0.00000E+00  9.000E+00
      21    -1     0     0   501   502  0.000000000E+00  0.000000000E+00 -1.752303011E+02  1.752303011E+02  0.000000000E+00  0.00000E+00  9.000E+00
      25     1     1     2     0     0  2.589683890E+02 -3.975990105E+01  1.457259592E+02  3.248176895E+02  1.250000000E+02  0.00000E+00  9.000E+00
      25     1     1     2     0     0 -2.315945336E+02  2.767027199E+01  1.336019658E+02  2.964391290E+02  1.250000000E+02  0.00000E+00  9.000E+00
      21     1     1     2   501   512 -2.737385539E+01  1.208962907E+01  4.821408421E+01  5.674579285E+01  0.000000000E+00  0.00000E+00  9.000E+00
#rwgt            1           1   2.8995417229178623E-002           7       96375           0
</event>
<event>
      5   9999 -3.79277E-02  9.12870E+00 -1.00000E+00  2.00448E-01
      21    -1     0     0   511   501  0.000000000E+00  0.000000000E+00  3.528558299E+02  3.528558299E+02  0.000000000E+00  0.00000E+00  9.000E+00
      21    -1     0     0   501   502  0.000000000E+00  0.000000000E+00 -1.185155922E+03  1.185155922E+03  0.000000000E+00  0.00000E+00  9.000E+00
      25     1     1     2     0     0  1.683261520E+02 -5.123916248E+02 -1.362311101E+02  5.701427768E+02  1.250000000E+02  0.00000E+00  9.000E+00
      25     1     1     2     0     0 -1.597423122E+02  5.092850289E+02 -7.411599181E+02  9.218632606E+02  1.250000000E+02  0.00000E+00  9.000E+00
      21     1     1     2   511   502 -8.583839766E+00  3.106595832E+00  4.509093616E+01  4.600571450E+01  6.743495762E-07  0.00000E+00  9.000E+00
#rwgt            1           1 -0.18198629265157201                7       96549           0
</event>
<event>
      5   9999  3.79277E-02  6.09282E+01 -1.00000E+00  1.34348E-01
      21    -1     0     0   502   501  0.000000000E+00  0.000000000E+00  1.443321968E+02  1.443321968E+02  0.000000000E+00  0.00000E+00  9.000E+00
      21    -1     0     0   512   502  0.000000000E+00  0.000000000E+00 -6.564667753E+02  6.564667753E+02  0.000000000E+00  0.00000E+00  9.000E+00
      25     1     1     2     0     0  2.408870822E+02 -3.968530288E+01 -3.308395529E+02  4.297456450E+02  1.250000000E+02  0.00000E+00  9.000E+00
      25     1     1     2     0     0 -2.255918998E+02 -1.929178627E+01 -1.217232485E+02  2.858416126E+02  1.250000000E+02  0.00000E+00  9.000E+00
      21     1     1     2   512   501 -1.529518245E+01  5.897708915E+01 -5.957177712E+01  8.521171445E+01  0.000000000E+00  0.00000E+00  9.000E+00
#rwgt            1           1   3.5991881449361038E-002           7       97061           0
</event>
<event>
      5   9999  3.79277E-02  8.32530E+01 -1.00000E+00  1.27517E-01
      21    -1     0     0   502   501  0.000000000E+00  0.000000000E+00  1.024788384E+02  1.024788384E+02  0.000000000E+00  0.00000E+00  9.000E+00
      21    -1     0     0   511   502  0.000000000E+00  0.000000000E+00 -9.038211593E+02  9.038211593E+02  0.000000000E+00  0.00000E+00  9.000E+00
      25     1     1     2     0     0 -1.565343480E+02 -1.030779023E+01 -4.956922270E+02  5.347382879E+02  1.250000000E+02  0.00000E+00  9.000E+00
      25     1     1     2     0     0  2.380729121E+02  2.711622851E+01 -1.958156564E+02  3.337405768E+02  1.250000000E+02  0.00000E+00  9.000E+00
      21     1     1     2   511   501 -8.153856410E+01 -1.680843828E+01 -1.098344375E+02  1.378211330E+02  1.907348633E-06  0.00000E+00  9.000E+00
#rwgt            1           1   2.6108827338776175E-002           7       97170           0
</event>
<event>
      5   9999  3.79277E-02  8.41633E+01 -1.00000E+00  1.27292E-01
      21    -1     0     0   512   501  0.000000000E+00  0.000000000E+00  3.967428977E+01  3.967428977E+01  0.000000000E+00  0.00000E+00  9.000E+00
      21    -1     0     0   501   502  0.000000000E+00  0.000000000E+00 -2.763714745E+03  2.763714745E+03  0.000000000E+00  0.00000E+00  9.000E+00
      25     1     1     2     0     0 -9.966285463E+01 -2.172519898E+02 -1.187684759E+03  1.217929061E+03  1.250000000E+02  0.00000E+00  9.000E+00
      25     1     1     2     0     0  1.578261155E+02  1.564202466E+02 -1.414940738E+03  1.437726910E+03  1.250000000E+02  0.00000E+00  9.000E+00
      21     1     1     2   512   502 -5.816326084E+01  6.083174320E+01 -1.214149582E+02  1.477330632E+02  3.568322551E-06  0.00000E+00  9.000E+00
#rwgt            1           1   6.5777726695032832E-002           7       97296           0
</event>
<event>
      5   9999  3.79277E-02  8.53581E+01 -1.00000E+00  1.27001E-01
      21    -1     0     0   511   501  0.000000000E+00  0.000000000E+00  1.220343319E+02  1.220343319E+02  0.000000000E+00  0.00000E+00  9.000E+00
      21    -1     0     0   501   502  0.000000000E+00  0.000000000E+00 -1.620304027E+03  1.620304027E+03  0.000000000E+00  0.00000E+00  9.000E+00
      25     1     1     2     0     0  1.015331508E+02  1.056938826E+02 -1.291958695E+03  1.306239812E+03  1.250000000E+02  0.00000E+00  9.000E+00
      25     1     1     2     0     0 -1.786866872E+01 -1.226131423E+02 -2.750227099E+02  3.265206930E+02  1.250000000E+02  0.00000E+00  9.000E+00
      21     1     1     2   511   502 -8.366448211E+01  1.691925970E+01  6.871170988E+01  1.095778536E+02  6.106495130E-06  0.00000E+00  9.000E+00
#rwgt            1           1   5.2861408357880807E-002           7       97426           0
</event>
<event>
      5   9999  3.79277E-02  2.85201E+01 -1.00000E+00  1.54582E-01
      21    -1     0     0   502   501  0.000000000E+00  0.000000000E+00  3.159261097E+02  3.159261097E+02  0.000000000E+00  0.00000E+00  9.000E+00
       2    -1     0     0   501     0  0.000000000E+00  0.000000000E+00 -6.939800166E+02  6.939800166E+02  0.000000000E+00  0.00000E+00  9.000E+00
      25     1     1     2     0     0 -2.478838996E+02 -6.562753425E+01  1.130571959E+02  3.068555531E+02  1.250000000E+02  0.00000E+00  9.000E+00
      25     1     1     2     0     0  2.760243969E+02  7.026519914E+01 -1.240341340E+02  3.348673354E+02  1.250000000E+02  0.00000E+00  9.000E+00
       2     1     1     2   502     0 -2.814049736E+01 -4.637664896E+00 -3.670769689E+02  3.681832378E+02  5.394796609E-06  0.00000E+00  9.000E+00
#rwgt            1           1   4.0593028873072479E-002           7       97499           0
</event>
<event>
      5   9999  3.79277E-02  1.55105E+01 -1.00000E+00  1.76025E-01
      21    -1     0     0   502   501  0.000000000E+00  0.000000000E+00  2.639276592E+02  2.639276592E+02  0.000000000E+00  0.00000E+00  9.000E+00
      21    -1     0     0   501   511  0.000000000E+00  0.000000000E+00 -3.052404339E+02  3.052404339E+02  0.000000000E+00  0.00000E+00  9.000E+00
      25     1     1     2     0     0 -1.137172668E+02  7.573428188E+01 -2.147722371E+02  2.835831660E+02  1.250000000E+02  0.00000E+00  9.000E+00
      25     1     1     2     0     0  1.252130618E+02 -8.614688733E+01  1.818554849E+02  2.679477830E+02  1.250000000E+02  0.00000E+00  9.000E+00
      21     1     1     2   502   511 -1.149579505E+01  1.041260544E+01 -8.396022369E+00  1.763714398E+01  2.665600750E-07  0.00000E+00  9.000E+00
#rwgt            1           1   3.5129919696966834E-002           7       97712           0
</event>
<event>
      5   9999  3.79277E-02  1.85742E+01 -1.00000E+00  1.69064E-01
      21    -1     0     0   502   501  0.000000000E+00  0.000000000E+00  4.562579414E+02  4.562579414E+02  0.000000000E+00  0.00000E+00  9.000E+00
      21    -1     0     0   501   512  0.000000000E+00  0.000000000E+00 -7.744101048E+01  7.744101048E+01  0.000000000E+00  0.00000E+00  9.000E+00
      25     1     1     2     0     0 -1.194081089E+02 -2.525924747E+01  1.304654400E+02  2.180425580E+02  1.250000000E+02  0.00000E+00  9.000E+00
      25     1     1     2     0     0  1.224311430E+02  6.932708803E+00  2.335598498E+02  2.919120598E+02  1.250000000E+02  0.00000E+00  9.000E+00
      21     1     1     2   502   512 -3.023034054E+00  1.832653867E+01  1.479164107E+01  2.374433406E+01  5.331201500E-07  0.00000E+00  9.000E+00
#rwgt            1           1   2.3055501999215352E-002           7       98047           0
</event>
<event>
      5   9999  3.79277E-02  4.60501E+01 -1.00000E+00  1.41146E-01
      21    -1     0     0   511   501  0.000000000E+00  0.000000000E+00  2.882669906E+02  2.882669906E+02  0.000000000E+00  0.00000E+00  9.000E+00
      21    -1     0     0   501   502  0.000000000E+00  0.000000000E+00 -3.033425967E+02  3.033425967E+02  0.000000000E+00  0.00000E+00  9.000E+00
      25     1     1     2     0     0 -1.276010017E+01  6.588330667E+01  1.818432090E+02  2.306412428E+02  1.250000000E+02  0.00000E+00  9.000E+00
      25     1     1     2     0     0 -2.555203222E+01 -4.033346187E+01 -2.543229992E+02  2.873758556E+02  1.250000000E+02  0.00000E+00  9.000E+00
      21     1     1     2   511   502  3.831213239E+01 -2.554984480E+01  5.740418413E+01  7.359248884E+01  0.000000000E+00  0.00000E+00  9.000E+00
#rwgt            1           1   3.7977322342983739E-002           7       98211           0
</event>
<event>
      5   9999  3.79277E-02  1.95287E+01 -1.00000E+00  1.67228E-01
      21    -1     0     0   502   501  0.000000000E+00  0.000000000E+00  1.936062641E+02  1.936062641E+02  0.000000000E+00  0.00000E+00  9.000E+00
      21    -1     0     0   512   502  0.000000000E+00  0.000000000E+00 -1.104578670E+03  1.104578670E+03  0.000000000E+00  0.00000E+00  9.000E+00
      25     1     1     2     0     0  9.141988546E+01  1.417283230E+01  1.495859991E+02  2.157763559E+02  1.250000000E+02  0.00000E+00  9.000E+00
      25     1     1     2     0     0 -1.092946316E+02 -2.203820745E+01 -6.450795547E+02  6.664710279E+02  1.250000000E+02  0.00000E+00  9.000E+00
      21     1     1     2   512   501  1.787474612E+01  7.865375148E+00 -4.154788505E+02  4.159375504E+02  5.394796609E-06  0.00000E+00  9.000E+00
#rwgt            1           1   4.2014736408919007E-002           7       98385           0
</event>
<event>
      5   9999  3.79277E-02  7.49366E+01 -1.00000E+00  1.29739E-01
      21    -1     0     0   511   501  0.000000000E+00  0.000000000E+00  6.147704191E+02  6.147704191E+02  0.000000000E+00  0.00000E+00  9.000E+00
      21    -1     0     0   501   502  0.000000000E+00  0.000000000E+00 -2.210979878E+02  2.210979878E+02  0.000000000E+00  0.00000E+00  9.000E+00
      25     1     1     2     0     0 -2.392606484E+01 -2.224646298E+02  3.645451472E+02  4.456244298E+02  1.250000000E+02  0.00000E+00  9.000E+00
      25     1     1     2     0     0 -1.760219512E+01  1.600876109E+02 -1.104177020E+02  2.318511362E+02  1.250000000E+02  0.00000E+00  9.000E+00
      21     1     1     2   511   502  4.152825995E+01  6.237701891E+01  1.395449862E+02  1.583928409E+02  0.000000000E+00  0.00000E+00  9.000E+00
#rwgt            1           1   4.2391245985918001E-002           7       98591           0
</event>
<event>
      5   9999  3.79277E-02  6.27695E+01 -1.00000E+00  1.33664E-01
      21    -1     0     0   502   512  0.000000000E+00  0.000000000E+00  5.785431299E+02  5.785431299E+02  0.000000000E+00  0.00000E+00  9.000E+00
      21    -1     0     0   501   502  0.000000000E+00  0.000000000E+00 -1.588112051E+02  1.588112051E+02  0.000000000E+00  0.00000E+00  9.000E+00
      25     1     1     2     0     0  2.929200091E+01 -5.082231661E+01 -8.910111210E+01  1.643317905E+02  1.250000000E+02  0.00000E+00  9.000E+00
      25     1     1     2     0     0 -2.084499195E+00  1.073887367E+02  2.063082772E+02  2.640545231E+02  1.250000000E+02  0.00000E+00  9.000E+00
      21     1     1     2   501   512 -2.720750171E+01 -5.656642011E+01  3.025247596E+02  3.089680214E+02  3.814697266E-06  0.00000E+00  9.000E+00
#rwgt            1           1   3.7552194028910760E-002           7       98822           0
</event>
<event>
      5   9999  3.79277E-02  4.15129E+01 -1.00000E+00  1.43847E-01
       2    -1     0     0   502     0  0.000000000E+00  0.000000000E+00  1.512412630E+03  1.512412630E+03  0.000000000E+00  0.00000E+00  9.000E+00
      21    -1     0     0   501   502  0.000000000E+00  0.000000000E+00 -4.806859640E+02  4.806859640E+02  0.000000000E+00  0.00000E+00  9.000E+00
      25     1     1     2     0     0  2.700462117E+02 -7.222592174E+01 -3.346854677E+02  4.536307998E+02  1.250000000E+02  0.00000E+00  9.000E+00
      25     1     1     2     0     0 -2.906518011E+02  3.618797484E+01  2.081155624E+02  3.804275572E+02  1.250000000E+02  0.00000E+00  9.000E+00
       2     1     1     2   501     0  2.060558935E+01  3.603794691E+01  1.158296572E+03  1.159040238E+03  1.525878906E-05  0.00000E+00  9.000E+00
#rwgt            1           1   3.8281038154665617E-002           7       98937           0
</event>
<event>
      5   9999  3.79277E-02  8.75872E+01 -1.00000E+00  1.26473E-01
      21    -1     0     0   502   501  0.000000000E+00  0.000000000E+00  3.398606006E+02  3.398606006E+02  0.000000000E+00  0.00000E+00  9.000E+00
      21    -1     0     0   511   502  0.000000000E+00  0.000000000E+00 -5.036436269E+02  5.036436269E+02  0.000000000E+00  0.00000E+00  9.000E+00
      25     1     1     2     0     0  2.212262445E+02  1.021435394E+02  4.916929896E+01  2.782390589E+02  1.250000000E+02  0.00000E+00  9.000E+00
      25     1     1     2     0     0 -1.652263454E+02 -3.479718078E+01  1.054295921E+02  2.350552869E+02  1.250000000E+02  0.00000E+00  9.000E+00
      21     1     1     2   511   501 -5.599989910E+01 -6.734635864E+01 -3.183819173E+02  3.302098817E+02  5.394796609E-06  0.00000E+00  9.000E+00
#rwgt            1           1   2.9897063011616438E-002           7       99082           0
</event>
<event>
      5   9999  3.79277E-02  4.36515E+01 -1.00000E+00  1.42526E-01
      21    -1     0     0   502   512  0.000000000E+00  0.000000000E+00  2.042843783E+02  2.042843783E+02  0.000000000E+00  0.00000E+00  9.000E+00
      21    -1     0     0   501   502  0.000000000E+00  0.000000000E+00 -3.771470414E+02  3.771470414E+02  0.000000000E+00  0.00000E+00  9.000E+00
      25     1     1     2     0     0 -6.016255986E+01  1.790842713E+01 -2.934727694E+02  3.251023097E+02  1.250000000E+02  0.00000E+00  9.000E+00
      25     1     1     2     0     0  3.019632742E+01  1.383233227E+01  1.364024432E+00  1.293445483E+02  1.250000000E+02  0.00000E+00  9.000E+00
      21     1     1     2   501   512  2.996623244E+01 -3.174075941E+01  1.192460818E+02  1.269845618E+02  1.907348633E-06  0.00000E+00  9.000E+00
#rwgt            1           1   5.0700903820530115E-002           7       99306           0
</event>
<event>
      5   9999  3.79277E-02  3.07527E+02 -1.00000E+00  1.05244E-01
      21    -1     0     0   511   501  0.000000000E+00  0.000000000E+00  5.097566578E+02  5.097566578E+02  0.000000000E+00  0.00000E+00  9.000E+00
      21    -1     0     0   501   502  0.000000000E+00  0.000000000E+00 -3.489787417E+02  3.489787417E+02  0.000000000E+00  0.00000E+00  9.000E+00
      25     1     1     2     0     0  1.926062745E+02  3.483912486E+01 -1.031966386E+02  2.541367502E+02  1.250000000E+02  0.00000E+00  9.000E+00
      25     1     1     2     0     0  8.225933580E+01 -1.727576686E+02  6.247902987E+01  2.369397382E+02  1.250000000E+02  0.00000E+00  9.000E+00
      21     1     1     2   511   502 -2.748656103E+02  1.379185437E+02  2.014955248E+02  3.676589111E+02  0.000000000E+00  0.00000E+00  9.000E+00
#rwgt            1           1   4.5165302025338284E-002           7       99392           0
</event>
<event>
      5   9999  3.79277E-02  9.48616E+01 -1.00000E+00  1.24867E-01
      21    -1     0     0   502   501  0.000000000E+00  0.000000000E+00  2.400224342E+02  2.400224342E+02  0.000000000E+00  0.00000E+00  9.000E+00
      21    -1     0     0   512   502  0.000000000E+00  0.000000000E+00 -2.540052187E+02  2.540052187E+02  0.000000000E+00  0.00000E+00  9.000E+00
      25     1     1     2     0     0 -2.813819954E+00  1.520586643E+02  3.119521243E+01  1.993185798E+02  1.250000000E+02  0.00000E+00  9.000E+00
      25     1     1     2     0     0 -8.161206176E+01 -1.088037030E+02  9.946574303E+00  1.849938073E+02  1.250000000E+02  0.00000E+00  9.000E+00
      21     1     1     2   512   501  8.442588171E+01 -4.325496133E+01 -5.512457121E+01  1.097152657E+02  1.168007728E-06  0.00000E+00  9.000E+00
#rwgt            1           1   4.5222867705594638E-002           7       99439           0
</event>
<event>
      5   9999  3.79277E-02  9.32401E+01 -1.00000E+00  1.25211E-01
      21    -1     0     0   502   501  0.000000000E+00  0.000000000E+00  6.572877008E+02  6.572877008E+02  0.000000000E+00  0.00000E+00  9.000E+00
      21    -1     0     0   511   502  0.000000000E+00  0.000000000E+00 -2.745974336E+02  2.745974336E+02  0.000000000E+00  0.00000E+00  9.000E+00
      25     1     1     2     0     0  1.136455978E+02 -8.562307195E+01  3.580142680E+02  4.050257380E+02  1.250000000E+02  0.00000E+00  9.000E+00
      25     1     1     2     0     0 -3.053227265E+01  1.278828686E+02  2.349512863E+02  2.968389373E+02  1.250000000E+02  0.00000E+00  9.000E+00
      21     1     1     2   511   501 -8.311332511E+01 -4.225979665E+01 -2.102752871E+02  2.300204591E+02  0.000000000E+00  0.00000E+00  9.000E+00
#rwgt            1           1   3.8176502531802513E-002           7       99620           0
</event>
<event>
      5   9999  3.79277E-02  1.97572E+01 -1.00000E+00  1.66808E-01
      21    -1     0     0   502   501  0.000000000E+00  0.000000000E+00  3.708025348E+02  3.708025348E+02  0.000000000E+00  0.00000E+00  9.000E+00
      21    -1     0     0   512   502  0.000000000E+00  0.000000000E+00 -6.773991357E+02  6.773991357E+02  0.000000000E+00  0.00000E+00  9.000E+00
      25     1     1     2     0     0 -2.194026960E+01 -4.801008119E+02 -1.109115237E+02  5.088266218E+02  1.250000000E+02  0.00000E+00  9.000E+00
      25     1     1     2     0     0  3.441254900E+01  4.647779272E+02 -1.839566249E+02  5.163988623E+02  1.250000000E+02  0.00000E+00  9.000E+00
      21     1     1     2   512   501 -1.247227940E+01  1.532288468E+01 -1.172845226E+01  2.297618638E+01  3.371747881E-07  0.00000E+00  9.000E+00
#rwgt            1           1  0.12536474963943595                7       99661           0
</event>
<event>
      5   9999  3.79277E-02  3.10873E+01 -1.00000E+00  1.51974E-01
      21    -1     0     0   511   501  0.000000000E+00  0.000000000E+00  1.724284643E+02  1.724284643E+02  0.000000000E+00  0.00000E+00  9.000E+00
      21    -1     0     0   501   502  0.000000000E+00  0.000000000E+00 -2.872464938E+02  2.872464938E+02  0.000000000E+00  0.00000E+00  9.000E+00
      25     1     1     2     0     0 -1.611032342E+02 -1.334364113E+01 -6.437940363E+01  2.142475495E+02  1.250000000E+02  0.00000E+00  9.000E+00
      25     1     1     2     0     0  1.458014839E+02  4.040428661E+01 -7.038219438E+01  2.084927633E+02  1.250000000E+02  0.00000E+00  9.000E+00
      21     1     1     2   511   502  1.530175037E+01 -2.706064548E+01  1.994356855E+01  3.693464531E+01  4.129530925E-07  0.00000E+00  9.000E+00
#rwgt            1           1   4.3874918016455364E-002           7       99885           0
</event>
<event>
      5   9999  3.79277E-02  1.24789E+01 -1.00000E+00  1.85259E-01
      21    -1     0     0   502   501  0.000000000E+00  0.000000000E+00  5.690540977E+01  5.690540977E+01  0.000000000E+00  0.00000E+00  9.000E+00
      21    -1     0     0   501   512  0.000000000E+00  0.000000000E+00 -1.309493953E+03  1.309493953E+03  0.000000000E+00  0.00000E+00  9.000E+00
      25     1     1     2     0     0 -1.426353347E+02  2.833907223E+01 -1.880498505E+02  2.685808779E+02  1.250000000E+02  0.00000E+00  9.000E+00
      25     1     1     2     0     0  1.550937761E+02 -2.905284468E+01 -5.953185331E+02  6.284324172E+02  1.250000000E+02  0.00000E+00  9.000E+00
      21     1     1     2   502   512 -1.245844142E+01  7.137724496E-01 -4.692201598E+02  4.693860678E+02  5.394796609E-06  0.00000E+00  9.000E+00
#rwgt            1           1   3.5804095797813212E-002           7       99953           0
</event>
<event>
      5   9999  3.79277E-02  1.99988E+01 -1.00000E+00  1.66371E-01
      21    -1     0     0   511   501  0.000000000E+00  0.000000000E+00  2.349919027E+02  2.349919027E+02  0.000000000E+00  0.00000E+00  9.000E+00
      21    -1     0     0   501   502  0.000000000E+00  0.000000000E+00 -1.390692659E+03  1.390692659E+03  0.000000000E+00  0.00000E+00  9.000E+00
      25     1     1     2     0     0  1.153165994E+02 -1.217703909E+02 -1.053765502E+03  1.074324290E+03  1.250000000E+02  0.00000E+00  9.000E+00
      25     1     1     2     0     0 -1.176000067E+02  1.416384338E+02 -2.881528910E+02  3.640718282E+02  1.250000000E+02  0.00000E+00  9.000E+00
      21     1     1     2   511   502  2.283407319E+00 -1.986804287E+01  1.862176365E+02  1.872884439E+02  2.697398305E-06  0.00000E+00  9.000E+00
#rwgt            1           1   4.4781185107348805E-002           7      100211           0
</event>
<event>
      5   9999  3.79277E-02  1.00993E+02 -1.00000E+00  1.23635E-01
      -2    -1     0     0     0   501  0.000000000E+00  0.000000000E+00  9.656553032E+02  9.656553032E+02  0.000000000E+00  0.00000E+00  9.000E+00
      21    -1     0     0   501   502  0.000000000E+00  0.000000000E+00 -4.183870758E+02  4.183870758E+02  0.000000000E+00  0.00000E+00  9.000E+00
      25     1     1     2     0     0  4.033638315E+01 -9.565891222E+01 -3.182696864E+02  3.573489116E+02  1.250000000E+02  0.00000E+00  9.000E+00
      25     1     1     2     0     0 -1.399619128E+02  7.909608678E+01  5.644386655E+01  2.113206995E+02  1.250000000E+02  0.00000E+00  9.000E+00
      -2     1     1     2     0   502  9.962552961E+01  1.656282544E+01  8.090940473E+02  8.153727679E+02  1.525878906E-05  0.00000E+00  9.000E+00
#rwgt            1           1   5.1837474204108440E-002           7      100395           0
</event>
<event>
      5   9999  3.79277E-02  5.10374E+01 -1.00000E+00  1.38569E-01
      21    -1     0     0   502   501  0.000000000E+00  0.000000000E+00  1.054124119E+02  1.054124119E+02  0.000000000E+00  0.00000E+00  9.000E+00
      21    -1     0     0   501   511  0.000000000E+00  0.000000000E+00 -6.430415591E+02  6.430415591E+02  0.000000000E+00  0.00000E+00  9.000E+00
      25     1     1     2     0     0  1.915916147E+02  1.835164204E+01 -2.255287059E+02  3.217643964E+02  1.250000000E+02  0.00000E+00  9.000E+00
      25     1     1     2     0     0 -1.926716666E+02 -6.937759320E+01 -2.581979009E+02  3.524581926E+02  1.250000000E+02  0.00000E+00  9.000E+00
      21     1     1     2   502   511  1.080051879E+00  5.102595116E+01 -5.390254037E+01  7.423138192E+01  6.743495762E-07  0.00000E+00  9.000E+00
#rwgt            1           1   3.7942892418456435E-002           7      100489           0
</event>
<event>
      5   9999  3.79277E-02  1.89404E+01 -1.00000E+00  1.68344E-01
      21    -1     0     0   502   501  0.000000000E+00  0.000000000E+00  3.482759959E+02  3.482759959E+02  0.000000000E+00  0.00000E+00  9.000E+00
      21    -1     0     0   512   502  0.000000000E+00  0.000000000E+00 -1.371861643E+02  1.371861643E+02  0.000000000E+00  0.00000E+00  9.000E+00
      25     1     1     2     0     0  5.743094665E+01  8.877892096E+01  2.371174302E+02  2.881487222E+02  1.250000000E+02  0.00000E+00  9.000E+00
      25     1     1     2     0     0 -7.532220439E+01 -9.499524285E+01 -3.280533400E+01  1.771968413E+02  1.250000000E+02  0.00000E+00  9.000E+00
      21     1     1     2   512   501  1.789125774E+01  6.216321886E+00  6.777735487E+00  2.011659662E+01  3.264680848E-07  0.00000E+00  9.000E+00
#rwgt            1           1   3.9223630355538969E-002           7      100620           0
</event>
<event>
      5   9999  4.09925E-02  2.76772E+01 -1.00000E+00  1.55511E-01
      21    -1     0     0   511   501  0.000000000E+00  0.000000000E+00  1.248073148E+02  1.248073148E+02  0.000000000E+00  0.00000E+00  9.000E+00
      21    -1     0     0   501   502  0.000000000E+00  0.000000000E+00 -5.792745875E+02  5.792745875E+02  0.000000000E+00  0.00000E+00  9.000E+00
      25     1     1     2     0     0 -4.470963301E+01 -2.046069568E+02 -3.498556882E+02  4.264820754E+02  1.250000000E+02  0.00000E+00  9.000E+00
      25     1     1     2     0     0  3.365786444E+01  1.792320251E+02 -1.135082566E+02  2.485278555E+02  1.250000000E+02  0.00000E+00  9.000E+00
      21     1     1     2   511   502  1.105176857E+01  2.537493172E+01  8.896672117E+00  2.907197144E+01  2.384185791E-07  0.00000E+00  9.000E+00
#rwgt            1           1  0.35732167841200663                7      101006           0
</event>
<event>
      5   9999  3.79277E-02  1.16143E+02 -1.00000E+00  1.20974E-01
      21    -1     0     0   502   512  0.000000000E+00  0.000000000E+00  3.369938902E+02  3.369938902E+02  0.000000000E+00  0.00000E+00  9.000E+00
      21    -1     0     0   501   502  0.000000000E+00  0.000000000E+00 -3.717105281E+02  3.717105281E+02  0.000000000E+00  0.00000E+00  9.000E+00
      25     1     1     2     0     0 -3.758655364E+01 -2.655152280E+02 -1.143623087E+01  2.960859211E+02  1.250000000E+02  0.00000E+00  9.000E+00
      25     1     1     2     0     0  1.183540973E+02  1.820542258E+02 -1.038961492E+02  2.712394575E+02  1.250000000E+02  0.00000E+00  9.000E+00
      21     1     1     2   501   512 -8.076754365E+01  8.346100219E+01  8.061574206E+01  1.413790397E+02  9.536743164E-07  0.00000E+00  9.000E+00
#rwgt            1           1   4.9088663675768078E-002           7      101112           0
</event>
<event>
      5   9999  3.79277E-02  5.25320E+01 -1.00000E+00  1.37862E-01
      21    -1     0     0   511   501  0.000000000E+00  0.000000000E+00  2.710206468E+03  2.710206468E+03  0.000000000E+00  0.00000E+00  9.000E+00
      21    -1     0     0   501   502  0.000000000E+00  0.000000000E+00 -8.660538242E+02  8.660538242E+02  0.000000000E+00  0.00000E+00  9.000E+00
      25     1     1     2     0     0 -1.591342978E+01  3.081784960E+02 -2.643105784E+02  4.251026988E+02  1.250000000E+02  0.00000E+00  9.000E+00
      25     1     1     2     0     0 -2.463893448E+01 -2.747851038E+02 -4.770665713E+02  5.650941902E+02  1.250000000E+02  0.00000E+00  9.000E+00
      21     1     1     2   511   502  4.055236426E+01 -3.339339224E+01  2.585529793E+03  2.586063403E+03  3.051757812E-05  0.00000E+00  9.000E+00
#rwgt            1           1  0.26472324719652213                7      101234           0
</event>
<event>
      5   9999  3.79277E-02  3.14203E+01 -1.00000E+00  1.51658E-01
      21    -1     0     0   502   512  0.000000000E+00  0.000000000E+00  2.103714020E+02  2.103714020E+02  0.000000000E+00  0.00000E+00  9.000E+00
      21    -1     0     0   501   502  0.000000000E+00  0.000000000E+00 -2.222195388E+02  2.222195388E+02  0.000000000E+00  0.00000E+00  9.000E+00
      25     1     1     2     0     0 -1.225187720E+02 -5.548349003E+01  3.514249808E+01  1.869472180E+02  1.250000000E+02  0.00000E+00  9.000E+00
      25     1     1     2     0     0  1.512269766E+02  6.825346140E+01 -5.118066920E+01  2.139453069E+02  1.250000000E+02  0.00000E+00  9.000E+00
      21     1     1     2   501   512 -2.870820461E+01 -1.276997137E+01  4.190034383E+00  3.169841588E+01  3.908537939E-07  0.00000E+00  9.000E+00
#rwgt            1           1   3.1463627749791362E-002           7      101390           0
</event>
<event>
      5   9999  3.79277E-02  1.17415E+02 -1.00000E+00  1.20771E-01
      21    -1     0     0   502   511  0.000000000E+00  0.000000000E+00  6.585658032E+02  6.585658032E+02  0.000000000E+00  0.00000E+00  9.000E+00
      21    -1     0     0   501   502  0.000000000E+00  0.000000000E+00 -2.608792310E+02  2.608792310E+02  0.000000000E+00  0.00000E+00  9.000E+00
      25     1     1     2     0     0 -2.206611899E+02 -2.241928395E+02  1.509152226E+02  3.706132680E+02  1.250000000E+02  0.00000E+00  9.000E+00
      25     1     1     2     0     0  3.103104679E+02  1.483686351E+02  1.456851707E+02  3.938972040E+02  1.250000000E+02  0.00000E+00  9.000E+00
      21     1     1     2   501   511 -8.964927802E+01  7.582420438E+01  1.010861788E+02  1.549345622E+02  1.907348633E-06  0.00000E+00  9.000E+00
#rwgt            1           1   4.2434322034908066E-002           7      101592           0
</event>
<event>
      5   9999  3.79277E-02  1.37620E+01 -1.00000E+00  1.80982E-01
      21    -1     0     0   502   512  0.000000000E+00  0.000000000E+00  5.798582218E+02  5.798582218E+02  0.000000000E+00  0.00000E+00  9.000E+00
      21    -1     0     0   501   502  0.000000000E+00  0.000000000E+00 -7.678255311E+01  7.678255311E+01  0.000000000E+00  0.00000E+00  9.000E+00
      25     1     1     2     0     0  9.160205941E+01  9.345364610E+01  2.781377641E+02  3.318284754E+02  1.250000000E+02  0.00000E+00  9.000E+00
      25     1     1     2     0     0 -1.053187161E+02 -9.233682882E+01  1.287370182E+02  2.276320315E+02  1.250000000E+02  0.00000E+00  9.000E+00
      21     1     1     2   501   512  1.371665666E+01 -1.116817277E+00  9.620088635E+01  9.718026798E+01  0.000000000E+00  0.00000E+00  9.000E+00
#rwgt            1           1   3.8864180333851521E-002           7      101769           0
</event>
<event>
      5   9999  3.79277E-02  3.29001E+01 -1.00000E+00  1.50307E-01
      21    -1     0     0   502   511  0.000000000E+00  0.000000000E+00  3.174365704E+02  3.174365704E+02  0.000000000E+00  0.00000E+00  9.000E+00
      21    -1     0     0   501   502  0.000000000E+00  0.000000000E+00 -1.740968911E+03  1.740968911E+03  0.000000000E+00  0.00000E+00  9.000E+00
      25     1     1     2     0     0 -3.295577043E+01 -1.621001933E+02 -1.175234900E+03  1.193383688E+03  1.250000000E+02  0.00000E+00  9.000E+00
      25     1     1     2     0     0  1.559287316E+01  1.341548115E+02 -5.405018755E+02  5.709710401E+02  1.250000000E+02  0.00000E+00  9.000E+00
      21     1     1     2   501   511  1.736289727E+01  2.794538183E+01  2.922044345E+02  2.940507543E+02  1.009274029E-05  0.00000E+00  9.000E+00
#rwgt            1           1   3.4041995587197754E-002           7      101979           0
</event>
<event>
      5   9999  3.79277E-02  2.39493E+01 -1.00000E+00  1.60160E-01
      21    -1     0     0   502   501  0.000000000E+00  0.000000000E+00  2.479261637E+02  2.479261637E+02  0.000000000E+00  0.00000E+00  9.000E+00
      21    -1     0     0   501   512  0.000000000E+00  0.000000000E+00 -1.704039735E+02  1.704039735E+02  0.000000000E+00  0.00000E+00  9.000E+00
      25     1     1     2     0     0 -1.179236514E+01 -7.366669115E+01 -8.535424117E+01  1.687488896E+02  1.250000000E+02  0.00000E+00  9.000E+00
      25     1     1     2     0     0  2.890806527E+01  9.041849798E+01  1.620725020E+02  2.256184321E+02  1.250000000E+02  0.00000E+00  9.000E+00
      21     1     1     2   502   512 -1.711570013E+01 -1.675180683E+01  8.039293425E-01  2.396281547E+01  2.952160352E-07  0.00000E+00  9.000E+00
#rwgt            1           1   5.2037225206062285E-002           7      102068           0
</event>
<event>
      5   9999  3.79277E-02  6.07869E+01 -1.00000E+00  1.34402E-01
      21    -1     0     0   502   501  0.000000000E+00  0.000000000E+00  2.055842666E+02  2.055842666E+02  0.000000000E+00  0.00000E+00  9.000E+00
       2    -1     0     0   501     0  0.000000000E+00  0.000000000E+00 -1.611943066E+03  1.611943066E+03  0.000000000E+00  0.00000E+00  9.000E+00
      25     1     1     2     0     0  1.472802902E+02  1.741742101E+02  1.043023721E+02  2.802358367E+02  1.250000000E+02  0.00000E+00  9.000E+00
      25     1     1     2     0     0 -1.187874529E+02 -1.204787355E+02 -9.319148038E+02  9.553615997E+02  1.250000000E+02  0.00000E+00  9.000E+00
       2     1     1     2   502     0 -2.849283726E+01 -5.369547462E+01 -5.787463674E+02  5.819298958E+02  1.321449896E-05  0.00000E+00  9.000E+00
#rwgt            1           1  0.11828212915775112                7      102268           0
</event>
<event>
      5   9999  3.79277E-02  3.94585E+01 -1.00000E+00  1.45208E-01
      21    -1     0     0   502   501  0.000000000E+00  0.000000000E+00  4.062640685E+02  4.062640685E+02  0.000000000E+00  0.00000E+00  9.000E+00
      21    -1     0     0   501   511  0.000000000E+00  0.000000000E+00 -2.605995277E+02  2.605995277E+02  0.000000000E+00  0.00000E+00  9.000E+00
      25     1     1     2     0     0  2.440678858E+02 -6.890958625E+00  1.169192642E+01  2.745511233E+02  1.250000000E+02  0.00000E+00  9.000E+00
      25     1     1     2     0     0 -2.793970919E+02  2.446427133E+01  1.587999853E+02  3.456930298E+02  1.250000000E+02  0.00000E+00  9.000E+00
      21     1     1     2   502   511  3.532920612E+01 -1.757331270E+01 -2.482737089E+01  4.661944305E+01  8.920806376E-07  0.00000E+00  9.000E+00
#rwgt            1           1   4.4919507939964548E-002           7      102390           0
</event>
<event>
      5   9999  3.79277E-02  2.12896E+01 -1.00000E+00  1.64161E-01
      21    -1     0     0   512   501  0.000000000E+00  0.000000000E+00  7.056242178E+02  7.056242178E+02  0.000000000E+00  0.00000E+00  9.000E+00
      21    -1     0     0   501   502  0.000000000E+00  0.000000000E+00 -5.806682885E+01  5.806682885E+01  0.000000000E+00  0.00000E+00  9.000E+00
      25     1     1     2     0     0 -3.426167454E+01  3.066357017E+01  4.897615068E+01  1.419076468E+02  1.250000000E+02  0.00000E+00  9.000E+00
      25     1     1     2     0     0  5.408763259E+01 -3.842116242E+01  5.611700891E+02  5.787387378E+02  1.250000000E+02  0.00000E+00  9.000E+00
      21     1     1     2   512   502 -1.982595805E+01  7.757592249E+00  3.741114910E+01  4.304466200E+01  4.768371582E-07  0.00000E+00  9.000E+00
#rwgt            1           1   4.0776134211493953E-002           7      102516           0
</event>
<event>
      5   9999  3.79277E-02  6.89661E+01 -1.00000E+00  1.31549E-01
      21    -1     0     0   502   501  0.000000000E+00  0.000000000E+00  8.962345664E+02  8.962345664E+02  0.000000000E+00  0.00000E+00  9.000E+00
      21    -1     0     0   501   511  0.000000000E+00  0.000000000E+00 -1.133356355E+02  1.133356355E+02  0.000000000E+00  0.00000E+00  9.000E+00
      25     1     1     2     0     0  1.629896034E+02  4.219937033E+01  7.057539724E+02  7.362472867E+02  1.250000000E+02  0.00000E+00  9.000E+00
      25     1     1     2     0     0 -9.493341792E+01 -5.336559262E+01  1.079030320E+02  1.978087577E+02  1.250000000E+02  0.00000E+00  9.000E+00
      21     1     1     2   502   511 -6.805618545E+01  1.116622229E+01 -3.075807346E+01  7.551415749E+01  1.719260824E-06  0.00000E+00  9.000E+00
#rwgt            2          11   1.3806418348738031E-003           7      102806           0
</event>
<event>
      5   9999  3.79277E-02  9.69846E+01 -1.00000E+00  1.24429E-01
      21    -1     0     0   502   501  0.000000000E+00  0.000000000E+00  2.345754966E+02  2.345754966E+02  0.000000000E+00  0.00000E+00  9.000E+00
      21    -1     0     0   512   502  0.000000000E+00  0.000000000E+00 -2.800428042E+02  2.800428042E+02  0.000000000E+00  0.00000E+00  9.000E+00
      25     1     1     2     0     0  8.567548745E+01  9.964232697E+01  5.851872338E+00  1.814610892E+02  1.250000000E+02  0.00000E+00  9.000E+00
      25     1     1     2     0     0 -1.799378145E+02 -7.682515978E+01 -3.442430611E+01  2.347120686E+02  1.250000000E+02  0.00000E+00  9.000E+00
      21     1     1     2   512   501  9.426232710E+01 -2.281716720E+01 -1.689487377E+01  9.844514305E+01  7.907449699E-07  0.00000E+00  9.000E+00
#rwgt            1           1   3.5339363309349198E-002           7      102886           0
</event>
<event>
      5   9999  3.79277E-02  7.45731E+01 -1.00000E+00  1.29844E-01
      21    -1     0     0   502   501  0.000000000E+00  0.000000000E+00  5.858705231E+02  5.858705231E+02  0.000000000E+00  0.00000E+00  9.000E+00
      21    -1     0     0   501   511  0.000000000E+00  0.000000000E+00 -2.303911455E+02  2.303911455E+02  0.000000000E+00  0.00000E+00  9.000E+00
      25     1     1     2     0     0 -1.447292793E+01 -1.831313783E+02  3.803161917E+02  4.404679024E+02  1.250000000E+02  0.00000E+00  9.000E+00
      25     1     1     2     0     0 -4.874086737E+01  2.226935003E+02  5.585585466E+01  2.659190549E+02  1.250000000E+02  0.00000E+00  9.000E+00
      21     1     1     2   502   511  6.321379530E+01 -3.956212204E+01 -8.069266869E+01  1.098747114E+02  9.536743164E-07  0.00000E+00  9.000E+00
#rwgt            1           1   3.1202268079571743E-002           7      102964           0
</event>
<event>
      5   9999  3.79277E-02  2.50507E+02 -1.00000E+00  1.08200E-01
      21    -1     0     0   502   501  0.000000000E+00  0.000000000E+00  9.145255718E+02  9.145255718E+02  0.000000000E+00  0.00000E+00  9.000E+00
      -2    -1     0     0     0   502  0.000000000E+00  0.000000000E+00 -3.640321399E+02  3.640321399E+02  0.000000000E+00  0.00000E+00  9.000E+00
      25     1     1     2     0     0 -1.648095961E+02  3.418053256E+02  6.703672499E+02  7.803911413E+02  1.250000000E+02  0.00000E+00  9.000E+00
      25     1     1     2     0     0  1.738196300E+02 -9.146080710E+01 -5.047657454E+01  2.382251616E+02  1.250000000E+02  0.00000E+00  9.000E+00
      -2     1     1     2     0   501 -9.010033924E+00 -2.503445185E+02 -6.939724346E+01  2.599414089E+02  2.132480600E-06  0.00000E+00  9.000E+00
#rwgt            1           1   3.5815495854856529E-002           7      103046           0
</event>
<event>
      5   9999  3.79277E-02  2.52112E+01 -1.00000E+00  1.58478E-01
      21    -1     0     0   502   501  0.000000000E+00  0.000000000E+00  4.598781776E+02  4.598781776E+02  0.000000000E+00  0.00000E+00  9.000E+00
      21    -1     0     0   511   502  0.000000000E+00  0.000000000E+00 -9.671031852E+01  9.671031852E+01  0.000000000E+00  0.00000E+00  9.000E+00
      25     1     1     2     0     0 -4.885236049E+01 -1.086677922E+02  3.061254531E+02  3.514726664E+02  1.250000000E+02  0.00000E+00  9.000E+00
      25     1     1     2     0     0  6.962768257E+01  9.438529966E+01  5.403533667E+01  1.797259485E+02  1.250000000E+02  0.00000E+00  9.000E+00
      21     1     1     2   511   501 -2.077532208E+01  1.428249255E+01  3.007069314E+00  2.538988119E+01  8.429369702E-08  0.00000E+00  9.000E+00
#rwgt            1           1   3.5219761337947172E-002           7      103273           0
</event>
<event>
      5   9999  3.79277E-02  7.65771E+01 -1.00000E+00  1.29275E-01
      21    -1     0     0   512   501  0.000000000E+00  0.000000000E+00  4.709415374E+01  4.709415374E+01  0.000000000E+00  0.00000E+00  9.000E+00
      21    -1     0     0   501   502  0.000000000E+00  0.000000000E+00 -1.303212907E+03  1.303212907E+03  0.000000000E+00  0.00000E+00  9.000E+00
      25     1     1     2     0     0 -1.077771448E+02 -8.171046556E+01 -6.189953425E+02  6.458116964E+02  1.250000000E+02  0.00000E+00  9.000E+00
      25     1     1     2     0     0  9.840525217E+01  1.577119135E+02 -4.806481881E+02  5.302870185E+02  1.250000000E+02  0.00000E+00  9.000E+00
      21     1     1     2   512   502  9.371892591E+00 -7.600144791E+01 -1.564752227E+02  1.742083459E+02  3.814697266E-06  0.00000E+00  9.000E+00
#rwgt            1           1   3.2197790704992971E-002           7      103444           0
</event>
<event>
      5   9999  3.79277E-02  2.97477E+01 -1.00000E+00  1.53295E-01
      21    -1     0     0   502   501  0.000000000E+00  0.000000000E+00  1.494692890E+02  1.494692890E+02  0.000000000E+00  0.00000E+00  9.000E+00
      21    -1     0     0   511   502  0.000000000E+00  0.000000000E+00 -2.946437694E+02  2.946437694E+02  0.000000000E+00  0.00000E+00  9.000E+00
      25     1     1     2     0     0  1.618501557E+01  1.547853371E+01 -1.778749066E+02  2.185543917E+02  1.250000000E+02  0.00000E+00  9.000E+00
      25     1     1     2     0     0 -3.662462811E+01 -3.709217458E+01  8.887712843E+01  1.619917799E+02  1.250000000E+02  0.00000E+00  9.000E+00
      21     1     1     2   511   501  2.043961254E+01  2.161364087E+01 -5.617670220E+01  6.356688684E+01  1.348699152E-06  0.00000E+00  9.000E+00
#rwgt            1           1   4.5309248296224000E-002           7      103508           0
</event>
<event>
      5   9999  3.79277E-02  7.51979E+01 -1.00000E+00  1.29664E-01
      21    -1     0     0   502   501  0.000000000E+00  0.000000000E+00  1.597351355E+02  1.597351355E+02  0.000000000E+00  0.00000E+00  9.000E+00
      21    -1     0     0   512   502  0.000000000E+00  0.000000000E+00 -4.277764521E+02  4.277764521E+02  0.000000000E+00  0.00000E+00  9.000E+00
      25     1     1     2     0     0  5.037986434E+01 -1.340923250E+02  4.912272866E+00  1.901788968E+02  1.250000000E+02  0.00000E+00  9.000E+00
      25     1     1     2     0     0  1.580207070E+01  1.697949247E+02 -1.792931076E+02  2.772202018E+02  1.250000000E+02  0.00000E+00  9.000E+00
      21     1     1     2   512   501 -6.618193504E+01 -3.570259971E+01 -9.366048191E+01  1.201124890E+02  1.348699152E-06  0.00000E+00  9.000E+00
#rwgt            1           1   6.1383618369980721E-002           7      103716           0
</event>
<event>
      5   9999  3.79277E-02  4.41446E+01 -1.00000E+00  1.42234E-01
      21    -1     0     0   502   511  0.000000000E+00  0.000000000E+00  2.391861195E+02  2.391861195E+02  0.000000000E+00  0.00000E+00  9.000E+00
      21    -1     0     0   501   502  0.000000000E+00  0.000000000E+00 -2.709626169E+02  2.709626169E+02  0.000000000E+00  0.00000E+00  9.000E+00
      25     1     1     2     0     0 -1.775289310E+02  2.981271408E+01 -3.135281004E+01  2.213895164E+02  1.250000000E+02  0.00000E+00  9.000E+00
      25     1     1     2     0     0  2.085590784E+02  1.585923056E+00 -1.086097839E+01  2.433975456E+02  1.250000000E+02  0.00000E+00  9.000E+00
      21     1     1     2   501   511 -3.103014741E+01 -3.139863714E+01  1.043729106E+01  4.536167443E+01  4.616955931E-07  0.00000E+00  9.000E+00
#rwgt            1           1   4.0939170985305862E-002           7      103922           0
</event>
<event>
      5   9999  3.79277E-02  2.81215E+02 -1.00000E+00  1.06513E-01
      21    -1     0     0   502   512  0.000000000E+00  0.000000000E+00  1.359772234E+02  1.359772234E+02  0.000000000E+00  0.00000E+00  9.000E+00
      21    -1     0     0   501   502  0.000000000E+00  0.000000000E+00 -1.979610038E+03  1.979610038E+03  0.000000000E+00  0.00000E+00  9.000E+00
      25     1     1     2     0     0 -6.476444729E+01 -1.899487930E+02 -1.543527307E+03  1.561530187E+03  1.250000000E+02  0.00000E+00  9.000E+00
      25     1     1     2     0     0 -1.286902625E+02 -1.415258305E+01 -1.555152832E+02  2.378476037E+02  1.250000000E+02  0.00000E+00  9.000E+00
      21     1     1     2   501   512  1.934547098E+02  2.041013760E+02 -1.445902244E+02  3.162094708E+02  6.877043296E-06  0.00000E+00  9.000E+00
#rwgt            1           1   3.3751762532155824E-002           7      104113           0
</event>
<event>
      5   9999  3.79277E-02  6.88677E+00 -1.00000E+00  2.16560E-01
      21    -1     0     0   502   501  0.000000000E+00  0.000000000E+00  3.094156715E+02  3.094156715E+02  0.000000000E+00  0.00000E+00  9.000E+00
      21    -1     0     0   511   502  0.000000000E+00  0.000000000E+00 -2.416785021E+02  2.416785021E+02  0.000000000E+00  0.00000E+00  9.000E+00
      25     1     1     2     0     0 -1.456657229E+01  8.260673784E+00 -7.980636421E+01  1.492463719E+02  1.250000000E+02  0.00000E+00  9.000E+00
      25     1     1     2     0     0  9.679329013E+00 -1.311273728E+01  2.601228688E+02  2.890580221E+02  1.250000000E+02  0.00000E+00  9.000E+00
      21     1     1     2   511   501  4.887243278E+00  4.852063500E+00 -1.125793352E+02  1.127897796E+02  0.000000000E+00  0.00000E+00  9.000E+00
#rwgt            1           1   3.6302768681685638E-002           7      104161           0
</event>
<event>
      5   9999  3.79277E-02  1.19714E+02 -1.00000E+00  1.20412E-01
       2    -1     0     0   502     0  0.000000000E+00  0.000000000E+00  1.872372308E+03  1.872372308E+03  0.000000000E+00  0.00000E+00  9.000E+00
      21    -1     0     0   501   502  0.000000000E+00  0.000000000E+00 -1.159007385E+02  1.159007385E+02  0.000000000E+00  0.00000E+00  9.000E+00
      25     1     1     2     0     0 -1.034366298E+01  9.014638341E+01  2.608771249E+01  1.566490681E+02  1.250000000E+02  0.00000E+00  9.000E+00
      25     1     1     2     0     0  1.191404069E+02 -1.400935104E+02  2.078155572E+02  3.043565902E+02  1.250000000E+02  0.00000E+00  9.000E+00
       2     1     1     2   501     0 -1.087967439E+02  4.994712700E+01  1.522568300E+03  1.527267388E+03  0.000000000E+00  0.00000E+00  9.000E+00
#rwgt            1           1   4.0464271486061403E-002           7      104438           0
</event>
<event>
      5   9999  3.79277E-02  9.25087E+00 -1.00000E+00  1.99749E-01
      21    -1     0     0   502   501  0.000000000E+00  0.000000000E+00  8.144600122E+02  8.144600122E+02  0.000000000E+00  0.00000E+00  9.000E+00
      21    -1     0     0   501   511  0.000000000E+00  0.000000000E+00 -1.229601798E+02  1.229601798E+02  0.000000000E+00  0.00000E+00  9.000E+00
      25     1     1     2     0     0 -4.355950624E+01 -1.846388792E+02  4.850930437E+02  5.356577334E+02  1.250000000E+02  0.00000E+00  9.000E+00
      25     1     1     2     0     0  4.934029400E+01  1.918611458E+02  2.585056942E+02  3.488486173E+02  1.250000000E+02  0.00000E+00  9.000E+00
      21     1     1     2   502   511 -5.780787761E+00 -7.222266515E+00 -5.209890548E+01  5.291384123E+01  9.536743164E-07  0.00000E+00  9.000E+00
#rwgt            1           1  0.22478592815491621                7      104671           0
</event>
<event>
      5   9999  3.79277E-02  5.64469E+01 -1.00000E+00  1.36136E-01
      21    -1     0     0   502   501  0.000000000E+00  0.000000000E+00  5.997536757E+02  5.997536757E+02  0.000000000E+00  0.00000E+00  9.000E+00
      21    -1     0     0   501   512  0.000000000E+00  0.000000000E+00 -2.575380038E+02  2.575380038E+02  0.000000000E+00  0.00000E+00  9.000E+00
      25     1     1     2     0     0 -1.289110267E+02 -2.189208840E+02  8.614081696E+01  2.959554808E+02  1.250000000E+02  0.00000E+00  9.000E+00
      25     1     1     2     0     0  1.631048835E+02  1.740095315E+02  3.561216486E+02  4.464640508E+02  1.250000000E+02  0.00000E+00  9.000E+00
      21     1     1     2   502   512 -3.419385685E+01  4.491135253E+01 -1.000467936E+02  1.148721478E+02  1.907348633E-06  0.00000E+00  9.000E+00
#rwgt            1           1   3.1833058994353333E-002           7      105035           0
</event>
<event>
      5   9999  3.79277E-02  3.89276E+01 -1.00000E+00  1.45576E-01
      21    -1     0     0   502   501  0.000000000E+00  0.000000000E+00  6.028021390E+02  6.028021390E+02  0.000000000E+00  0.00000E+00  9.000E+00
      21    -1     0     0   501   511  0.000000000E+00  0.000000000E+00 -1.257804107E+02  1.257804107E+02  0.000000000E+00  0.00000E+00  9.000E+00
      25     1     1     2     0     0 -5.164239729E+01 -1.858564593E+02  4.014977570E+02  4.626391786E+02  1.250000000E+02  0.00000E+00  9.000E+00
      25     1     1     2     0     0  7.394470776E+01  1.539508971E+02  4.475869102E+01  2.163262326E+02  1.250000000E+02  0.00000E+00  9.000E+00
      21     1     1     2   502   511 -2.230231048E+01  3.190556227E+01  3.076528035E+01  4.961713848E+01  1.011524364E-06  0.00000E+00  9.000E+00
#rwgt            1           1   3.5516059158653433E-002           7      105129           0
</event>
<event>
      5   9999  3.79277E-02  6.98850E+01 -1.00000E+00  1.31257E-01
      21    -1     0     0   512   501  0.000000000E+00  0.000000000E+00  7.319153755E+02  7.319153755E+02  0.000000000E+00  0.00000E+00  9.000E+00
      21    -1     0     0   501   502  0.000000000E+00  0.000000000E+00 -2.143701810E+02  2.143701810E+02  0.000000000E+00  0.00000E+00  9.000E+00
      25     1     1     2     0     0  5.857446695E+01  2.167896097E+02  1.201853541E+02  2.837220866E+02  1.250000000E+02  0.00000E+00  9.000E+00
      25     1     1     2     0     0 -1.239888857E+02 -2.413837632E+02  4.356311781E+01  3.019306380E+02  1.250000000E+02  0.00000E+00  9.000E+00
      21     1     1     2   512   502  6.541441878E+01  2.459415348E+01  3.537967226E+02  3.606328319E+02  3.814697266E-06  0.00000E+00  9.000E+00
#rwgt            1           1   3.3207634657907624E-002           7      105205           0
</event>
<event>
      5   9999  3.79277E-02  1.98910E+02 -1.00000E+00  1.11735E-01
      21    -1     0     0   511   501  0.000000000E+00  0.000000000E+00  2.288887937E+02  2.288887937E+02  0.000000000E+00  0.00000E+00  9.000E+00
      21    -1     0     0   501   502  0.000000000E+00  0.000000000E+00 -6.272616854E+02  6.272616854E+02  0.000000000E+00  0.00000E+00  9.000E+00
      25     1     1     2     0     0 -1.642351971E+01 -6.741430533E+01 -2.394289891E+02  2.788649519E+02  1.250000000E+02  0.00000E+00  9.000E+00
      25     1     1     2     0     0 -7.262555905E+01  2.452779547E+02 -2.300604566E+02  3.660444790E+02  1.250000000E+02  0.00000E+00  9.000E+00
      21     1     1     2   511   502  8.904907876E+01 -1.778636493E+02  7.111655401E+01  2.112410482E+02  9.536743164E-07  0.00000E+00  9.000E+00
#rwgt            1           1   2.7533900386251094E-002           7      105285           0
</event>
<event>
      5   9999  3.79277E-02  4.09232E+01 -1.00000E+00  1.44228E-01
      21    -1     0     0   502   512  0.000000000E+00  0.000000000E+00  3.627618169E+02  3.627618169E+02  0.000000000E+00  0.00000E+00  9.000E+00
      21    -1     0     0   501   502  0.000000000E+00  0.000000000E+00 -4.048970130E+02  4.048970130E+02  0.000000000E+00  0.00000E+00  9.000E+00
      25     1     1     2     0     0  1.198900163E+02 -8.262413130E+01 -2.255698286E+02  2.961538631E+02  1.250000000E+02  0.00000E+00  9.000E+00
      25     1     1     2     0     0 -1.083329675E+02  4.336669796E+01 -9.122485490E+01  1.938135095E+02  1.250000000E+02  0.00000E+00  9.000E+00
      21     1     1     2   501   512 -1.155704884E+01  3.925743334E+01  2.746594874E+02  2.776914573E+02  3.814697266E-06  0.00000E+00  9.000E+00
#rwgt            1           1   3.4486806152090752E-002           7      105334           0
</event>
<event>
      5   9999  3.79277E-02  1.14436E+02 -1.00000E+00  1.21250E-01
      21    -1     0     0   511   501  0.000000000E+00  0.000000000E+00  2.743787004E+02  2.743787004E+02  0.000000000E+00  0.00000E+00  9.000E+00
      21    -1     0     0   501   502  0.000000000E+00  0.000000000E+00 -3.758385549E+02  3.758385549E+02  0.000000000E+00  0.00000E+00  9.000E+00
      25     1     1     2     0     0 -7.619398031E+01  1.378881403E+02 -1.249484924E+02  2.367610348E+02  1.250000000E+02  0.00000E+00  9.000E+00
      25     1     1     2     0     0  7.428263646E+01 -2.346765812E+01 -1.470190632E+02  2.081063334E+02  1.250000000E+02  0.00000E+00  9.000E+00
      21     1     1     2   511   502  1.911343857E+00 -1.144204822E+02  1.705077010E+02  2.053498870E+02  0.000000000E+00  0.00000E+00  9.000E+00
#rwgt            2          11   1.9858447660123222E-003           7      105515           0
</event>
<event>
      5   9999 -3.79277E-02  1.45015E+02 -1.00000E+00  1.16978E-01
      21    -1     0     0   502   512  0.000000000E+00  0.000000000E+00  8.699146076E+02  8.699146076E+02  0.000000000E+00  0.00000E+00  9.000E+00
      21    -1     0     0   501   502  0.000000000E+00  0.000000000E+00 -1.206978791E+02  1.206978791E+02  0.000000000E+00  0.00000E+00  9.000E+00
      25     1     1     2     0     0 -9.948229866E+01  1.764654582E+02  5.061348279E+02  5.593158765E+02  1.250000000E+02  0.00000E+00  9.000E+00
      25     1     1     2     0     0  1.420542269E+01 -5.917384436E+01 -1.024077890E+01  1.394030539E+02  1.250000000E+02  0.00000E+00  9.000E+00
      21     1     1     2   501   512  8.527687597E+01 -1.172916139E+02  2.533226795E+02  2.918935563E+02  3.814697266E-06  0.00000E+00  9.000E+00
#rwgt            1           1 -0.16429796242960293                7      105610           0
</event>
<event>
      5   9999  3.79277E-02  1.54750E+02 -1.00000E+00  1.15860E-01
      21    -1     0     0   502   511  0.000000000E+00  0.000000000E+00  3.941837140E+02  3.941837140E+02  0.000000000E+00  0.00000E+00  9.000E+00
      21    -1     0     0   501   502  0.000000000E+00  0.000000000E+00 -3.137924048E+02  3.137924048E+02  0.000000000E+00  0.00000E+00  9.000E+00
      25     1     1     2     0     0 -2.284271943E+02 -1.031398448E+02  1.181778932E+02  3.039865542E+02  1.250000000E+02  0.00000E+00  9.000E+00
      25     1     1     2     0     0  1.365608658E+02 -2.139208122E+01 -1.268517140E+02  2.254392347E+02  1.250000000E+02  0.00000E+00  9.000E+00
      21     1     1     2   501   511  9.186632850E+01  1.245319261E+02  8.906512998E+01  1.785503299E+02  2.861022949E-06  0.00000E+00  9.000E+00
#rwgt            2          11   2.4410577389719409E-003           7      105727           0
</event>
<event>
      5   9999  3.79277E-02  1.83873E+01 -1.00000E+00  1.69439E-01
      21    -1     0     0   502   501  0.000000000E+00  0.000000000E+00  3.180875690E+02  3.180875690E+02  0.000000000E+00  0.00000E+00  9.000E+00
      21    -1     0     0   512   502  0.000000000E+00  0.000000000E+00 -3.111629562E+02  3.111629562E+02  0.000000000E+00  0.00000E+00  9.000E+00
      25     1     1     2     0     0 -3.902791168E+01 -1.384678627E+02  1.291584330E+02  2.302247331E+02  1.250000000E+02  0.00000E+00  9.000E+00
      25     1     1     2     0     0  3.187750863E+01  1.554079213E+02  6.401286892E+01  2.118736532E+02  1.250000000E+02  0.00000E+00  9.000E+00
      21     1     1     2   512   501  7.150403053E+00 -1.694005854E+01 -1.862466892E+02  1.871521389E+02  2.697398305E-06  0.00000E+00  9.000E+00
#rwgt            1           1   3.0736741794647960E-002           7      105807           0
</event>
<event>
      5   9999  3.79277E-02  1.84476E+01 -1.00000E+00  1.69317E-01
      21    -1     0     0   511   501  0.000000000E+00  0.000000000E+00  1.457365535E+02  1.457365535E+02  0.000000000E+00  0.00000E+00  9.000E+00
      21    -1     0     0   501   502  0.000000000E+00  0.000000000E+00 -1.898597269E+03  1.898597269E+03  0.000000000E+00  0.00000E+00  9.000E+00
      25     1     1     2     0     0  1.063015275E+02  1.265371193E+02 -1.630885011E+03  1.643995918E+03  1.250000000E+02  0.00000E+00  9.000E+00
      25     1     1     2     0     0 -1.223686455E+02 -1.174728076E+02 -2.176293732E+02  3.029215905E+02  1.250000000E+02  0.00000E+00  9.000E+00
      21     1     1     2   511   502  1.606711794E+01 -9.064311637E+00  9.565366871E+01  9.741631467E+01  1.907348633E-06  0.00000E+00  9.000E+00
#rwgt            1           1   4.3806109568670329E-002           7      106084           0
</event>
<event>
      5   9999  3.79277E-02  2.03973E+01 -1.00000E+00  1.65667E-01
      21    -1     0     0   502   501  0.000000000E+00  0.000000000E+00  3.563025201E+02  3.563025201E+02  0.000000000E+00  0.00000E+00  9.000E+00
      21    -1     0     0   512   502  0.000000000E+00  0.000000000E+00 -9.422073049E+02  9.422073049E+02  0.000000000E+00  0.00000E+00  9.000E+00
      25     1     1     2     0     0  1.273377234E+02 -1.860319662E+02 -3.019690344E+02  3.970303339E+02  1.250000000E+02  0.00000E+00  9.000E+00
      25     1     1     2     0     0 -1.458049499E+02  1.773711356E+02  2.532077490E+02  3.639488525E+02  1.250000000E+02  0.00000E+00  9.000E+00
      21     1     1     2   512   501  1.846722648E+01  8.660830675E+00 -5.371434994E+02  5.375306386E+02  7.629394531E-06  0.00000E+00  9.000E+00
#rwgt            1           1   2.9680626241781898E-002           7      106231           0
</event>
<event>
      5   9999  3.79277E-02  1.51292E+01 -1.00000E+00  1.77033E-01
      21    -1     0     0   511   501  0.000000000E+00  0.000000000E+00  5.600092353E+02  5.600092353E+02  0.000000000E+00  0.00000E+00  9.000E+00
      21    -1     0     0   501   502  0.000000000E+00  0.000000000E+00 -1.953722919E+02  1.953722919E+02  0.000000000E+00  0.00000E+00  9.000E+00
      25     1     1     2     0     0  1.523880772E+02 -1.233336576E+02  1.776901560E+02  2.926296443E+02  1.250000000E+02  0.00000E+00  9.000E+00
      25     1     1     2     0     0 -1.659841616E+02  1.166973888E+02 -3.449092528E+01  2.407979368E+02  1.250000000E+02  0.00000E+00  9.000E+00
      21     1     1     2   511   502  1.359608434E+01  6.636268790E+00  2.214377127E+02  2.219539461E+02  0.000000000E+00  0.00000E+00  9.000E+00
#rwgt            1           1   7.4730391290861398E-002           7      106453           0
</event>
<event>
      5   9999  3.79277E-02  2.73163E+01 -1.00000E+00  1.55921E-01
      21    -1     0     0   502   501  0.000000000E+00  0.000000000E+00  1.158946421E+03  1.158946421E+03  0.000000000E+00  0.00000E+00  9.000E+00
      21    -1     0     0   512   502  0.000000000E+00  0.000000000E+00 -8.450293077E+01  8.450293077E+01  0.000000000E+00  0.00000E+00  9.000E+00
      25     1     1     2     0     0 -9.066602131E+01  4.736615786E+01  4.850191308E+01  1.686455333E+02  1.250000000E+02  0.00000E+00  9.000E+00
      25     1     1     2     0     0  1.179822045E+02 -4.728465279E+01  1.031614608E+03  1.046904647E+03  1.250000000E+02  0.00000E+00  9.000E+00
      21     1     1     2   512   501 -2.731618323E+01 -8.150507312E-02 -5.673031146E+00  2.789917188E+01  5.264139692E-07  0.00000E+00  9.000E+00
#rwgt            1           1   5.0706662815509201E-002           7      106605           0
</event>
<event>
      5   9999  3.79277E-02  2.37007E+01 -1.00000E+00  1.60507E-01
       1    -1     0     0   502     0  0.000000000E+00  0.000000000E+00  7.561722286E+01  7.561722286E+01  0.000000000E+00  0.00000E+00  9.000E+00
      21    -1     0     0   501   502  0.000000000E+00  0.000000000E+00 -5.957125889E+02  5.957125889E+02  0.000000000E+00  0.00000E+00  9.000E+00
      25     1     1     2     0     0  1.230840560E+02  2.293931881E+01 -1.531271959E+02  2.339846903E+02  1.250000000E+02  0.00000E+00  9.000E+00
      25     1     1     2     0     0 -1.119820844E+02 -4.387900026E+01 -3.742952833E+02  4.125376504E+02  1.250000000E+02  0.00000E+00  9.000E+00
       1     1     1     2   501     0 -1.110197155E+01  2.093968145E+01  7.327113190E+00  2.480747103E+01  5.462855929E-07  0.00000E+00  9.000E+00
#rwgt            1           1  0.13865683680576624                7      106820           0
</event>
<event>
      5   9999  4.82621E-02  4.88029E+01 -1.00000E+00  1.39679E-01
      21    -1     0     0   502   501  0.000000000E+00  0.000000000E+00  2.119894923E+02  2.119894923E+02  0.000000000E+00  0.00000E+00  9.000E+00
      21    -1     0     0   501   511  0.000000000E+00  0.000000000E+00 -6.372924084E+02  6.372924084E+02  0.000000000E+00  0.00000E+00  9.000E+00
      25     1     1     2     0     0 -1.008210839E+02 -2.643297164E+02  1.007619145E+01  3.094537438E+02  1.250000000E+02  0.00000E+00  9.000E+00
      25     1     1     2     0     0  6.638117332E+01  2.297520482E+02 -3.791624194E+02  4.653832873E+02  1.250000000E+02  0.00000E+00  9.000E+00
      21     1     1     2   502   511  3.443991056E+01  3.457766828E+01 -5.621668809E+01  7.444486955E+01  1.784161275E-06  0.00000E+00  9.000E+00
#rwgt            1           1  0.48383648341940128                7      106951           0
</event>
<event>
      5   9999  3.79277E-02  5.02008E+01 -1.00000E+00  1.38976E-01
       2    -1     0     0   502     0  0.000000000E+00  0.000000000E+00  2.262438253E+02  2.262438253E+02  0.000000000E+00  0.00000E+00  9.000E+00
      21    -1     0     0   501   502  0.000000000E+00  0.000000000E+00 -6.195048589E+02  6.195048589E+02  0.000000000E+00  0.00000E+00  9.000E+00
      25     1     1     2     0     0  8.714979758E+01 -1.544826131E+02 -1.115925681E+02  2.440038242E+02  1.250000000E+02  0.00000E+00  9.000E+00
      25     1     1     2     0     0 -3.697875241E+01  1.562118359E+02 -4.134099502E+02  4.607627945E+02  1.250000000E+02  0.00000E+00  9.000E+00
       2     1     1     2   501     0 -5.017104517E+01 -1.729222824E+00  1.317414848E+02  1.409820655E+02  1.907348633E-06  0.00000E+00  9.000E+00
#rwgt            1           1   2.5202907279595718E-002           7      107030           0
</event>
<event>
      5   9999  3.79277E-02  5.23983E+01 -1.00000E+00  1.37924E-01
      21    -1     0     0   502   511  0.000000000E+00  0.000000000E+00  1.926309063E+03  1.926309063E+03  0.000000000E+00  0.00000E+00  9.000E+00
      21    -1     0     0   501   502  0.000000000E+00  0.000000000E+00 -3.379124557E+02  3.379124557E+02  0.000000000E+00  0.00000E+00  9.000E+00
      25     1     1     2     0     0 -1.618571975E+02  4.827018543E+00 -4.750544339E+01  2.100067133E+02  1.250000000E+02  0.00000E+00  9.000E+00
      25     1     1     2     0     0  1.125708478E+02 -2.261583128E+01 -1.742803738E+02  2.432741669E+02  1.250000000E+02  0.00000E+00  9.000E+00
      21     1     1     2   501   511  4.928634972E+01  1.778881274E+01  1.810182424E+03  1.810940638E+03  0.000000000E+00  0.00000E+00  9.000E+00
#rwgt            1           1   8.0808216412060874E-002           7      107115           0
</event>
<event>
      5   9999  3.79277E-02  3.90710E+01 -1.00000E+00  1.45476E-01
      21    -1     0     0   502   512  0.000000000E+00  0.000000000E+00  3.825446381E+02  3.825446381E+02  0.000000000E+00  0.00000E+00  9.000E+00
      21    -1     0     0   501   502  0.000000000E+00  0.000000000E+00 -3.385481164E+02  3.385481164E+02  0.000000000E+00  0.00000E+00  9.000E+00
      25     1     1     2     0     0  1.128932820E+02 -2.829437021E+02  2.866343422E+01  3.305277963E+02  1.250000000E+02  0.00000E+00  9.000E+00
      25     1     1     2     0     0 -8.362254408E+01  3.088236332E+02 -1.061848468E+01  3.436604698E+02  1.250000000E+02  0.00000E+00  9.000E+00
      21     1     1     2   501   512 -2.927073789E+01 -2.587993114E+01  2.595157218E+01  4.690448839E+01  0.000000000E+00  0.00000E+00  9.000E+00
#rwgt            1           1   2.6765075994723279E-002           7      107257           0
</event>
<event>
      5   9999 -3.79277E-02  7.62963E+01 -1.00000E+00  1.29354E-01
      21    -1     0     0   511   501  0.000000000E+00  0.000000000E+00  1.706126183E+02  1.706126183E+02  0.000000000E+00  0.00000E+00  9.000E+00
      21    -1     0     0   501   502  0.000000000E+00  0.000000000E+00 -1.284622232E+03  1.284622232E+03  0.000000000E+00  0.00000E+00  9.000E+00
      25     1     1     2     0     0 -4.011656273E+02 -1.264777371E+02 -5.245215590E+02  6.838701224E+02  1.250000000E+02  0.00000E+00  9.000E+00
      25     1     1     2     0     0  3.424261703E+02  1.751686322E+02 -5.572344682E+02  6.885310337E+02  1.250000000E+02  0.00000E+00  9.000E+00
      21     1     1     2   511   502  5.873945691E+01 -4.869089511E+01 -3.225358673E+01  8.283369436E+01  6.743495762E-07  0.00000E+00  9.000E+00
#rwgt            1           1  -3.4784083038970265E-002           7      107451           0
</event>
<event>
      5   9999  3.79277E-02  1.25594E+01 -1.00000E+00  1.84971E-01
      21    -1     0     0   502   512  0.000000000E+00  0.000000000E+00  4.970465661E+02  4.970465661E+02  0.000000000E+00  0.00000E+00  9.000E+00
      21    -1     0     0   501   502  0.000000000E+00  0.000000000E+00 -9.557885953E+01  9.557885953E+01  0.000000000E+00  0.00000E+00  9.000E+00
      25     1     1     2     0     0 -5.719201578E+01  9.375489293E+01  1.816157440E+02  2.463131850E+02  1.250000000E+02  0.00000E+00  9.000E+00
      25     1     1     2     0     0  5.579972356E+01 -8.127288177E+01  3.753439563E+01  1.635625914E+02  1.250000000E+02  0.00000E+00  9.000E+00
      21     1     1     2   501   512  1.392292223E+00 -1.248201116E+01  1.823175669E+02  1.827496492E+02  2.697398305E-06  0.00000E+00  9.000E+00
#rwgt            1           1   3.6725652542982413E-002           7      107587           0
</event>
<event>
      5   9999  3.79277E-02  4.04405E+01 -1.00000E+00  1.44546E-01
      21    -1     0     0   511   501  0.000000000E+00  0.000000000E+00  4.445173306E+02  4.445173306E+02  0.000000000E+00  0.00000E+00  9.000E+00
      21    -1     0     0   501   502  0.000000000E+00  0.000000000E+00 -1.174165801E+02  1.174165801E+02  0.000000000E+00  0.00000E+00  9.000E+00
      25     1     1     2     0     0 -1.071523999E+02  7.879945825E+01  4.267374827E+01  1.874487669E+02  1.250000000E+02  0.00000E+00  9.000E+00
      25     1     1     2     0     0  1.033480877E+02 -1.190606539E+02  2.175060091E+02  2.962939935E+02  1.250000000E+02  0.00000E+00  9.000E+00
      21     1     1     2   511   502  3.804312220E+00  4.026119570E+01  6.692099308E+01  7.819115030E+01  9.536743164E-07  0.00000E+00  9.000E+00
#rwgt            1           1   1.6346241002098808E-002           7      107835           0
</event>
<event>
      5   9999  3.79277E-02  5.52217E+01 -1.00000E+00  1.36658E-01
      21    -1     0     0   512   501  0.000000000E+00  0.000000000E+00  4.022772391E+01  4.022772391E+01  0.000000000E+00  0.00000E+00  9.000E+00
      21    -1     0     0   501   502  0.000000000E+00  0.000000000E+00 -1.933459661E+03  1.933459661E+03  0.000000000E+00  0.00000E+00  9.000E+00
      25     1     1     2     0     0  1.305354006E+02 -7.684273035E+01 -6.273400856E+02  6.573620608E+02  1.250000000E+02  0.00000E+00  9.000E+00
      25     1     1     2     0     0 -7.964501151E+01  9.828106700E+01 -1.244440029E+03  1.257083323E+03  1.250000000E+02  0.00000E+00  9.000E+00
      21     1     1     2   512   502 -5.089038908E+01 -2.143833665E+01 -2.145182265E+01  5.924200092E+01  1.305872339E-06  0.00000E+00  9.000E+00
#rwgt            1           1  0.14462048095578647                7      107961           0
</event>
<event>
      5   9999  3.79277E-02  9.30477E+01 -1.00000E+00  1.25252E-01
      21    -1     0     0   502   501  0.000000000E+00  0.000000000E+00  1.145788334E+03  1.145788334E+03  0.000000000E+00  0.00000E+00  9.000E+00
      21    -1     0     0   511   502  0.000000000E+00  0.000000000E+00 -3.860178108E+02  3.860178108E+02  0.000000000E+00  0.00000E+00  9.000E+00
      25     1     1     2     0     0 -1.010555371E+02  5.351052882E+01  2.265666339E+02  2.829011097E+02  1.250000000E+02  0.00000E+00  9.000E+00
      25     1     1     2     0     0  1.709421508E+02 -1.149413156E+02  8.683095467E+02  9.011210761E+02  1.250000000E+02  0.00000E+00  9.000E+00
      21     1     1     2   511   501 -6.988661370E+01  6.143078682E+01 -3.351056575E+02  3.477839588E+02  3.814697266E-06  0.00000E+00  9.000E+00
#rwgt            1           1   4.7482038927142534E-002           7      108039           0
</event>
<event>
      5   9999  3.79277E-02  1.91336E+01 -1.00000E+00  1.67972E-01
       2    -1     0     0   502     0  0.000000000E+00  0.000000000E+00  3.175192696E+03  3.175192696E+03  0.000000000E+00  0.00000E+00  9.000E+00
      21    -1     0     0   501   502  0.000000000E+00  0.000000000E+00 -3.483304240E+01  3.483304240E+01  0.000000000E+00  0.00000E+00  9.000E+00
      25     1     1     2     0     0 -5.656298056E+01  1.302917780E+02  5.521955042E+02  5.837124233E+02  1.250000000E+02  0.00000E+00  9.000E+00
      25     1     1     2     0     0  4.336288791E+01 -1.441428216E+02  4.838630231E+02  5.219252037E+02  1.250000000E+02  0.00000E+00  9.000E+00
       2     1     1     2   501     0  1.320009266E+01  1.385104361E+01  2.104301127E+03  2.104388112E+03  4.315837288E-05  0.00000E+00  9.000E+00
#rwgt            1           1   2.7517103170459398E-002           7      108117           0
</event>
<event>
      5   9999  3.79277E-02  7.88984E+01 -1.00000E+00  1.28642E-01
      21    -1     0     0   511   501  0.000000000E+00  0.000000000E+00  3.446113927E+01  3.446113927E+01  0.000000000E+00  0.00000E+00  9.000E+00
      21    -1     0     0   501   502  0.000000000E+00  0.000000000E+00 -1.805056310E+03  1.805056310E+03  0.000000000E+00  0.00000E+00  9.000E+00
      25     1     1     2     0     0  1.145474318E+01  9.902810527E+01 -5.939849568E+02  6.151267395E+02  1.250000000E+02  0.00000E+00  9.000E+00
      25     1     1     2     0     0 -8.781569540E+00 -1.778812419E+02 -1.069209287E+03  1.091124352E+03  1.250000000E+02  0.00000E+00  9.000E+00
      21     1     1     2   511   502 -2.673173638E+00  7.885313664E+01 -1.074009274E+02  1.332663582E+02  3.015782986E-06  0.00000E+00  9.000E+00
#rwgt            1           1   1.7588233741922771E-002           7      108333           0
</event>
<event>
      5   9999  3.79277E-02  9.93294E+01 -1.00000E+00  1.23959E-01
      21    -1     0     0   502   501  0.000000000E+00  0.000000000E+00  1.849726608E+02  1.849726608E+02  0.000000000E+00  0.00000E+00  9.000E+00
      21    -1     0     0   512   502  0.000000000E+00  0.000000000E+00 -9.923455856E+02  9.923455856E+02  0.000000000E+00  0.00000E+00  9.000E+00
      25     1     1     2     0     0 -2.733554362E+02  1.428624615E+02 -1.621173923E+02  3.701890413E+02  1.250000000E+02  0.00000E+00  9.000E+00
      25     1     1     2     0     0  2.265313990E+02 -2.304629663E+02 -3.373183663E+02  4.835683342E+02  1.250000000E+02  0.00000E+00  9.000E+00
      21     1     1     2   512   501  4.682403717E+01  8.760050485E+01 -3.079371662E+02  3.235608710E+02  5.394796609E-06  0.00000E+00  9.000E+00
#rwgt            1           1   4.0264819599193126E-002           7      108415           0
</event>
<event>
      5   9999  3.79277E-02  3.00275E+01 -1.00000E+00  1.53012E-01
      21    -1     0     0   511   501  0.000000000E+00  0.000000000E+00  5.122448871E+02  5.122448871E+02  0.000000000E+00  0.00000E+00  9.000E+00
      21    -1     0     0   501   502  0.000000000E+00  0.000000000E+00 -6.247684396E+02  6.247684396E+02  0.000000000E+00  0.00000E+00  9.000E+00
      25     1     1     2     0     0  1.680201260E+02 -2.359405526E+02 -5.110794308E+02  6.006046051E+02  1.250000000E+02  0.00000E+00  9.000E+00
      25     1     1     2     0     0 -1.535496106E+02  2.622513408E+02  3.716936595E+02  4.961193659E+02  1.250000000E+02  0.00000E+00  9.000E+00
      21     1     1     2   511   502 -1.447051539E+01 -2.631078824E+01  2.686221875E+01  4.028935579E+01  6.743495762E-07  0.00000E+00  9.000E+00
#rwgt            1           1   6.0565620154442487E-002           7      108528           0
</event>
<event>
      5   9999  3.79277E-02  1.53327E+01 -1.00000E+00  1.76491E-01
      21    -1     0     0   502   501  0.000000000E+00  0.000000000E+00  2.862148126E+02  2.862148126E+02  0.000000000E+00  0.00000E+00  9.000E+00
      21    -1     0     0   512   502  0.000000000E+00  0.000000000E+00 -1.328390769E+03  1.328390769E+03  0.000000000E+00  0.00000E+00  9.000E+00
      25     1     1     2     0     0 -3.825372150E+01  1.904591481E+01  2.448407828E+02  2.782051455E+02  1.250000000E+02  0.00000E+00  9.000E+00
      25     1     1     2     0     0  4.806652752E+01 -7.264523075E+00 -1.578714672E+02  2.071510669E+02  1.250000000E+02  0.00000E+00  9.000E+00
      21     1     1     2   512   501 -9.812806025E+00 -1.178139174E+01 -1.129145272E+03  1.129249369E+03  2.157918644E-05  0.00000E+00  9.000E+00
#rwgt            1           1   3.6817844942010576E-002           7      108697           0
</event>
<event>
      5   9999  3.79277E-02  6.49682E+01 -1.00000E+00  1.32883E-01
      21    -1     0     0   502   501  0.000000000E+00  0.000000000E+00  1.444731804E+02  1.444731804E+02  0.000000000E+00  0.00000E+00  9.000E+00
      21    -1     0     0   511   502  0.000000000E+00  0.000000000E+00 -4.184399716E+02  4.184399716E+02  0.000000000E+00  0.00000E+00  9.000E+00
      25     1     1     2     0     0 -1.363637693E+00 -1.804197676E+02 -1.276351241E+02  2.539072212E+02  1.250000000E+02  0.00000E+00  9.000E+00
      25     1     1     2     0     0  4.912350747E+01  1.363758749E+02 -5.926581062E+01  2.003719904E+02  1.250000000E+02  0.00000E+00  9.000E+00
      21     1     1     2   511   501 -4.775986977E+01  4.404389277E+01 -8.706585652E+01  1.086339405E+02  9.536743164E-07  0.00000E+00  9.000E+00
#rwgt            1           1   4.2260095117751736E-002           7      108944           0
</event>
<event>
      5   9999  3.79277E-02  1.05835E+02 -1.00000E+00  1.22730E-01
      21    -1     0     0   502   512  0.000000000E+00  0.000000000E+00  6.111632593E+01  6.111632593E+01  0.000000000E+00  0.00000E+00  9.000E+00
      21    -1     0     0   501   502  0.000000000E+00  0.000000000E+00 -1.122470080E+03  1.122470080E+03  0.000000000E+00  0.00000E+00  9.000E+00
      25     1     1     2     0     0 -6.966768207E+01  7.130606172E+01 -2.917570264E+02  3.326940078E+02  1.250000000E+02  0.00000E+00  9.000E+00
      25     1     1     2     0     0  1.930260128E+01 -1.643887652E+02 -6.840567916E+02  7.148111293E+02  1.250000000E+02  0.00000E+00  9.000E+00
      21     1     1     2   501   512  5.036508080E+01  9.308270344E+01 -8.553993601E+01  1.360812687E+02  3.814697266E-06  0.00000E+00  9.000E+00
#rwgt            1           1   3.8181336345850421E-002           7      109013           0
</event>
<event>
      5   9999  3.79277E-02  2.90597E+01 -1.00000E+00  1.54007E-01
      21    -1     0     0   502   501  0.000000000E+00  0.000000000E+00  8.525908774E+02  8.525908774E+02  0.000000000E+00  0.00000E+00  9.000E+00
      21    -1     0     0   511   502  0.000000000E+00  0.000000000E+00 -7.905992647E+01  7.905992647E+01  0.000000000E+00  0.00000E+00  9.000E+00
      25     1     1     2     0     0  2.742631841E+01 -1.790915044E+02  2.635347857E+02  3.433679559E+02  1.250000000E+02  0.00000E+00  9.000E+00
      25     1     1     2     0     0 -1.918550411E+01  2.069582908E+02  5.029579175E+02  5.583829192E+02  1.250000000E+02  0.00000E+00  9.000E+00
      21     1     1     2   511   501 -8.240814298E+00 -2.786678646E+01  7.038247788E+00  2.989992876E+01  3.475518164E-07  0.00000E+00  9.000E+00
#rwgt            1           1   5.0126648559160006E-002           7      109131           0
</event>
<event>
      5   9999  3.79277E-02  6.31157E+01 -1.00000E+00  1.33539E-01
      21    -1     0     0   502   501  0.000000000E+00  0.000000000E+00  1.626500467E+02  1.626500467E+02  0.000000000E+00  0.00000E+00  9.000E+00
      21    -1     0     0   501   512  0.000000000E+00  0.000000000E+00 -4.388523536E+02  4.388523536E+02  0.000000000E+00  0.00000E+00  9.000E+00
      25     1     1     2     0     0 -1.229677311E+01 -1.873727879E+02 -1.783921341E+02  2.875909001E+02  1.250000000E+02  0.00000E+00  9.000E+00
      25     1     1     2     0     0 -5.054949876E+01  1.815470540E+02 -4.273157806E+01  2.301425045E+02  1.250000000E+02  0.00000E+00  9.000E+00
      21     1     1     2   502   512  6.284627187E+01  5.825733947E+00 -5.507859467E+01  8.376899579E+01  1.168007728E-06  0.00000E+00  9.000E+00
#rwgt            1           1   3.6410408011446439E-002           7      109320           0
</event>
<event>
      5   9999  3.79277E-02  1.18556E+01 -1.00000E+00  1.87583E-01
      21    -1     0     0   502   511  0.000000000E+00  0.000000000E+00  2.213070634E+01  2.213070634E+01  0.000000000E+00  0.00000E+00  9.000E+00
      21    -1     0     0   501   502  0.000000000E+00  0.000000000E+00 -1.528330293E+03  1.528330293E+03  0.000000000E+00  0.00000E+00  9.000E+00
      25     1     1     2     0     0  8.244551366E+01 -1.929431315E+01 -3.420137381E+02  3.738554939E+02  1.250000000E+02  0.00000E+00  9.000E+00
      25     1     1     2     0     0 -7.318446156E+01  1.189240231E+01 -1.144005640E+03  1.153200460E+03  1.250000000E+02  0.00000E+00  9.000E+00
      21     1     1     2   501   511 -9.261052101E+00  7.401910846E+00 -2.018020766E+01  2.340504543E+01  6.307962682E-07  0.00000E+00  9.000E+00
#rwgt            1           1   4.1502735824275390E-002           7      109543           0
</event>
<event>
      5   9999  3.79277E-02  9.58096E+01 -1.00000E+00  1.24670E-01
      21    -1     0     0   512   501  0.000000000E+00  0.000000000E+00  7.472134734E+02  7.472134734E+02  0.000000000E+00  0.00000E+00  9.000E+00
      21    -1     0     0   501   502  0.000000000E+00  0.000000000E+00 -5.019388278E+02  5.019388278E+02  0.000000000E+00  0.00000E+00  9.000E+00
      25     1     1     2     0     0 -7.242174831E+01 -2.011537199E+02 -4.181475730E+02  4.859836638E+02  1.250000000E+02  0.00000E+00  9.000E+00
      25     1     1     2     0     0 -2.334256639E+01  2.041007531E+02  6.047855612E+02  6.508398941E+02  1.250000000E+02  0.00000E+00  9.000E+00
      21     1     1     2   512   502  9.576431470E+01 -2.947033211E+00  5.863665739E+01  1.123287433E+02  2.023048729E-06  0.00000E+00  9.000E+00
#rwgt            2          11   1.6348546549950761E-002           7      109923           0
</event>
<event>
      5   9999  3.79277E-02  2.02563E+01 -1.00000E+00  1.65914E-01
      21    -1     0     0   502   501  0.000000000E+00  0.000000000E+00  2.230844522E+02  2.230844522E+02  0.000000000E+00  0.00000E+00  9.000E+00
      21    -1     0     0   511   502  0.000000000E+00  0.000000000E+00 -1.178206712E+02  1.178206712E+02  0.000000000E+00  0.00000E+00  9.000E+00
      25     1     1     2     0     0  2.029278654E+01  2.682968211E+01  4.284910860E+01  1.363549601E+02  1.250000000E+02  0.00000E+00  9.000E+00
      25     1     1     2     0     0 -1.184084241E+01 -4.523848472E+01  9.664277388E+01  1.647772794E+02  1.250000000E+02  0.00000E+00  9.000E+00
      21     1     1     2   511   501 -8.451944130E+00  1.840880261E+01 -3.422810148E+01  3.977288403E+01  4.768371582E-07  0.00000E+00  9.000E+00
#rwgt            1           1   1.2854599148473636E-002           7      109958           0
</event>
<event>
      5   9999  3.79277E-02  9.05198E+01 -1.00000E+00  1.25805E-01
      21    -1     0     0   502   512  0.000000000E+00  0.000000000E+00  4.500720650E+02  4.500720650E+02  0.000000000E+00  0.00000E+00  9.000E+00
      21    -1     0     0   501   502  0.000000000E+00  0.000000000E+00 -1.979434026E+02  1.979434026E+02  0.000000000E+00  0.00000E+00  9.000E+00
      25     1     1     2     0     0 -1.276986930E+02 -9.596029664E+01  1.142845725E+01  2.031525150E+02  1.250000000E+02  0.00000E+00  9.000E+00
      25     1     1     2     0     0  4.583464533E+01  1.345882739E+02  1.728757195E+00  1.893219659E+02  1.250000000E+02  0.00000E+00  9.000E+00
      21     1     1     2   501   512  8.186404767E+01 -3.862797727E+01  2.389714480E+02  2.555409867E+02  2.697398305E-06  0.00000E+00  9.000E+00
#rwgt            1           1  0.14675661483995361                7      110137           0
</event>
<event>
      5   9999  3.79277E-02  4.45825E+01 -1.00000E+00  1.41978E-01
      21    -1     0     0   502   511  0.000000000E+00  0.000000000E+00  6.646395857E+02  6.646395857E+02  0.000000000E+00  0.00000E+00  9.000E+00
      21    -1     0     0   501   502  0.000000000E+00  0.000000000E+00 -9.161171197E+01  9.161171197E+01  0.000000000E+00  0.00000E+00  9.000E+00
      25     1     1     2     0     0 -1.089262344E+02  1.088438107E+02  2.373505412E+02  3.093091966E+02  1.250000000E+02  0.00000E+00  9.000E+00
      25     1     1     2     0     0  1.040341309E+02 -1.531570983E+02  1.857637358E+02  2.905397781E+02  1.250000000E+02  0.00000E+00  9.000E+00
      21     1     1     2   501   511  4.892103542E+00  4.431328757E+01  1.499135968E+02  1.564023230E+02  1.907348633E-06  0.00000E+00  9.000E+00
#rwgt            1           1   3.8673942165415025E-002           7      110223           0
</event>
<event>
      5   9999  3.79277E-02  2.36898E+01 -1.00000E+00  1.60522E-01
      21    -1     0     0   502   501  0.000000000E+00  0.000000000E+00  2.904349271E+02  2.904349271E+02  0.000000000E+00  0.00000E+00  9.000E+00
      21    -1     0     0   512   502  0.000000000E+00  0.000000000E+00 -1.177081874E+02  1.177081874E+02  0.000000000E+00  0.00000E+00  9.000E+00
      25     1     1     2     0     0 -1.049344889E+01  7.870021564E+01  1.941951948E+02  2.442142708E+02  1.250000000E+02  0.00000E+00  9.000E+00
      25     1     1     2     0     0 -2.128260528E+00 -5.865279494E+01 -2.378371353E+01  1.401261748E+02  1.250000000E+02  0.00000E+00  9.000E+00
      21     1     1     2   512   501  1.262170942E+01 -2.004742069E+01  2.315258463E+00  2.380266890E+01  2.149076030E-07  0.00000E+00  9.000E+00
#rwgt            1           1   2.2619506505821396E-002           7      110348           0
</event>
<event>
      5   9999  3.79277E-02  1.77466E+01 -1.00000E+00  1.70770E-01
      21    -1     0     0   502   511  0.000000000E+00  0.000000000E+00  2.512555432E+02  2.512555432E+02  0.000000000E+00  0.00000E+00  9.000E+00
      21    -1     0     0   501   502  0.000000000E+00  0.000000000E+00 -2.126464119E+02  2.126464119E+02  0.000000000E+00  0.00000E+00  9.000E+00
      25     1     1     2     0     0  2.328936871E+01  1.404815317E+02  8.367161711E+01  2.071313471E+02  1.250000000E+02  0.00000E+00  9.000E+00
      25     1     1     2     0     0 -2.680648372E+01 -1.578761561E+02 -7.940498749E+01  2.181137783E+02  1.250000000E+02  0.00000E+00  9.000E+00
      21     1     1     2   501   511  3.517115009E+00  1.739462436E+01  3.434250168E+01  3.865682961E+01  4.768371582E-07  0.00000E+00  9.000E+00
#rwgt            1           1   4.1042966812090111E-002           7      110517           0
</event>
<event>
      5   9999  3.79277E-02  3.13364E+01 -1.00000E+00  1.51737E-01
      21    -1     0     0   502   501  0.000000000E+00  0.000000000E+00  4.386855689E+02  4.386855689E+02  0.000000000E+00  0.00000E+00  9.000E+00
      21    -1     0     0   501   512  0.000000000E+00  0.000000000E+00 -8.519328697E+01  8.519328697E+01  0.000000000E+00  0.00000E+00  9.000E+00
      25     1     1     2     0     0  6.399144138E+01 -5.976383649E+01  3.683388701E+01  1.569979489E+02  1.250000000E+02  0.00000E+00  9.000E+00
      25     1     1     2     0     0 -4.033523933E+01  3.921253984E+01  3.032595605E+02  3.328001140E+02  1.250000000E+02  0.00000E+00  9.000E+00
      21     1     1     2   502   512 -2.365620205E+01  2.055129664E+01  1.339883441E+01  3.408079302E+01  1.685873940E-07  0.00000E+00  9.000E+00
#rwgt            1           1   4.1791429614879888E-002           7      110671           0
</event>
<event>
      5   9999  3.79277E-02  6.47719E+01 -1.00000E+00  1.32951E-01
      21    -1     0     0   502   511  0.000000000E+00  0.000000000E+00  1.406165531E+02  1.406165531E+02  0.000000000E+00  0.00000E+00  9.000E+00
      21    -1     0     0   501   502  0.000000000E+00  0.000000000E+00 -1.101968923E+03  1.101968923E+03  0.000000000E+00  0.00000E+00  9.000E+00
      25     1     1     2     0     0 -1.469889058E+02  1.284056930E+02 -3.811864347E+01  2.348867630E+02  1.250000000E+02  0.00000E+00  9.000E+00
      25     1     1     2     0     0  2.075077262E+02 -1.053216662E+02 -9.014594840E+02  9.393648445E+02  1.250000000E+02  0.00000E+00  9.000E+00
      21     1     1     2   501   511 -6.051882040E+01 -2.308402683E+01 -2.177424197E+01  6.833386811E+01  6.743495762E-07  0.00000E+00  9.000E+00
#rwgt            1           1   2.9988389291592206E-002           7      110813           0
</event>
<event>
      5   9999  3.79277E-02  1.11910E+01 -1.00000E+00  1.90273E-01
      21    -1     0     0   512   501  0.000000000E+00  0.000000000E+00  2.856543762E+02  2.856543762E+02  0.000000000E+00  0.00000E+00  9.000E+00
      21    -1     0     0   501   502  0.000000000E+00  0.000000000E+00 -1.030624368E+02  1.030624368E+02  0.000000000E+00  0.00000E+00  9.000E+00
      25     1     1     2     0     0 -1.175034629E+01 -1.006605681E+01 -3.486732700E+01  1.306909585E+02  1.250000000E+02  0.00000E+00  9.000E+00
      25     1     1     2     0     0  1.582737204E+01  2.048792053E+01  2.015723538E+02  2.385931148E+02  1.250000000E+02  0.00000E+00  9.000E+00
      21     1     1     2   512   502 -4.077025751E+00 -1.042186372E+01  1.588691253E+01  1.943273970E+01  2.384185791E-07  0.00000E+00  9.000E+00
#rwgt            1           1   3.6787910799516189E-002           7      110921           0
</event>
<event>
      5   9999  3.79277E-02  3.85307E+01 -1.00000E+00  1.45855E-01
      21    -1     0     0   502   501  0.000000000E+00  0.000000000E+00  5.504681205E+02  5.504681205E+02  0.000000000E+00  0.00000E+00  9.000E+00
      21    -1     0     0   511   502  0.000000000E+00  0.000000000E+00 -1.446176906E+02  1.446176906E+02  0.000000000E+00  0.00000E+00  9.000E+00
      25     1     1     2     0     0 -3.738226284E+01 -3.569260082E+01  4.838161184E+02  5.023688204E+02  1.250000000E+02  0.00000E+00  9.000E+00
      25     1     1     2     0     0  1.415597723E+00  4.951343125E+01 -4.434600369E+01  1.415809021E+02  1.250000000E+02  0.00000E+00  9.000E+00
      21     1     1     2   511   501  3.596666512E+01 -1.382083043E+01 -3.361968482E+01  5.113608863E+01  9.536743164E-07  0.00000E+00  9.000E+00
#rwgt            1           1   4.3467873233964636E-002           7      111085           0
</event>
<event>
      5   9999  3.79277E-02  1.36534E+01 -1.00000E+00  1.81320E-01
      21    -1     0     0   502   501  0.000000000E+00  0.000000000E+00  5.961896093E+01  5.961896093E+01  0.000000000E+00  0.00000E+00  9.000E+00
      21    -1     0     0   501   512  0.000000000E+00  0.000000000E+00 -5.287759507E+02  5.287759507E+02  0.000000000E+00  0.00000E+00  9.000E+00
      25     1     1     2     0     0  2.930349244E+01  1.040937930E+02 -2.716571243E+02  3.179886879E+02  1.250000000E+02  0.00000E+00  9.000E+00
      25     1     1     2     0     0 -4.220347354E+01 -9.962088407E+01 -1.582626231E+02  2.288613370E+02  1.250000000E+02  0.00000E+00  9.000E+00
      21     1     1     2   502   512  1.289998110E+01 -4.472908915E+00 -3.923724233E+01  4.154488671E+01  6.743495762E-07  0.00000E+00  9.000E+00
#rwgt            1           1   2.2177524337016887E-002           7      111273           0
</event>
<event>
      5   9999  3.79277E-02  2.11460E+02 -1.00000E+00  1.10774E-01
      21    -1     0     0   502   511  0.000000000E+00  0.000000000E+00  2.009722467E+02  2.009722467E+02  0.000000000E+00  0.00000E+00  9.000E+00
      21    -1     0     0   501   502  0.000000000E+00  0.000000000E+00 -8.147588617E+02  8.147588617E+02  0.000000000E+00  0.00000E+00  9.000E+00
      25     1     1     2     0     0  1.018415505E+02  1.189937503E+02 -3.375478939E+02  3.925490985E+02  1.250000000E+02  0.00000E+00  9.000E+00
      25     1     1     2     0     0 -3.110830150E+02 -8.844017922E+01 -1.597405246E+02  3.817542962E+02  1.250000000E+02  0.00000E+00  9.000E+00
      21     1     1     2   501   511  2.092414645E+02 -3.055357107E+01 -1.164981965E+02  2.414277137E+02  3.303624740E-06  0.00000E+00  9.000E+00
#rwgt            2          11   2.2467350608105252E-003           7      111488           0
</event>
<event>
      5   9999  3.79277E-02  5.52852E+01 -1.00000E+00  1.36631E-01
      21    -1     0     0   502   501  0.000000000E+00  0.000000000E+00  1.531013781E+02  1.531013781E+02  0.000000000E+00  0.00000E+00  9.000E+00
      21    -1     0     0   512   502  0.000000000E+00  0.000000000E+00 -5.647572235E+02  5.647572235E+02  0.000000000E+00  0.00000E+00  9.000E+00
      25     1     1     2     0     0 -1.011822629E+02 -4.954286647E+01 -2.539393369E+02  3.046350813E+02  1.250000000E+02  0.00000E+00  9.000E+00
      25     1     1     2     0     0  9.705203551E+01 -5.587849488E+00  7.415301833E+01  1.748542015E+02  1.250000000E+02  0.00000E+00  9.000E+00
      21     1     1     2   512   501  4.130227354E+00  5.513071595E+01 -2.318695269E+02  2.383693187E+02  0.000000000E+00  0.00000E+00  9.000E+00
#rwgt            1           1   5.1849221495675724E-002           7      111508           0
</event>
<event>
      5   9999  3.79277E-02  6.17739E+01 -1.00000E+00  1.34031E-01
      21    -1     0     0   511   501  0.000000000E+00  0.000000000E+00  1.009131060E+03  1.009131060E+03  0.000000000E+00  0.00000E+00  9.000E+00
      21    -1     0     0   501   502  0.000000000E+00  0.000000000E+00 -5.984873880E+01  5.984873880E+01  0.000000000E+00  0.00000E+00  9.000E+00
      25     1     1     2     0     0 -1.633458045E+02  4.260937801E+01  4.216056265E+02  4.710347283E+02  1.250000000E+02  0.00000E+00  9.000E+00
      25     1     1     2     0     0  1.259656070E+02  6.571231211E+00  2.132550543E+02  2.775125825E+02  1.250000000E+02  0.00000E+00  9.000E+00
      21     1     1     2   511   502  3.738019746E+01 -4.918060922E+01  3.144216403E+02  3.204324880E+02  0.000000000E+00  0.00000E+00  9.000E+00
#rwgt            1           1   4.8737778979857170E-002           7      111697           0
</event>
<event>
      5   9999  3.79277E-02  9.29149E+01 -1.00000E+00  1.25281E-01
      21    -1     0     0   512   501  0.000000000E+00  0.000000000E+00  4.548199239E+02  4.548199239E+02  0.000000000E+00  0.00000E+00  9.000E+00
      21    -1     0     0   501   502  0.000000000E+00  0.000000000E+00 -2.166563165E+02  2.166563165E+02  0.000000000E+00  0.00000E+00  9.000E+00
      25     1     1     2     0     0  1.413682279E+02  1.579587679E+02  1.551685973E+02  2.909265231E+02  1.250000000E+02  0.00000E+00  9.000E+00
      25     1     1     2     0     0 -8.025785227E+01 -2.279495043E+02  3.037635119E+01  2.737700167E+02  1.250000000E+02  0.00000E+00  9.000E+00
      21     1     1     2   512   502 -6.111037568E+01  6.999073638E+01  5.261865894E+01  1.067797006E+02  1.168007728E-06  0.00000E+00  9.000E+00
#rwgt            1           1   2.5117695431044553E-002           7      111836           0
</event>
<event>
      5   9999  3.79277E-02  2.90174E+01 -1.00000E+00  1.54051E-01
      21    -1     0     0   502   511  0.000000000E+00  0.000000000E+00  1.482802901E+02  1.482802901E+02  0.000000000E+00  0.00000E+00  9.000E+00
      21    -1     0     0   501   502  0.000000000E+00  0.000000000E+00 -4.689207750E+02  4.689207750E+02  0.000000000E+00  0.00000E+00  9.000E+00
      25     1     1     2     0     0  1.729556674E+02 -1.462641512E+02 -1.457280562E+02  2.969318628E+02  1.250000000E+02  0.00000E+00  9.000E+00
      25     1     1     2     0     0 -1.549434834E+02  1.235140052E+02 -1.729144938E+02  2.911831291E+02  1.250000000E+02  0.00000E+00  9.000E+00
      21     1     1     2   501   511 -1.801218393E+01  2.275014597E+01 -1.997934970E+00  2.908607323E+01  1.712013080E-07  0.00000E+00  9.000E+00
#rwgt            1           1   3.7825798546308000E-002           7      112171           0
</event>
<event>
      5   9999  3.79277E-02  2.23445E+01 -1.00000E+00  1.62493E-01
      21    -1     0     0   502   501  0.000000000E+00  0.000000000E+00  5.443295029E+02  5.443295029E+02  0.000000000E+00  0.00000E+00  9.000E+00
      21    -1     0     0   512   502  0.000000000E+00  0.000000000E+00 -6.587786991E+01  6.587786991E+01  0.000000000E+00  0.00000E+00  9.000E+00
      25     1     1     2     0     0 -8.042787856E+01  6.601709763E+01  1.408150422E+02  2.151296747E+02  1.250000000E+02  0.00000E+00  9.000E+00
      25     1     1     2     0     0  5.900975958E+01 -7.238433655E+01  3.384839802E+02  3.727171163E+02  1.250000000E+02  0.00000E+00  9.000E+00
      21     1     1     2   512   501  2.141811899E+01  6.367238921E+00 -8.473894110E-01  2.236058186E+01  4.627764271E-07  0.00000E+00  9.000E+00
#rwgt            1           1   4.3027903357837773E-002           7      112317           0
</event>
<event>
      5   9999  3.79277E-02  1.27767E+01 -1.00000E+00  1.84209E-01
      21    -1     0     0   511   501  0.000000000E+00  0.000000000E+00  4.363986380E+02  4.363986380E+02  0.000000000E+00  0.00000E+00  9.000E+00
      21    -1     0     0   501   502  0.000000000E+00  0.000000000E+00 -1.091406270E+02  1.091406270E+02  0.000000000E+00  0.00000E+00  9.000E+00
      25     1     1     2     0     0 -1.043875765E+02  1.222832500E+02  1.897099486E+02  2.783250329E+02  1.250000000E+02  0.00000E+00  9.000E+00
      25     1     1     2     0     0  1.015024040E+02 -1.098366051E+02  8.414172055E+01  2.123008407E+02  1.250000000E+02  0.00000E+00  9.000E+00
      21     1     1     2   511   502  2.885172513E+00 -1.244664492E+01  5.340634184E+01  5.491339125E+01  9.536743164E-07  0.00000E+00  9.000E+00
#rwgt            1           1   2.6446987567977035E-002           7      112469           0
</event>
<event>
      5   9999  3.79277E-02  4.93662E+01 -1.00000E+00  1.39392E-01
      21    -1     0     0   502   501  0.000000000E+00  0.000000000E+00  7.001183277E+01  7.001183277E+01  0.000000000E+00  0.00000E+00  9.000E+00
      21    -1     0     0   512   502  0.000000000E+00  0.000000000E+00 -7.724276769E+02  7.724276769E+02  0.000000000E+00  0.00000E+00  9.000E+00
      25     1     1     2     0     0  5.170026254E+01  2.127406131E+01 -2.692891701E+02  3.021045514E+02  1.250000000E+02  0.00000E+00  9.000E+00
      25     1     1     2     0     0 -8.417319556E+01  1.590830363E+01 -5.844663730E+01  1.624167799E+02  1.250000000E+02  0.00000E+00  9.000E+00
      21     1     1     2   512   501  3.247293302E+01 -3.718236493E+01 -3.746800367E+02  3.779181784E+02  0.000000000E+00  0.00000E+00  9.000E+00
#rwgt            1           1   5.6874762021696411E-002           7      112728           0
</event>
<event>
      5   9999  3.79277E-02  1.12077E+01 -1.00000E+00  1.90202E-01
       3    -1     0     0   502     0  0.000000000E+00  0.000000000E+00  3.613953597E+02  3.613953597E+02  0.000000000E+00  0.00000E+00  9.000E+00
      21    -1     0     0   501   502  0.000000000E+00  0.000000000E+00 -1.035896196E+02  1.035896196E+02  0.000000000E+00  0.00000E+00  9.000E+00
      25     1     1     2     0     0  6.269705577E+01  1.027251977E+01 -1.650928502E+01  1.411878251E+02  1.250000000E+02  0.00000E+00  9.000E+00
      25     1     1     2     0     0 -5.578190248E+01 -1.452442388E+00  1.671632614E+02  2.160608391E+02  1.250000000E+02  0.00000E+00  9.000E+00
       3     1     1     2   501     0 -6.915153288E+00 -8.820077387E+00  1.071517637E+02  1.077363150E+02  1.348699152E-06  0.00000E+00  9.000E+00
#rwgt            1           1   4.2719304259218091E-002           7      112877           0
</event>
<event>
      5   9999  3.79277E-02  4.50935E+01 -1.00000E+00  1.41684E-01
      21    -1     0     0   502   501  0.000000000E+00  0.000000000E+00  5.055434469E+01  5.055434469E+01  0.000000000E+00  0.00000E+00  9.000E+00
       2    -1     0     0   501     0  0.000000000E+00  0.000000000E+00 -2.711712493E+03  2.711712493E+03  0.000000000E+00  0.00000E+00  9.000E+00
      25     1     1     2     0     0  1.987510672E+02  5.247836215E+01 -1.531831881E+03  1.550609517E+03  1.250000000E+02  0.00000E+00  9.000E+00
      25     1     1     2     0     0 -2.376826457E+02 -7.523251819E+01 -4.405344164E+02  5.213909703E+02  1.250000000E+02  0.00000E+00  9.000E+00
       2     1     1     2   502     0  3.893157850E+01  2.275415604E+01 -6.887918516E+02  6.902663502E+02  1.321449896E-05  0.00000E+00  9.000E+00
#rwgt            1           1   2.8005483303051165E-002           7      113116           0
</event>
<event>
      5   9999  3.79277E-02  2.44651E+01 -1.00000E+00  1.59458E-01
      21    -1     0     0   511   501  0.000000000E+00  0.000000000E+00  5.518202683E+02  5.518202683E+02  0.000000000E+00  0.00000E+00  9.000E+00
      21    -1     0     0   501   502  0.000000000E+00  0.000000000E+00 -3.236316404E+02  3.236316404E+02  0.000000000E+00  0.00000E+00  9.000E+00
      25     1     1     2     0     0  1.125390816E+02 -1.036648537E+02 -5.499960650E+01  2.050887698E+02  1.250000000E+02  0.00000E+00  9.000E+00
      25     1     1     2     0     0 -1.289275338E+02  8.550002563E+01 -1.420580399E+02  2.444136863E+02  1.250000000E+02  0.00000E+00  9.000E+00
      21     1     1     2   511   502  1.638845216E+01  1.816482807E+01  4.252462743E+02  4.259494526E+02  7.629394531E-06  0.00000E+00  9.000E+00
#rwgt            1           1   4.1925891634239078E-002           7      113311           0
</event>
<event>
      5   9999  3.79277E-02  4.79657E+01 -1.00000E+00  1.40113E-01
      21    -1     0     0   512   501  0.000000000E+00  0.000000000E+00  5.313433146E+01  5.313433146E+01  0.000000000E+00  0.00000E+00  9.000E+00
      21    -1     0     0   501   502  0.000000000E+00  0.000000000E+00 -7.108491785E+02  7.108491785E+02  0.000000000E+00  0.00000E+00  9.000E+00
      25     1     1     2     0     0 -8.258919873E+00  8.583473059E+01 -1.728135449E+02  2.300550630E+02  1.250000000E+02  0.00000E+00  9.000E+00
      25     1     1     2     0     0 -3.965662918E+01 -8.364105948E+01 -4.454415321E+02  4.718173732E+02  1.250000000E+02  0.00000E+00  9.000E+00
      21     1     1     2   512   502  4.791554905E+01 -2.193671106E+00 -3.945976999E+01  6.211107374E+01  1.348699152E-06  0.00000E+00  9.000E+00
#rwgt            1           1   3.8481804356932089E-002           7      113570           0
</event>
<event>
      5   9999  3.79277E-02  3.86231E+01 -1.00000E+00  1.45790E-01
      21    -1     0     0   502   501  0.000000000E+00  0.000000000E+00  4.493469328E+02  4.493469328E+02  0.000000000E+00  0.00000E+00  9.000E+00
      21    -1     0     0   501   511  0.000000000E+00  0.000000000E+00 -3.587528765E+02  3.587528765E+02  0.000000000E+00  0.00000E+00  9.000E+00
      25     1     1     2     0     0  4.287548501E+01  1.445021958E+01  3.630724965E+02  3.866442212E+02  1.250000000E+02  0.00000E+00  9.000E+00
      25     1     1     2     0     0 -7.305920849E+01  9.647218190E+00  1.154305196E+00  1.451104723E+02  1.250000000E+02  0.00000E+00  9.000E+00
      21     1     1     2   502   511  3.018372348E+01 -2.409743777E+01 -2.736327454E+02  2.763451158E+02  8.529922400E-06  0.00000E+00  9.000E+00
#rwgt            1           1   4.2169344570286732E-002           7      113722           0
</event>
<event>
      5   9999  3.79277E-02  3.09751E+01 -1.00000E+00  1.52081E-01
      21    -1     0     0   512   501  0.000000000E+00  0.000000000E+00  8.596849538E+01  8.596849538E+01  0.000000000E+00  0.00000E+00  9.000E+00
      21    -1     0     0   501   502  0.000000000E+00  0.000000000E+00 -3.942759409E+02  3.942759409E+02  0.000000000E+00  0.00000E+00  9.000E+00
      25     1     1     2     0     0 -9.921584750E+01 -5.786586339E+01 -2.164987930E+02  2.751162844E+02  1.250000000E+02  0.00000E+00  9.000E+00
      25     1     1     2     0     0  7.777938318E+01  3.550657404E+01 -8.401577305E+01  1.731877576E+02  1.250000000E+02  0.00000E+00  9.000E+00
      21     1     1     2   512   502  2.143646432E+01  2.235928936E+01 -7.792879495E+00  3.194039439E+01  5.397430145E-07  0.00000E+00  9.000E+00
#rwgt            1           1   4.2371145452920714E-002           7      113837           0
</event>
<event>
      5   9999 -3.79277E-02  1.13918E+01 -1.00000E+00  1.89435E-01
      21    -1     0     0   502   501  0.000000000E+00  0.000000000E+00  1.894053398E+03  1.894053398E+03  0.000000000E+00  0.00000E+00  9.000E+00
       2    -1     0     0   501     0  0.000000000E+00  0.000000000E+00 -2.939596869E+02  2.939596869E+02  0.000000000E+00  0.00000E+00  9.000E+00
      25     1     1     2     0     0 -1.485991038E+02 -3.286184316E+01  1.010053841E+03  1.029075000E+03  1.250000000E+02  0.00000E+00  9.000E+00
      25     1     1     2     0     0  1.464515603E+02  4.404941565E+01  8.632155477E+02  8.855249812E+02  1.250000000E+02  0.00000E+00  9.000E+00
       2     1     1     2   502     0  2.147543483E+00 -1.118757249E+01 -2.731756781E+02  2.734131029E+02  1.144409180E-05  0.00000E+00  9.000E+00
#rwgt            1           1 -0.31061085837332930                7      113927           0
</event>
<event>
      5   9999  3.79277E-02  6.56666E+00 -1.00000E+00  2.19552E-01
      21    -1     0     0   502   511  0.000000000E+00  0.000000000E+00  3.777985117E+02  3.777985117E+02  0.000000000E+00  0.00000E+00  9.000E+00
      21    -1     0     0   501   502  0.000000000E+00  0.000000000E+00 -4.186263853E+02  4.186263853E+02  0.000000000E+00  0.00000E+00  9.000E+00
      25     1     1     2     0     0  5.772108946E+01  1.511525797E+02 -2.148583296E+02  2.965938777E+02  1.250000000E+02  0.00000E+00  9.000E+00
      25     1     1     2     0     0 -6.210855585E+01 -1.462667710E+02 -1.001135136E+02  2.256084143E+02  1.250000000E+02  0.00000E+00  9.000E+00
      21     1     1     2   501   511  4.387466381E+00 -4.885808696E+00  2.741439696E+02  2.742226049E+02  5.394796609E-06  0.00000E+00  9.000E+00
#rwgt            1           1   3.7187851240429635E-002           7      114154           0
</event>
<event>
      5   9999 -3.79277E-02  4.32213E+01 -1.00000E+00  1.42784E-01
      21    -1     0     0   502   512  0.000000000E+00  0.000000000E+00  2.414760365E+02  2.414760365E+02  0.000000000E+00  0.00000E+00  9.000E+00
      21    -1     0     0   501   502  0.000000000E+00  0.000000000E+00 -9.758604795E+02  9.758604795E+02  0.000000000E+00  0.00000E+00  9.000E+00
      25     1     1     2     0     0  1.667273727E+02 -9.114001778E+01 -3.742509836E+02  4.379421405E+02  1.250000000E+02  0.00000E+00  9.000E+00
      25     1     1     2     0     0 -1.268228517E+02  1.077446391E+02 -5.482238077E+02  5.864019836E+02  1.250000000E+02  0.00000E+00  9.000E+00
      21     1     1     2   501   512 -3.990452097E+01 -1.660462135E+01  1.880903483E+02  1.929923920E+02  0.000000000E+00  0.00000E+00  9.000E+00
#rwgt            1           1 -0.14111131045181663                7      114534           0
</event>
<event>
      5   9999  3.79277E-02  4.18811E+00 -1.00000E+00  2.58855E-01
      21    -1     0     0   511   501  0.000000000E+00  0.000000000E+00  8.972660803E+01  8.972660803E+01  0.000000000E+00  0.00000E+00  9.000E+00
      21    -1     0     0   501   502  0.000000000E+00  0.000000000E+00 -6.634851789E+02  6.634851789E+02  0.000000000E+00  0.00000E+00  9.000E+00
      25     1     1     2     0     0 -5.438709328E+01  6.435470351E+00  1.951579150E+01  1.378594839E+02  1.250000000E+02  0.00000E+00  9.000E+00
      25     1     1     2     0     0  5.669885643E+01 -9.927752801E+00 -5.950846414E+02  6.107896946E+02  1.250000000E+02  0.00000E+00  9.000E+00
      21     1     1     2   511   502 -2.311763149E+00  3.492282450E+00  1.810278999E+00  4.562608423E+00  1.504943511E-07  0.00000E+00  9.000E+00
#rwgt            1           1   4.0431813440705240E-002           7      114626           0
</event>
<event>
      5   9999  3.79277E-02  6.27381E+01 -1.00000E+00  1.33676E-01
      21    -1     0     0   502   501  0.000000000E+00  0.000000000E+00  2.487926672E+02  2.487926672E+02  0.000000000E+00  0.00000E+00  9.000E+00
      21    -1     0     0   512   502  0.000000000E+00  0.000000000E+00 -3.305370174E+02  3.305370174E+02  0.000000000E+00  0.00000E+00  9.000E+00
      25     1     1     2     0     0  5.356886953E+01 -1.835591728E+02  1.083931617E+02  2.528589947E+02  1.250000000E+02  0.00000E+00  9.000E+00
      25     1     1     2     0     0 -2.347139287E+00  1.473319846E+02 -1.026169995E+02  2.187863600E+02  1.250000000E+02  0.00000E+00  9.000E+00
      21     1     1     2   512   501 -5.122173025E+01  3.622718821E+01 -8.752051240E+01  1.076843299E+02  1.907348633E-06  0.00000E+00  9.000E+00
#rwgt            1           1   4.0554445211430153E-002           7      115053           0
</event>
<event>
      5   9999  3.79277E-02  4.12401E+01 -1.00000E+00  1.44023E-01
      21    -1     0     0   502   511  0.000000000E+00  0.000000000E+00  5.539595448E+02  5.539595448E+02  0.000000000E+00  0.00000E+00  9.000E+00
      21    -1     0     0   501   502  0.000000000E+00  0.000000000E+00 -1.364061463E+02  1.364061463E+02  0.000000000E+00  0.00000E+00  9.000E+00
      25     1     1     2     0     0  1.655182418E+02  1.244133752E+02  1.537406711E+02  2.865940862E+02  1.250000000E+02  0.00000E+00  9.000E+00
      25     1     1     2     0     0 -1.617542968E+02 -1.654813935E+02  2.137772971E+02  3.389310798E+02  1.250000000E+02  0.00000E+00  9.000E+00
      21     1     1     2   501   511 -3.763944967E+00  4.106801824E+01  5.003543036E+01  6.484052510E+01  6.743495762E-07  0.00000E+00  9.000E+00
#rwgt            2          11   2.6776715975742314E-003           7      115143           0
</event>
<event>
      5   9999  3.79277E-02  6.07641E+01 -1.00000E+00  1.34410E-01
      21    -1     0     0   512   501  0.000000000E+00  0.000000000E+00  1.015399140E+03  1.015399140E+03  0.000000000E+00  0.00000E+00  9.000E+00
      21    -1     0     0   501   502  0.000000000E+00  0.000000000E+00 -1.308467336E+02  1.308467336E+02  0.000000000E+00  0.00000E+00  9.000E+00
      25     1     1     2     0     0  1.809087057E+02  1.786736201E+02  4.272895305E+02  5.126924665E+02  1.250000000E+02  0.00000E+00  9.000E+00
      25     1     1     2     0     0 -2.059857711E+02 -2.340217966E+02  2.531905355E+02  4.206266592E+02  1.250000000E+02  0.00000E+00  9.000E+00
      21     1     1     2   512   502  2.507706537E+01  5.534817643E+01  2.040723405E+02  2.129267480E+02  0.000000000E+00  0.00000E+00  9.000E+00
#rwgt            1           1   2.7665936386117290E-002           7      115178           0
</event>
<event>
      5   9999  3.79277E-02  9.76306E+00 -1.00000E+00  1.96969E-01
       2    -1     0     0   502     0  0.000000000E+00  0.000000000E+00  1.940027410E+03  1.940027410E+03  0.000000000E+00  0.00000E+00  9.000E+00
      21    -1     0     0   501   502  0.000000000E+00  0.000000000E+00 -1.262794021E+02  1.262794021E+02  0.000000000E+00  0.00000E+00  9.000E+00
      25     1     1     2     0     0 -2.566751413E+02  1.673319804E+02  3.957722309E+02  5.158902776E+02  1.250000000E+02  0.00000E+00  9.000E+00
      25     1     1     2     0     0  2.644240552E+02 -1.613929858E+02  3.552379253E+02  4.876338385E+02  1.250000000E+02  0.00000E+00  9.000E+00
       2     1     1     2   501     0 -7.748913908E+00 -5.938994603E+00  1.062737852E+03  1.062782696E+03  1.525878906E-05  0.00000E+00  9.000E+00
#rwgt            1           1   3.3227477621469506E-002           7      115319           0
</event>
<event>
      5   9999  3.79277E-02  1.51027E+02 -1.00000E+00  1.16276E-01
      21    -1     0     0   502   501  0.000000000E+00  0.000000000E+00  1.882561112E+02  1.882561112E+02  0.000000000E+00  0.00000E+00  9.000E+00
      -1    -1     0     0     0   502  0.000000000E+00  0.000000000E+00 -7.517322984E+02  7.517322984E+02  0.000000000E+00  0.00000E+00  9.000E+00
      25     1     1     2     0     0  1.755377208E+01 -1.421317759E+02 -4.027354330E+00  1.901336273E+02  1.250000000E+02  0.00000E+00  9.000E+00
      25     1     1     2     0     0 -1.047791422E+02  2.654238741E+02 -2.293667673E+02  3.868625279E+02  1.250000000E+02  0.00000E+00  9.000E+00
      -1     1     1     2     0   501  8.722537007E+01 -1.232920982E+02 -3.300820657E+02  3.629922544E+02  6.607249480E-06  0.00000E+00  9.000E+00
#rwgt            1           1   2.7954550504670311E-002           7      115662           0
</event>
<event>
      5   9999  3.79277E-02  1.22817E+02 -1.00000E+00  1.19942E-01
      21    -1     0     0   502   501  0.000000000E+00  0.000000000E+00  1.877010356E+02  1.877010356E+02  0.000000000E+00  0.00000E+00  9.000E+00
       1    -1     0     0   501     0  0.000000000E+00  0.000000000E+00 -1.117306529E+03  1.117306529E+03  0.000000000E+00  0.00000E+00  9.000E+00
      25     1     1     2     0     0 -2.344812834E+00 -1.047171253E+00  1.335298941E+02  1.829257426E+02  1.250000000E+02  0.00000E+00  9.000E+00
      25     1     1     2     0     0 -8.307794896E+01  8.929111128E+01 -2.845494937E+02  3.338686307E+02  1.250000000E+02  0.00000E+00  9.000E+00
       1     1     1     2   502     0  8.542276179E+01 -8.824394002E+01 -7.785858940E+02  7.882131917E+02  0.000000000E+00  0.00000E+00  9.000E+00
#rwgt            1           1   2.9726894869276443E-002           7      115697           0
</event>
<event>
      5   9999  3.79277E-02  3.74909E+01 -1.00000E+00  1.46607E-01
      21    -1     0     0   502   511  0.000000000E+00  0.000000000E+00  5.440684273E+02  5.440684273E+02  0.000000000E+00  0.00000E+00  9.000E+00
      21    -1     0     0   501   502  0.000000000E+00  0.000000000E+00 -2.134085309E+02  2.134085309E+02  0.000000000E+00  0.00000E+00  9.000E+00
      25     1     1     2     0     0  1.870269518E+02  1.175363658E+02  2.317988294E+02  3.437289271E+02  1.250000000E+02  0.00000E+00  9.000E+00
      25     1     1     2     0     0 -1.685622030E+02 -1.501649416E+02 -4.774356958E+01  2.624255597E+02  1.250000000E+02  0.00000E+00  9.000E+00
      21     1     1     2   501   511 -1.846474881E+01  3.262857581E+01  1.466046365E+02  1.513224714E+02  0.000000000E+00  0.00000E+00  9.000E+00
#rwgt            1           1   3.7350290248812423E-002           7      115764           0
</event>
<event>
      5   9999  3.79277E-02  8.40340E+01 -1.00000E+00  1.27324E-01
      21    -1     0     0   512   501  0.000000000E+00  0.000000000E+00  1.242324669E+02  1.242324669E+02  0.000000000E+00  0.00000E+00  9.000E+00
      21    -1     0     0   501   502  0.000000000E+00  0.000000000E+00 -4.396927494E+02  4.396927494E+02  0.000000000E+00  0.00000E+00  9.000E+00
      25     1     1     2     0     0  1.071996213E+02  8.987762810E+00 -3.098717861E+02  3.510243047E+02  1.250000000E+02  0.00000E+00  9.000E+00
      25     1     1     2     0     0 -2.369665500E+01 -1.841982524E+01  1.572084766E+00  1.285624085E+02  1.250000000E+02  0.00000E+00  9.000E+00
      21     1     1     2   512   502 -8.350296633E+01  9.432062433E+00 -7.160581260E+00  8.433850313E+01  9.536743164E-07  0.00000E+00  9.000E+00
#rwgt            1           1   2.8414564118472738E-002           7      115882           0
</event>
<event>
      5   9999  3.79277E-02  7.27171E+01 -1.00000E+00  1.30389E-01
      21    -1     0     0   502   501  0.000000000E+00  0.000000000E+00  2.750420972E+02  2.750420972E+02  0.000000000E+00  0.00000E+00  9.000E+00
      21    -1     0     0   501   511  0.000000000E+00  0.000000000E+00 -2.254735052E+02  2.254735052E+02  0.000000000E+00  0.00000E+00  9.000E+00
      25     1     1     2     0     0 -7.411981843E+01  1.187614938E+02  1.112926682E+02  2.181950914E+02  1.250000000E+02  0.00000E+00  9.000E+00
      25     1     1     2     0     0  1.359478450E+02 -8.048514565E+01 -3.302704405E+01  2.041456854E+02  1.250000000E+02  0.00000E+00  9.000E+00
      21     1     1     2   502   511 -6.182802661E+01 -3.827634812E+01 -2.869703213E+01  7.817482557E+01  1.545128989E-06  0.00000E+00  9.000E+00
#rwgt            1           1   3.0906529513558552E-002           7      115930           0
</event>
<event>
      5   9999  3.79277E-02  9.56909E+00 -1.00000E+00  1.97995E-01
      21    -1     0     0   502   501  0.000000000E+00  0.000000000E+00  1.115270998E+03  1.115270998E+03  0.000000000E+00  0.00000E+00  9.000E+00
      -4    -1     0     0     0   502  0.000000000E+00  0.000000000E+00 -9.364178267E+01  9.364178267E+01  0.000000000E+00  0.00000E+00  9.000E+00
      25     1     1     2     0     0  1.262380248E+02  1.234488067E+02  6.511438087E+02  6.861405879E+02  1.250000000E+02  0.00000E+00  9.000E+00
      25     1     1     2     0     0 -1.174148083E+02 -1.271526426E+02  4.206377508E+02  4.717151144E+02  1.250000000E+02  0.00000E+00  9.000E+00
      -4     1     1     2     0   501 -8.823216426E+00  3.703835860E+00 -5.015234456E+01  5.105707799E+01  9.536743164E-07  0.00000E+00  9.000E+00
#rwgt            1           1   3.6147484073793791E-002           7      116027           0
</event>
<event>
      5   9999  3.79277E-02  4.67307E+01 -1.00000E+00  1.40772E-01
      21    -1     0     0   502   501  0.000000000E+00  0.000000000E+00  4.397172874E+02  4.397172874E+02  0.000000000E+00  0.00000E+00  9.000E+00
      21    -1     0     0   501   511  0.000000000E+00  0.000000000E+00 -9.883165105E+01  9.883165105E+01  0.000000000E+00  0.00000E+00  9.000E+00
      25     1     1     2     0     0 -5.283885607E+01 -7.999493851E+01  6.105725343E+01  1.689500609E+02  1.250000000E+02  0.00000E+00  9.000E+00
      25     1     1     2     0     0  9.107371509E+01  1.068623384E+02  2.546368284E+02  3.165104979E+02  1.250000000E+02  0.00000E+00  9.000E+00
      21     1     1     2   502   511 -3.823485902E+01 -2.686739991E+01  2.519155456E+01  5.308837955E+01  6.743495762E-07  0.00000E+00  9.000E+00
#rwgt            1           1  0.12792164580913359                7      116277           0
</event>
<event>
      5   9999  3.79277E-02  1.15506E+02 -1.00000E+00  1.21076E-01
      21    -1     0     0   502   501  0.000000000E+00  0.000000000E+00  1.809273806E+02  1.809273806E+02  0.000000000E+00  0.00000E+00  9.000E+00
       2    -1     0     0   501     0  0.000000000E+00  0.000000000E+00 -6.165814805E+02  6.165814805E+02  0.000000000E+00  0.00000E+00  9.000E+00
      25     1     1     2     0     0 -2.112802159E+02  1.215547263E+02 -8.769221385E+01  2.876278941E+02  1.250000000E+02  0.00000E+00  9.000E+00
      25     1     1     2     0     0  1.012601753E+02 -1.567296946E+02 -1.207547180E+02  2.549990631E+02  1.250000000E+02  0.00000E+00  9.000E+00
       2     1     1     2   502     0  1.100200406E+02  3.517496830E+01 -2.272071680E+02  2.548819039E+02  2.697398305E-06  0.00000E+00  9.000E+00
#rwgt            1           1  0.30823272850930467                7      116357           0
</event>
<event>
      5   9999  3.79277E-02  3.65728E+00 -1.00000E+00  2.72987E-01
      21    -1     0     0   502   501  0.000000000E+00  0.000000000E+00  4.514688407E+01  4.514688407E+01  0.000000000E+00  0.00000E+00  9.000E+00
      21    -1     0     0   511   502  0.000000000E+00  0.000000000E+00 -1.736453672E+03  1.736453672E+03  0.000000000E+00  0.00000E+00  9.000E+00
      25     1     1     2     0     0  1.749499050E+02 -1.402505202E+02 -4.923620783E+02  5.552684880E+02  1.250000000E+02  0.00000E+00  9.000E+00
      25     1     1     2     0     0 -1.736099428E+02  1.368475466E+02 -1.177081386E+03  1.204164961E+03  1.250000000E+02  0.00000E+00  9.000E+00
      21     1     1     2   511   501 -1.339962145E+00  3.402973629E+00 -2.186332402E+01  2.216710773E+01  2.384185791E-07  0.00000E+00  9.000E+00
#rwgt            1           1   4.1161110721132065E-002           7      116432           0
</event>
<event>
      5   9999  3.79277E-02  3.46827E+01 -1.00000E+00  1.48790E-01
      21    -1     0     0   502   501  0.000000000E+00  0.000000000E+00  1.038234247E+02  1.038234247E+02  0.000000000E+00  0.00000E+00  9.000E+00
      21    -1     0     0   512   502  0.000000000E+00  0.000000000E+00 -6.925760754E+02  6.925760754E+02  0.000000000E+00  0.00000E+00  9.000E+00
      25     1     1     2     0     0  1.408689846E+02  1.273139134E+02 -1.650162136E+02  2.809061304E+02  1.250000000E+02  0.00000E+00  9.000E+00
      25     1     1     2     0     0 -1.703394751E+02 -1.456000489E+02 -3.497369832E+02  4.337693724E+02  1.250000000E+02  0.00000E+00  9.000E+00
      21     1     1     2   512   501  2.947049058E+01  1.828613546E+01 -7.399945388E+01  8.172399733E+01  1.348699152E-06  0.00000E+00  9.000E+00
#rwgt            1           1   3.6018196117391515E-002           7      117147           0
</event>
<event>
      5   9999  3.79277E-02  2.21187E+01 -1.00000E+00  1.62840E-01
      21    -1     0     0   502   511  0.000000000E+00  0.000000000E+00  1.118960355E+03  1.118960355E+03  0.000000000E+00  0.00000E+00  9.000E+00
      21    -1     0     0   501   502  0.000000000E+00  0.000000000E+00 -1.348602539E+02  1.348602539E+02  0.000000000E+00  0.00000E+00  9.000E+00
      25     1     1     2     0     0 -3.158963884E+02 -5.650628611E+01  3.606777265E+02  4.986952085E+02  1.250000000E+02  0.00000E+00  9.000E+00
      25     1     1     2     0     0  3.257946682E+02  7.628664976E+01  4.236640572E+02  5.541462371E+02  1.250000000E+02  0.00000E+00  9.000E+00
      21     1     1     2   501   511 -9.898279791E+00 -1.978036365E+01  1.997583174E+02  2.009791634E+02  2.697398305E-06  0.00000E+00  9.000E+00
#rwgt            1           1   3.4356624929339025E-002           7      117338           0
</event>
<event>
      5   9999  3.79277E-02  1.83194E+01 -1.00000E+00  1.69577E-01
      21    -1     0     0   502   501  0.000000000E+00  0.000000000E+00  4.521825432E+01  4.521825432E+01  0.000000000E+00  0.00000E+00  9.000E+00
       2    -1     0     0   501     0  0.000000000E+00  0.000000000E+00 -1.091905076E+03  1.091905076E+03  0.000000000E+00  0.00000E+00  9.000E+00
      25     1     1     2     0     0  7.997048786E+01 -7.264136189E+01 -1.696238093E+02  2.367895333E+02  1.250000000E+02  0.00000E+00  9.000E+00
      25     1     1     2     0     0 -9.622184166E+01  8.109678196E+01 -6.921364775E+02  7.145020885E+02  1.250000000E+02  0.00000E+00  9.000E+00
       2     1     1     2   502     0  1.625135381E+01 -8.455420071E+00 -1.849265349E+02  1.858317087E+02  3.814697266E-06  0.00000E+00  9.000E+00
#rwgt            2          13   4.0352230052740173E-005           7      117576           0
</event>
<event>
      5   9999  3.79277E-02  3.92022E+01 -1.00000E+00  1.45385E-01
      21    -1     0     0   502   501  0.000000000E+00  0.000000000E+00  5.077697549E+01  5.077697549E+01  0.000000000E+00  0.00000E+00  9.000E+00
      21    -1     0     0   501   511  0.000000000E+00  0.000000000E+00 -6.016536891E+02  6.016536891E+02  0.000000000E+00  0.00000E+00  9.000E+00
      25     1     1     2     0     0 -5.202474676E+01  5.066078562E+00 -3.062752833E+02  3.349056413E+02  1.250000000E+02  0.00000E+00  9.000E+00
      25     1     1     2     0     0  8.371290900E+01  1.801369714E+01 -1.418699607E+02  2.075678929E+02  1.250000000E+02  0.00000E+00  9.000E+00
      21     1     1     2   502   511 -3.168816224E+01 -2.307977570E+01 -1.027314695E+02  1.099571303E+02  1.348699152E-06  0.00000E+00  9.000E+00
#rwgt            1           1   9.1722686982816840E-002           7      117625           0
</event>
<event>
      5   9999  3.79277E-02  7.12419E+01 -1.00000E+00  1.30835E-01
      21    -1     0     0   502   501  0.000000000E+00  0.000000000E+00  9.007498762E+02  9.007498762E+02  0.000000000E+00  0.00000E+00  9.000E+00
      21    -1     0     0   512   502  0.000000000E+00  0.000000000E+00 -1.923070418E+03  1.923070418E+03  0.000000000E+00  0.00000E+00  9.000E+00
      25     1     1     2     0     0 -2.202960812E+02 -5.628222732E+01  6.691944954E+02  7.177355538E+02  1.250000000E+02  0.00000E+00  9.000E+00
      25     1     1     2     0     0  1.527309642E+02  7.887335994E+01  1.519338666E+02  2.612597446E+02  1.250000000E+02  0.00000E+00  9.000E+00
      21     1     1     2   512   501  6.756511699E+01 -2.259113262E+01 -1.843448903E+03  1.844824995E+03  0.000000000E+00  0.00000E+00  9.000E+00
#rwgt            2          11   2.9609735789305969E-002           7      117730           0
</event>
<event>
      5   9999  3.79277E-02  3.19553E+01 -1.00000E+00  1.51159E-01
      21    -1     0     0   511   501  0.000000000E+00  0.000000000E+00  2.261002269E+02  2.261002269E+02  0.000000000E+00  0.00000E+00  9.000E+00
      21    -1     0     0   501   502  0.000000000E+00  0.000000000E+00 -2.688568392E+03  2.688568392E+03  0.000000000E+00  0.00000E+00  9.000E+00
      25     1     1     2     0     0 -7.317120818E+01 -2.184621678E+01 -7.754892062E+01  1.657411174E+02  1.250000000E+02  0.00000E+00  9.000E+00
      25     1     1     2     0     0  9.126106565E+01  4.818810473E+01 -2.562940247E+03  2.568061211E+03  1.250000000E+02  0.00000E+00  9.000E+00
      21     1     1     2   511   502 -1.808985747E+01 -2.634188796E+01  1.780210019E+02  1.808662908E+02  5.046370146E-06  0.00000E+00  9.000E+00
#rwgt            1           1   5.3896419344009808E-002           7      117750           0
</event>
<event>
      5   9999  3.79277E-02  4.74046E+01 -1.00000E+00  1.40409E-01
      21    -1     0     0   502   501  0.000000000E+00  0.000000000E+00  2.288297338E+03  2.288297338E+03  0.000000000E+00  0.00000E+00  9.000E+00
      -1    -1     0     0     0   502  0.000000000E+00  0.000000000E+00 -4.081750595E+01  4.081750595E+01  0.000000000E+00  0.00000E+00  9.000E+00
      25     1     1     2     0     0  1.332245961E+02  3.752282280E+01  8.855746666E+02  9.049995831E+02  1.250000000E+02  0.00000E+00  9.000E+00
      25     1     1     2     0     0 -1.579505420E+02 -7.796816280E+01  1.359605180E+03  1.376654879E+03  1.250000000E+02  0.00000E+00  9.000E+00
      -1     1     1     2     0   501  2.472594594E+01  4.044533999E+01  2.299984748E+00  4.746038200E+01  1.644537409E-06  0.00000E+00  9.000E+00
#rwgt            1           1   7.2873055496236044E-002           7      117966           0
</event>
<event>
      5   9999  3.79277E-02  4.82358E+01 -1.00000E+00  1.39971E-01
      21    -1     0     0   502   501  0.000000000E+00  0.000000000E+00  9.230710297E+01  9.230710297E+01  0.000000000E+00  0.00000E+00  9.000E+00
      21    -1     0     0   501   511  0.000000000E+00  0.000000000E+00 -6.288337199E+02  6.288337199E+02  0.000000000E+00  0.00000E+00  9.000E+00
      25     1     1     2     0     0  1.324386981E+02  3.811180400E+01 -6.342394182E+01  1.965708899E+02  1.250000000E+02  0.00000E+00  9.000E+00
      25     1     1     2     0     0 -1.031917373E+02  2.458562601E-01 -2.624866445E+02  3.085009459E+02  1.250000000E+02  0.00000E+00  9.000E+00
      21     1     1     2   502   511 -2.924696077E+01 -3.835766027E+01 -2.106160306E+02  2.160689871E+02  0.000000000E+00  0.00000E+00  9.000E+00
#rwgt            1           1   4.6955705355375507E-002           7      118080           0
</event>
<event>
      5   9999  3.79277E-02  4.67778E+01 -1.00000E+00  1.40747E-01
      21    -1     0     0   502   501  0.000000000E+00  0.000000000E+00  2.688836885E+02  2.688836885E+02  0.000000000E+00  0.00000E+00  9.000E+00
      21    -1     0     0   512   502  0.000000000E+00  0.000000000E+00 -2.056527225E+02  2.056527225E+02  0.000000000E+00  0.00000E+00  9.000E+00
      25     1     1     2     0     0  1.066254842E+02  6.887184466E+01  9.034210309E+01  1.997473916E+02  1.250000000E+02  0.00000E+00  9.000E+00
      25     1     1     2     0     0 -1.345878054E+02 -3.137155492E+01  4.230449794E+01  1.910830248E+02  1.250000000E+02  0.00000E+00  9.000E+00
      21     1     1     2   512   501  2.796232113E+01 -3.750028974E+01 -6.941563510E+01  8.370599459E+01  1.651812370E-06  0.00000E+00  9.000E+00
#rwgt            1           1   3.2068089515932312E-002           7      118156           0
</event>
<event>
      5   9999 -5.81024E-02  4.58097E+01 -1.00000E+00  1.41280E-01
       2    -1     0     0   502     0  0.000000000E+00  0.000000000E+00  2.872259535E+03  2.872259535E+03  0.000000000E+00  0.00000E+00  9.000E+00
      21    -1     0     0   501   502  0.000000000E+00  0.000000000E+00 -1.145968389E+02  1.145968389E+02  0.000000000E+00  0.00000E+00  9.000E+00
      25     1     1     2     0     0  2.621510678E+02  4.145827136E+01  4.688941130E+02  5.531081809E+02  1.250000000E+02  0.00000E+00  9.000E+00
      25     1     1     2     0     0 -2.610943602E+02 -8.725583156E+01  2.441336928E+02  3.886001866E+02  1.250000000E+02  0.00000E+00  9.000E+00
       2     1     1     2   501     0 -1.056707555E+00  4.579756020E+01  2.044634890E+03  2.045148006E+03  2.157918644E-05  0.00000E+00  9.000E+00
#rwgt            1           1 -0.78170814757722951                7      118279           0
</event>
<event>
      5   9999  3.79277E-02  8.80369E+01 -1.00000E+00  1.26369E-01
      21    -1     0     0   502   501  0.000000000E+00  0.000000000E+00  1.980368251E+02  1.980368251E+02  0.000000000E+00  0.00000E+00  9.000E+00
      21    -1     0     0   501   511  0.000000000E+00  0.000000000E+00 -7.263364986E+02  7.263364986E+02  0.000000000E+00  0.00000E+00  9.000E+00
      25     1     1     2     0     0  1.284079934E+01 -9.085794952E+01 -3.538805724E+02  3.863631875E+02  1.250000000E+02  0.00000E+00  9.000E+00
      25     1     1     2     0     0 -1.562581204E+01  1.788508039E+02  1.067231262E+02  2.434062484E+02  1.250000000E+02  0.00000E+00  9.000E+00
      21     1     1     2   502   511  2.785012692E+00 -8.799285442E+01 -2.811422273E+02  2.946038878E+02  5.394796609E-06  0.00000E+00  9.000E+00
#rwgt            1           1   3.4444376817806897E-002           7      118611           0
</event>
<event>
      5   9999  3.79277E-02  4.77045E+01 -1.00000E+00  1.40250E-01
      21    -1     0     0   502   501  0.000000000E+00  0.000000000E+00  9.788819841E+02  9.788819841E+02  0.000000000E+00  0.00000E+00  9.000E+00
      21    -1     0     0   501   512  0.000000000E+00  0.000000000E+00 -9.336925532E+01  9.336925532E+01  0.000000000E+00  0.00000E+00  9.000E+00
      25     1     1     2     0     0 -1.430619400E+00 -1.226172128E+02  5.528172121E+01  1.836248792E+02  1.250000000E+02  0.00000E+00  9.000E+00
      25     1     1     2     0     0 -2.788243828E+01  8.498131476E+01  8.266168840E+02  8.407851849E+02  1.250000000E+02  0.00000E+00  9.000E+00
      21     1     1     2   502   512  2.931305768E+01  3.763589805E+01  3.614123602E+00  4.784117538E+01  7.408739862E-07  0.00000E+00  9.000E+00
#rwgt            1           1   4.4720553948628061E-002           7      118705           0
</event>
<event>
      5   9999  3.79277E-02  2.49270E+01 -1.00000E+00  1.58846E-01
       2    -1     0     0   502     0  0.000000000E+00  0.000000000E+00  1.666409067E+03  1.666409067E+03  0.000000000E+00  0.00000E+00  9.000E+00
      21    -1     0     0   501   502  0.000000000E+00  0.000000000E+00 -1.040721658E+03  1.040721658E+03  0.000000000E+00  0.00000E+00  9.000E+00
      25     1     1     2     0     0 -9.316044593E+01  1.047366868E+02 -5.178529889E+02  5.508587481E+02  1.250000000E+02  0.00000E+00  9.000E+00
      25     1     1     2     0     0  7.166079844E+01 -9.212234850E+01 -4.918285383E+02  5.207130767E+02  1.250000000E+02  0.00000E+00  9.000E+00
       2     1     1     2   501     0  2.149964749E+01 -1.261433834E+01  1.635368937E+03  1.635558900E+03  2.157918644E-05  0.00000E+00  9.000E+00
#rwgt            1           1   3.9865700448360165E-002           7      118873           0
</event>
<event>
      5   9999  3.79277E-02  2.95567E+01 -1.00000E+00  1.53490E-01
      21    -1     0     0   502   501  0.000000000E+00  0.000000000E+00  1.102177455E+02  1.102177455E+02  0.000000000E+00  0.00000E+00  9.000E+00
      21    -1     0     0   511   502  0.000000000E+00  0.000000000E+00 -9.710720691E+02  9.710720691E+02  0.000000000E+00  0.00000E+00  9.000E+00
      25     1     1     2     0     0 -1.223136986E+02  9.980827432E+01 -4.870451225E+01  2.071701282E+02  1.250000000E+02  0.00000E+00  9.000E+00
      25     1     1     2     0     0  1.357876095E+02 -7.350135607E+01 -2.922341985E+02  3.533646148E+02  1.250000000E+02  0.00000E+00  9.000E+00
      21     1     1     2   511   501 -1.347391083E+01 -2.630691825E+01 -5.199156129E+02  5.207550717E+02  7.629394531E-06  0.00000E+00  9.000E+00
#rwgt            1           1   4.3889921455375201E-002           7      119063           0
</event>
<event>
      5   9999  3.79277E-02  6.81396E+01 -1.00000E+00  1.31816E-01
      21    -1     0     0   502   512  0.000000000E+00  0.000000000E+00  3.489000918E+02  3.489000918E+02  0.000000000E+00  0.00000E+00  9.000E+00
      21    -1     0     0   501   502  0.000000000E+00  0.000000000E+00 -5.175644243E+02  5.175644243E+02  0.000000000E+00  0.00000E+00  9.000E+00
      25     1     1     2     0     0 -7.537222324E+01  8.669979313E+01 -1.180689739E+01  1.701829280E+02  1.250000000E+02  0.00000E+00  9.000E+00
      25     1     1     2     0     0  1.012067938E+01 -1.063273806E+02 -4.059791708E+02  4.380091633E+02  1.250000000E+02  0.00000E+00  9.000E+00
      21     1     1     2   501   512  6.525154386E+01  1.962758744E+01  2.491217357E+02  2.582724247E+02  2.697398305E-06  0.00000E+00  9.000E+00
#rwgt            1           1   3.7848378246450563E-002           7      119214           0
</event>
<event>
      5   9999 -3.79277E-02  1.54096E+02 -1.00000E+00  1.15932E-01
      21    -1     0     0   502   511  0.000000000E+00  0.000000000E+00  1.166205772E+03  1.166205772E+03  0.000000000E+00  0.00000E+00  9.000E+00
      21    -1     0     0   501   502  0.000000000E+00  0.000000000E+00 -9.982249913E+01  9.982249913E+01  0.000000000E+00  0.00000E+00  9.000E+00
      25     1     1     2     0     0  2.168001388E+02  9.027280916E+01  5.056905338E+02  5.714012567E+02  1.250000000E+02  0.00000E+00  9.000E+00
      25     1     1     2     0     0 -9.200320368E+01 -1.806672147E+02  2.363845105E+02  3.355709594E+02  1.250000000E+02  0.00000E+00  9.000E+00
      21     1     1     2   501   511 -1.247969351E+02  9.039440552E+01  3.243082287E+02  3.590560552E+02  0.000000000E+00  0.00000E+00  9.000E+00
#rwgt            1           1  -6.8824258485255960E-002           7      119378           0
</event>
<event>
      5   9999  3.79277E-02  1.30487E+01 -1.00000E+00  1.83282E-01
      21    -1     0     0   502   512  0.000000000E+00  0.000000000E+00  1.138936027E+03  1.138936027E+03  0.000000000E+00  0.00000E+00  9.000E+00
      21    -1     0     0   501   502  0.000000000E+00  0.000000000E+00 -1.116540518E+02  1.116540518E+02  0.000000000E+00  0.00000E+00  9.000E+00
      25     1     1     2     0     0 -9.847130524E+01  2.080962108E+02  9.471558677E+01  2.785617944E+02  1.250000000E+02  0.00000E+00  9.000E+00
      25     1     1     2     0     0  8.575437664E+01 -2.110199336E+02  9.044724226E+02  9.410518523E+02  1.250000000E+02  0.00000E+00  9.000E+00
      21     1     1     2   501   512  1.271692860E+01  2.923722777E+00  2.809396576E+01  3.097643201E+01  3.371747881E-07  0.00000E+00  9.000E+00
#rwgt            1           1   3.3644017878385293E-002           7      119571           0
</event>
<event>
      5   9999  3.79277E-02  3.58109E+01 -1.00000E+00  1.47884E-01
      21    -1     0     0   511   501  0.000000000E+00  0.000000000E+00  3.299695924E+02  3.299695924E+02  0.000000000E+00  0.00000E+00  9.000E+00
      21    -1     0     0   501   502  0.000000000E+00  0.000000000E+00 -1.565747171E+03  1.565747171E+03  0.000000000E+00  0.00000E+00  9.000E+00
      25     1     1     2     0     0  1.290698330E+02 -4.138271193E+01 -3.225320333E+02  3.715150914E+02  1.250000000E+02  0.00000E+00  9.000E+00
      25     1     1     2     0     0 -1.633346007E+02  3.097362082E+01 -1.208760214E+03  1.226525097E+03  1.250000000E+02  0.00000E+00  9.000E+00
      21     1     1     2   511   502  3.426476761E+01  1.040909110E+01  2.955146693E+02  2.976765750E+02  3.814697266E-06  0.00000E+00  9.000E+00
#rwgt            1           1   4.3612726782572386E-002           7      119883           0
</event>
<event>
      5   9999  3.79277E-02  1.97856E+01 -1.00000E+00  1.66756E-01
      21    -1     0     0   512   501  0.000000000E+00  0.000000000E+00  5.359276910E+02  5.359276910E+02  0.000000000E+00  0.00000E+00  9.000E+00
      21    -1     0     0   501   502  0.000000000E+00  0.000000000E+00 -1.689406468E+02  1.689406468E+02  0.000000000E+00  0.00000E+00  9.000E+00
      25     1     1     2     0     0 -7.622661532E+01  1.571150668E+01  1.191314911E+02  1.894060730E+02  1.250000000E+02  0.00000E+00  9.000E+00
      25     1     1     2     0     0  7.410379049E+01  3.959855296E+00 -9.394925770E+01  1.730852831E+02  1.250000000E+02  0.00000E+00  9.000E+00
      21     1     1     2   512   502  2.122824826E+00 -1.967136197E+01  3.418048108E+02  3.423769817E+02  3.814697266E-06  0.00000E+00  9.000E+00
#rwgt            1           1   4.2707509046942996E-002           7      120176           0
</event>
<event>
      5   9999  3.79277E-02  4.36860E+01 -1.00000E+00  1.42505E-01
      21    -1     0     0   502   501  0.000000000E+00  0.000000000E+00  8.914525035E+02  8.914525035E+02  0.000000000E+00  0.00000E+00  9.000E+00
      21    -1     0     0   511   502  0.000000000E+00  0.000000000E+00 -9.906270134E+02  9.906270134E+02  0.000000000E+00  0.00000E+00  9.000E+00
      25     1     1     2     0     0 -1.745748751E+01  2.179241132E+02  2.107910447E+02  3.284106385E+02  1.250000000E+02  0.00000E+00  9.000E+00
      25     1     1     2     0     0  8.808593318E-01 -1.775053032E+02  6.023640404E+02  6.402939526E+02  1.250000000E+02  0.00000E+00  9.000E+00
      21     1     1     2   511   501  1.657662818E+01 -4.041880997E+01 -9.123295951E+02  9.133749257E+02  0.000000000E+00  0.00000E+00  9.000E+00
#rwgt            1           1   3.6444356001525381E-002           7      120311           0
</event>
<event>
      5   9999  3.79277E-02  3.82544E+01 -1.00000E+00  1.46052E-01
      21    -1     0     0   502   512  0.000000000E+00  0.000000000E+00  2.726620267E+02  2.726620267E+02  0.000000000E+00  0.00000E+00  9.000E+00
      21    -1     0     0   501   502  0.000000000E+00  0.000000000E+00 -1.921531611E+02  1.921531611E+02  0.000000000E+00  0.00000E+00  9.000E+00
      25     1     1     2     0     0  3.197349671E+01  1.126814796E+02  1.372402659E+02  2.194978609E+02  1.250000000E+02  0.00000E+00  9.000E+00
      25     1     1     2     0     0  5.711279795E+00 -1.192583700E+02 -8.976274701E+01  1.947755844E+02  1.250000000E+02  0.00000E+00  9.000E+00
      21     1     1     2   501   512 -3.768477651E+01  6.576890417E+00  3.303134671E+01  5.054174249E+01  4.768371582E-07  0.00000E+00  9.000E+00
#rwgt            1           1   3.6893982279927365E-002           7      120494           0
</event>
<event>
      5   9999  3.79277E-02  2.86998E+01 -1.00000E+00  1.54389E-01
      21    -1     0     0   511   501  0.000000000E+00  0.000000000E+00  5.996097546E+02  5.996097546E+02  0.000000000E+00  0.00000E+00  9.000E+00
      21    -1     0     0   501   502  0.000000000E+00  0.000000000E+00 -1.849638323E+02  1.849638323E+02  0.000000000E+00  0.00000E+00  9.000E+00
      25     1     1     2     0     0 -2.587404323E+02  6.020556266E+01  2.179957660E+02  3.656753685E+02  1.250000000E+02  0.00000E+00  9.000E+00
      25     1     1     2     0     0  2.768833672E+02 -8.244314395E+01  1.197004023E+02  3.367706301E+02  1.250000000E+02  0.00000E+00  9.000E+00
      21     1     1     2   511   502 -1.814293489E+01  2.223758129E+01  7.694975400E+01  8.212758823E+01  0.000000000E+00  0.00000E+00  9.000E+00
#rwgt            1           1   2.0949166991056523E-002           7      120607           0
</event>
<event>
      5   9999  3.79277E-02  2.02694E+01 -1.00000E+00  1.65891E-01
      21    -1     0     0   502   501  0.000000000E+00  0.000000000E+00  2.141641844E+02  2.141641844E+02  0.000000000E+00  0.00000E+00  9.000E+00
      21    -1     0     0   512   502  0.000000000E+00  0.000000000E+00 -1.759693406E+02  1.759693406E+02  0.000000000E+00  0.00000E+00  9.000E+00
      25     1     1     2     0     0  9.703403269E+01  4.374309853E+01 -3.745708102E+01  1.683956504E+02  1.250000000E+02  0.00000E+00  9.000E+00
      25     1     1     2     0     0 -1.109200088E+02 -2.897732718E+01  9.441359392E+01  1.941181613E+02  1.250000000E+02  0.00000E+00  9.000E+00
      21     1     1     2   512   501  1.388597606E+01 -1.476577135E+01 -1.876166911E+01  2.761971330E+01  0.000000000E+00  0.00000E+00  9.000E+00
#rwgt            1           1   4.3513617747948256E-002           7      120784           0
</event>
<event>
      5   9999  3.79277E-02  2.94025E+01 -1.00000E+00  1.53649E-01
      21    -1     0     0   502   501  0.000000000E+00  0.000000000E+00  1.787265065E+01  1.787265065E+01  0.000000000E+00  0.00000E+00  9.000E+00
      21    -1     0     0   501   511  0.000000000E+00  0.000000000E+00 -3.340009701E+03  3.340009701E+03  0.000000000E+00  0.00000E+00  9.000E+00
      25     1     1     2     0     0  1.073470250E+02 -6.895229076E+01 -6.821666507E+02  7.051624930E+02  1.250000000E+02  0.00000E+00  9.000E+00
      25     1     1     2     0     0 -9.137599626E+01  4.426554693E+01 -1.032737819E+03  1.045218358E+03  1.250000000E+02  0.00000E+00  9.000E+00
      21     1     1     2   502   511 -1.597102877E+01  2.468674383E+01 -1.607232580E+03  1.607501501E+03  0.000000000E+00  0.00000E+00  9.000E+00
#rwgt            1           1  0.16638117557005616                7      121094           0
</event>
<event>
      5   9999  3.79277E-02  1.07464E+02 -1.00000E+00  1.22438E-01
      21    -1     0     0   502   501  0.000000000E+00  0.000000000E+00  1.201460155E+03  1.201460155E+03  0.000000000E+00  0.00000E+00  9.000E+00
       1    -1     0     0   501     0  0.000000000E+00  0.000000000E+00 -1.304312729E+02  1.304312729E+02  0.000000000E+00  0.00000E+00  9.000E+00
      25     1     1     2     0     0 -1.013748664E+02  1.013107794E+02  1.285351840E+02  2.295365572E+02  1.250000000E+02  0.00000E+00  9.000E+00
      25     1     1     2     0     0  6.382339189E+01 -2.020008081E+02  9.621619811E+02  9.931054474E+02  1.250000000E+02  0.00000E+00  9.000E+00
       1     1     1     2   502     0  3.755147450E+01  1.006900286E+02 -1.966828307E+01  1.092494232E+02  3.015782986E-06  0.00000E+00  9.000E+00
#rwgt            1           1   3.6283437747306024E-002           7      121182           0
</event>
<event>
      5   9999  3.79277E-02  9.01317E+00 -1.00000E+00  2.01122E-01
      21    -1     0     0   502   511  0.000000000E+00  0.000000000E+00  1.521799730E+02  1.521799730E+02  0.000000000E+00  0.00000E+00  9.000E+00
      21    -1     0     0   501   502  0.000000000E+00  0.000000000E+00 -5.088494235E+02  5.088494235E+02  0.000000000E+00  0.00000E+00  9.000E+00
      25     1     1     2     0     0 -1.773681693E+02  9.707853703E+01 -1.147428684E+02  2.639595342E+02  1.250000000E+02  0.00000E+00  9.000E+00
      25     1     1     2     0     0  1.685087783E+02 -9.873638585E+01 -2.767761801E+02  3.610735883E+02  1.250000000E+02  0.00000E+00  9.000E+00
      21     1     1     2   501   511  8.859391014E+00  1.657848823E+00  3.484959792E+01  3.599627407E+01  0.000000000E+00  0.00000E+00  9.000E+00
#rwgt            1           1   4.0305906248469997E-002           7      121259           0
</event>
<event>
      5   9999  3.79277E-02  5.75561E+01 -1.00000E+00  1.35676E-01
      21    -1     0     0   502   501  0.000000000E+00  0.000000000E+00  7.010352103E+02  7.010352103E+02  0.000000000E+00  0.00000E+00  9.000E+00
      21    -1     0     0   512   502  0.000000000E+00  0.000000000E+00 -3.664753028E+02  3.664753028E+02  0.000000000E+00  0.00000E+00  9.000E+00
      25     1     1     2     0     0  1.729381308E+02  2.956968944E+02  4.505755467E+02  5.796443510E+02  1.250000000E+02  0.00000E+00  9.000E+00
      25     1     1     2     0     0 -2.296271183E+02 -2.857436005E+02 -3.554394174E+01  3.889298015E+02  1.250000000E+02  0.00000E+00  9.000E+00
      21     1     1     2   512   501  5.668898754E+01 -9.953293865E+00 -8.047169736E+01  9.893636057E+01  9.536743164E-07  0.00000E+00  9.000E+00
#rwgt            1           1   2.5115463831019900E-002           7      121625           0
</event>
<event>
      5   9999  3.79277E-02  1.61880E+01 -1.00000E+00  1.74321E-01
      21    -1     0     0   502   501  0.000000000E+00  0.000000000E+00  7.139843034E+01  7.139843034E+01  0.000000000E+00  0.00000E+00  9.000E+00
      21    -1     0     0   511   502  0.000000000E+00  0.000000000E+00 -1.262955582E+03  1.262955582E+03  0.000000000E+00  0.00000E+00  9.000E+00
      25     1     1     2     0     0  2.014979368E+02  1.627738001E+02 -6.653584648E+02  7.248611006E+02  1.250000000E+02  0.00000E+00  9.000E+00
      25     1     1     2     0     0 -1.877559938E+02 -1.713301338E+02 -4.509990052E+02  5.325705874E+02  1.250000000E+02  0.00000E+00  9.000E+00
      21     1     1     2   511   501 -1.374194303E+01  8.556333762E+00 -7.519968191E+01  7.692232449E+01  9.536743164E-07  0.00000E+00  9.000E+00
#rwgt            1           1   3.4869655214540302E-002           7      121776           0
</event>
<event>
      5   9999  3.79277E-02  9.35087E+01 -1.00000E+00  1.25153E-01
       5    -1     0     0   502     0  0.000000000E+00  0.000000000E+00  8.644999923E+01  8.644999923E+01  0.000000000E+00  0.00000E+00  9.000E+00
      21    -1     0     0   501   502  0.000000000E+00  0.000000000E+00 -2.312683310E+03  2.312683310E+03  0.000000000E+00  0.00000E+00  9.000E+00
      25     1     1     2     0     0 -1.137958166E+02 -1.711814898E+02 -1.408123553E+03  1.428527049E+03  1.250000000E+02  0.00000E+00  9.000E+00
      25     1     1     2     0     0  4.260677737E+01  2.318114759E+02 -8.341108244E+02  8.757384114E+02  1.250000000E+02  0.00000E+00  9.000E+00
       5     1     1     2   501     0  7.118903918E+01 -6.062998611E+01  1.600106669E+01  9.486784835E+01  2.396077066E-06  0.00000E+00  9.000E+00
#rwgt            1           1   1.4433649623727380E-002           7      122162           0
</event>
<event>
      5   9999  3.79277E-02  1.14108E+01 -1.00000E+00  1.89357E-01
      21    -1     0     0   502   501  0.000000000E+00  0.000000000E+00  2.358538066E+02  2.358538066E+02  0.000000000E+00  0.00000E+00  9.000E+00
      21    -1     0     0   511   502  0.000000000E+00  0.000000000E+00 -1.174970828E+02  1.174970828E+02  0.000000000E+00  0.00000E+00  9.000E+00
      25     1     1     2     0     0  6.327066127E+01 -3.540158384E+01 -4.921005487E+00  1.445879145E+02  1.250000000E+02  0.00000E+00  9.000E+00
      25     1     1     2     0     0 -7.322826358E+01  4.097414217E+01  1.267836503E+02  1.968256916E+02  1.250000000E+02  0.00000E+00  9.000E+00
      21     1     1     2   511   501  9.957602307E+00 -5.572558332E+00 -3.505921048E+00  1.193728330E+01  1.460009660E-07  0.00000E+00  9.000E+00
#rwgt            1           1   4.2622603344020037E-002           7      122247           0
</event>
<event>
      5   9999  3.79277E-02  6.64884E+01 -1.00000E+00  1.32363E-01
      21    -1     0     0   502   501  0.000000000E+00  0.000000000E+00  7.946921401E+02  7.946921401E+02  0.000000000E+00  0.00000E+00  9.000E+00
      21    -1     0     0   501   512  0.000000000E+00  0.000000000E+00 -8.096825751E+02  8.096825751E+02  0.000000000E+00  0.00000E+00  9.000E+00
      25     1     1     2     0     0  4.308135652E+00  1.827873600E+02  7.335636914E+02  7.662704929E+02  1.250000000E+02  0.00000E+00  9.000E+00
      25     1     1     2     0     0  6.977713528E+00 -1.172637845E+02 -1.280777750E+02  2.140756877E+02  1.250000000E+02  0.00000E+00  9.000E+00
      21     1     1     2   502   512 -1.128584918E+01 -6.552357556E+01 -6.204763513E+02  6.240285345E+02  1.078959322E-05  0.00000E+00  9.000E+00
#rwgt            1           1   3.0073620386102225E-002           7      122453           0
</event>
<event>
      5   9999  3.79277E-02  8.26245E+01 -1.00000E+00  1.27675E-01
      21    -1     0     0   502   511  0.000000000E+00  0.000000000E+00  6.422149155E+02  6.422149155E+02  0.000000000E+00  0.00000E+00  9.000E+00
      21    -1     0     0   501   502  0.000000000E+00  0.000000000E+00 -8.438757606E+01  8.438757606E+01  0.000000000E+00  0.00000E+00  9.000E+00
      25     1     1     2     0     0  6.118785127E+01  1.051753240E+02  3.464973395E+02  3.879319634E+02  1.250000000E+02  0.00000E+00  9.000E+00
      25     1     1     2     0     0 -1.153355830E+02 -4.276678111E+01  1.064469162E+02  2.051517493E+02  1.250000000E+02  0.00000E+00  9.000E+00
      21     1     1     2   501   511  5.414773172E+01 -6.240854285E+01  1.048830838E+02  1.335187789E+02  1.907348633E-06  0.00000E+00  9.000E+00
#rwgt            1           1   4.1300727067309931E-002           7      122611           0
</event>
<event>
      5   9999  3.79277E-02  1.54804E+01 -1.00000E+00  1.76103E-01
      21    -1     0     0   502   501  0.000000000E+00  0.000000000E+00  4.288933813E+02  4.288933813E+02  0.000000000E+00  0.00000E+00  9.000E+00
      21    -1     0     0   512   502  0.000000000E+00  0.000000000E+00 -1.827146290E+02  1.827146290E+02  0.000000000E+00  0.00000E+00  9.000E+00
      25     1     1     2     0     0  1.373318312E+02 -6.276635892E+00 -7.708413204E+01  2.011625995E+02  1.250000000E+02  0.00000E+00  9.000E+00
      25     1     1     2     0     0 -1.508520743E+02  1.381623839E+01  3.368005870E+02  3.898805871E+02  1.250000000E+02  0.00000E+00  9.000E+00
      21     1     1     2   512   501  1.352024303E+01 -7.539602495E+00 -1.353770268E+01  2.056482364E+01  4.129530925E-07  0.00000E+00  9.000E+00
#rwgt            1           1   4.2754550484277988E-002           7      122722           0
</event>
<event>
      5   9999  3.79277E-02  1.05271E+02 -1.00000E+00  1.22833E-01
      21    -1     0     0   502   501  0.000000000E+00  0.000000000E+00  8.561923385E+02  8.561923385E+02  0.000000000E+00  0.00000E+00  9.000E+00
      21    -1     0     0   511   502  0.000000000E+00  0.000000000E+00 -8.544060563E+02  8.544060563E+02  0.000000000E+00  0.00000E+00  9.000E+00
      25     1     1     2     0     0  1.255234091E+02  2.658048598E+01  3.137370497E+02  3.612735595E+02  1.250000000E+02  0.00000E+00  9.000E+00
      25     1     1     2     0     0 -2.264910199E+02 -5.637021851E+01  4.811935749E+02  5.492249450E+02  1.250000000E+02  0.00000E+00  9.000E+00
      21     1     1     2   511   501  1.009676108E+02  2.978973253E+01 -7.931443424E+02  8.000998903E+02  1.078959322E-05  0.00000E+00  9.000E+00
#rwgt            1           1   3.9020101756630045E-002           7      122997           0
</event>
<event>
      5   9999  3.79277E-02  5.21133E+01 -1.00000E+00  1.38057E-01
      21    -1     0     0   502   512  0.000000000E+00  0.000000000E+00  2.385279977E+02  2.385279977E+02  0.000000000E+00  0.00000E+00  9.000E+00
      21    -1     0     0   501   502  0.000000000E+00  0.000000000E+00 -9.366681633E+02  9.366681633E+02  0.000000000E+00  0.00000E+00  9.000E+00
      25     1     1     2     0     0 -7.858047313E+01 -1.427649254E+02 -4.957253726E+02  5.365867681E+02  1.250000000E+02  0.00000E+00  9.000E+00
      25     1     1     2     0     0  5.324597729E+01  1.883056455E+02 -3.845204191E+02  4.491938367E+02  1.250000000E+02  0.00000E+00  9.000E+00
      21     1     1     2   501   512  2.533449584E+01 -4.554072009E+01  1.821056261E+02  1.894155562E+02  5.394796609E-06  0.00000E+00  9.000E+00
#rwgt            1           1   7.7877366500753858E-002           7      123053           0
</event>
<event>
      5   9999  3.79277E-02  2.90905E+01 -1.00000E+00  1.53974E-01
      21    -1     0     0   502   501  0.000000000E+00  0.000000000E+00  8.856295739E+01  8.856295739E+01  0.000000000E+00  0.00000E+00  9.000E+00
       1    -1     0     0   501     0  0.000000000E+00  0.000000000E+00 -2.339901537E+03  2.339901537E+03  0.000000000E+00  0.00000E+00  9.000E+00
      25     1     1     2     0     0  2.212613954E+02  1.350295835E+02 -2.815358040E+02  4.025878817E+02  1.250000000E+02  0.00000E+00  9.000E+00
      25     1     1     2     0     0 -2.205527117E+02 -1.059477549E+02 -6.491520434E+02  7.049055261E+02  1.250000000E+02  0.00000E+00  9.000E+00
       1     1     1     2   502     0 -7.086837213E-01 -2.908182861E+01 -1.320650733E+03  1.320971087E+03  2.642899792E-05  0.00000E+00  9.000E+00
#rwgt            1           1   3.5338771486233891E-002           7      123188           0
</event>
<event>
      5   9999  3.79277E-02  4.54080E+01 -1.00000E+00  1.41505E-01
      21    -1     0     0   502   501  0.000000000E+00  0.000000000E+00  2.085600356E+02  2.085600356E+02  0.000000000E+00  0.00000E+00  9.000E+00
      21    -1     0     0   501   511  0.000000000E+00  0.000000000E+00 -4.741154077E+02  4.741154077E+02  0.000000000E+00  0.00000E+00  9.000E+00
      25     1     1     2     0     0  7.603961217E+00  1.960586623E+02 -1.140646827E+02  2.590995391E+02  1.250000000E+02  0.00000E+00  9.000E+00
      25     1     1     2     0     0  3.044388063E+01 -2.208426225E+02  1.004287969E+01  2.557814560E+02  1.250000000E+02  0.00000E+00  9.000E+00
      21     1     1     2   502   511 -3.804784184E+01  2.478396021E+01 -1.615335690E+02  1.677944483E+02  0.000000000E+00  0.00000E+00  9.000E+00
#rwgt            1           1  0.11333640141252965                7      123425           0
</event>
<event>
      5   9999  3.79277E-02  5.42769E+01 -1.00000E+00  1.37072E-01
      21    -1     0     0   512   501  0.000000000E+00  0.000000000E+00  1.101352928E+03  1.101352928E+03  0.000000000E+00  0.00000E+00  9.000E+00
      21    -1     0     0   501   502  0.000000000E+00  0.000000000E+00 -1.090660620E+02  1.090660620E+02  0.000000000E+00  0.00000E+00  9.000E+00
      25     1     1     2     0     0 -7.384047263E+01 -1.426130213E+02  1.327444453E+02  2.429752601E+02  1.250000000E+02  0.00000E+00  9.000E+00
      25     1     1     2     0     0  2.347371252E+01  1.628409089E+02  1.487868414E+02  2.546187365E+02  1.250000000E+02  0.00000E+00  9.000E+00
      21     1     1     2   512   502  5.036676010E+01 -2.022788762E+01  7.107555789E+02  7.128249932E+02  0.000000000E+00  0.00000E+00  9.000E+00
#rwgt            1           1   2.8746477586049857E-002           7      123590           0
</event>
<event>
      5   9999  3.79277E-02  2.32734E+02 -1.00000E+00  1.09303E-01
      21    -1     0     0   511   501  0.000000000E+00  0.000000000E+00  8.702067462E+02  8.702067462E+02  0.000000000E+00  0.00000E+00  9.000E+00
      21    -1     0     0   501   502  0.000000000E+00  0.000000000E+00 -2.397038780E+02  2.397038780E+02  0.000000000E+00  0.00000E+00  9.000E+00
      25     1     1     2     0     0 -1.543899734E+02  1.094151680E+02  6.554570160E+01  2.360702901E+02  1.250000000E+02  0.00000E+00  9.000E+00
      25     1     1     2     0     0  1.643008554E+02 -3.419382951E+02  2.151523794E+02  4.536872437E+02  1.250000000E+02  0.00000E+00  9.000E+00
      21     1     1     2   511   502 -9.910881979E+00  2.325231271E+02  3.498047871E+02  4.201530903E+02  3.814697266E-06  0.00000E+00  9.000E+00
#rwgt            1           1   4.1774176762819686E-002           7      123695           0
</event>
<event>
      5   9999  3.79277E-02  5.87973E+01 -1.00000E+00  1.35175E-01
      21    -1     0     0   502   501  0.000000000E+00  0.000000000E+00  5.257551726E+02  5.257551726E+02  0.000000000E+00  0.00000E+00  9.000E+00
      21    -1     0     0   512   502  0.000000000E+00  0.000000000E+00 -1.961787661E+02  1.961787661E+02  0.000000000E+00  0.00000E+00  9.000E+00
      25     1     1     2     0     0  6.404109158E+01  3.385671836E+01  3.391017598E+01  1.483995917E+02  1.250000000E+02  0.00000E+00  9.000E+00
      25     1     1     2     0     0 -7.086126195E+00 -4.846008869E+01  4.173382667E+02  4.384002991E+02  1.250000000E+02  0.00000E+00  9.000E+00
      21     1     1     2   512   501 -5.695496539E+01  1.460337033E+01 -1.216720362E+02  1.351340479E+02  2.336015456E-06  0.00000E+00  9.000E+00
#rwgt            1           1   1.9711301999057771E-002           7      123773           0
</event>
<event>
      5   9999  3.79277E-02  1.40757E+01 -1.00000E+00  1.80026E-01
      21    -1     0     0   502   501  0.000000000E+00  0.000000000E+00  2.949509641E+02  2.949509641E+02  0.000000000E+00  0.00000E+00  9.000E+00
      21    -1     0     0   501   511  0.000000000E+00  0.000000000E+00 -1.713265036E+02  1.713265036E+02  0.000000000E+00  0.00000E+00  9.000E+00
      25     1     1     2     0     0 -1.034324229E+02  1.491012804E+01  2.137040911E+02  2.687285183E+02  1.250000000E+02  0.00000E+00  9.000E+00
      25     1     1     2     0     0  1.019263060E+02 -9.152522528E-01 -8.651412602E+01  1.830286960E+02  1.250000000E+02  0.00000E+00  9.000E+00
      21     1     1     2   502   511  1.506116874E+00 -1.399487579E+01 -3.565504497E+00  1.452025340E+01  3.209808354E-07  0.00000E+00  9.000E+00
#rwgt            1           1   2.5834687434405895E-002           7      123884           0
</event>
<event>
      5   9999  3.79277E-02  4.79971E+01 -1.00000E+00  1.40096E-01
      21    -1     0     0   502   501  0.000000000E+00  0.000000000E+00  4.488340330E+02  4.488340330E+02  0.000000000E+00  0.00000E+00  9.000E+00
      21    -1     0     0   512   502  0.000000000E+00  0.000000000E+00 -2.033636994E+02  2.033636994E+02  0.000000000E+00  0.00000E+00  9.000E+00
      25     1     1     2     0     0 -1.923178559E+01  1.208527627E+02  2.264566405E+02  2.861518161E+02  1.250000000E+02  0.00000E+00  9.000E+00
      25     1     1     2     0     0  6.715440727E+01 -1.235248047E+02  1.409034683E+02  2.350465469E+02  1.250000000E+02  0.00000E+00  9.000E+00
      21     1     1     2   512   501 -4.792262168E+01  2.672042027E+00 -1.218897753E+02  1.309993695E+02  2.336015456E-06  0.00000E+00  9.000E+00
#rwgt            1           1   5.5693801663661800E-002           7      124087           0
</event>
<event>
      5   9999  3.79277E-02  3.29733E+01 -1.00000E+00  1.50243E-01
      21    -1     0     0   502   501  0.000000000E+00  0.000000000E+00  8.916169597E+02  8.916169597E+02  0.000000000E+00  0.00000E+00  9.000E+00
       1    -1     0     0   501     0  0.000000000E+00  0.000000000E+00 -8.346953102E+01  8.346953102E+01  0.000000000E+00  0.00000E+00  9.000E+00
      25     1     1     2     0     0 -4.184805251E+00 -5.218696294E+01  1.921107509E+01  1.368760648E+02  1.250000000E+02  0.00000E+00  9.000E+00
      25     1     1     2     0     0 -2.205064423E+01  3.221345810E+01  7.941087174E+02  8.048338915E+02  1.250000000E+02  0.00000E+00  9.000E+00
       1     1     1     2   502     0  2.623544948E+01  1.997350484E+01 -5.172363855E+00  3.337653447E+01  7.679521279E-07  0.00000E+00  9.000E+00
#rwgt            1           1   4.9000143612499221E-002           7      124185           0
</event>
<event>
      5   9999  3.79277E-02  8.68695E+00 -1.00000E+00  2.03100E-01
      21    -1     0     0   511   501  0.000000000E+00  0.000000000E+00  2.197662908E+02  2.197662908E+02  0.000000000E+00  0.00000E+00  9.000E+00
      21    -1     0     0   501   502  0.000000000E+00  0.000000000E+00 -2.427523250E+02  2.427523250E+02  0.000000000E+00  0.00000E+00  9.000E+00
      25     1     1     2     0     0  1.710507228E+01  1.623021217E+02 -4.141990956E+01  2.097025777E+02  1.250000000E+02  0.00000E+00  9.000E+00
      25     1     1     2     0     0 -8.867156362E+00 -1.650589178E+02 -2.480025747E+01  2.087178133E+02  1.250000000E+02  0.00000E+00  9.000E+00
      21     1     1     2   511   502 -8.237915920E+00  2.756796113E+00  4.323413291E+01  4.409822482E+01  8.259061849E-07  0.00000E+00  9.000E+00
#rwgt            1           1   3.9055782866754006E-002           7      124269           0
</event>
<event>
      5   9999  3.79277E-02  1.17044E+01 -1.00000E+00  1.88174E-01
      21    -1     0     0   502   512  0.000000000E+00  0.000000000E+00  4.759638771E+02  4.759638771E+02  0.000000000E+00  0.00000E+00  9.000E+00
      21    -1     0     0   501   502  0.000000000E+00  0.000000000E+00 -1.209482330E+02  1.209482330E+02  0.000000000E+00  0.00000E+00  9.000E+00
      25     1     1     2     0     0 -1.295950994E+02 -2.575228119E+01  2.471287400E+02  3.068479817E+02  1.250000000E+02  0.00000E+00  9.000E+00
      25     1     1     2     0     0  1.390333181E+02  1.883038183E+01  6.518425490E+00  1.880221707E+02  1.250000000E+02  0.00000E+00  9.000E+00
      21     1     1     2   501   512 -9.438218730E+00  6.921899366E+00  1.013684786E+02  1.020419576E+02  1.348699152E-06  0.00000E+00  9.000E+00
#rwgt            1           1   2.7583823606130646E-002           7      124588           0
</event>
<event>
      5   9999  3.79277E-02  7.13767E+01 -1.00000E+00  1.30794E-01
      21    -1     0     0   511   501  0.000000000E+00  0.000000000E+00  2.274232725E+02  2.274232725E+02  0.000000000E+00  0.00000E+00  9.000E+00
      21    -1     0     0   501   502  0.000000000E+00  0.000000000E+00 -2.419143230E+02  2.419143230E+02  0.000000000E+00  0.00000E+00  9.000E+00
      25     1     1     2     0     0  4.510624530E+01  7.871997418E+01  6.829922576E+01  1.688821836E+02  1.250000000E+02  0.00000E+00  9.000E+00
      25     1     1     2     0     0 -2.227813259E+01 -1.463477479E+02 -1.114755179E+02  2.235302431E+02  1.250000000E+02  0.00000E+00  9.000E+00
      21     1     1     2   511   502 -2.282811270E+01  6.762777368E+01  2.868524167E+01  7.692516878E+01  7.539457465E-07  0.00000E+00  9.000E+00
#rwgt            1           1   2.6848068814775028E-002           7      124864           0
</event>
<event>
      5   9999  3.79277E-02  5.09283E+01 -1.00000E+00  1.38621E-01
      21    -1     0     0   502   501  0.000000000E+00  0.000000000E+00  1.896255544E+02  1.896255544E+02  0.000000000E+00  0.00000E+00  9.000E+00
      21    -1     0     0   512   502  0.000000000E+00  0.000000000E+00 -2.956490049E+02  2.956490049E+02  0.000000000E+00  0.00000E+00  9.000E+00
      25     1     1     2     0     0 -1.613617452E+02 -9.319309325E+00  1.920309879E+01  2.052272431E+02  1.250000000E+02  0.00000E+00  9.000E+00
      25     1     1     2     0     0  1.445798246E+02  5.740323466E+01 -9.924759428E+01  2.228756200E+02  1.250000000E+02  0.00000E+00  9.000E+00
      21     1     1     2   512   501  1.678192055E+01 -4.808392533E+01 -2.597895501E+01  5.717169611E+01  9.536743164E-07  0.00000E+00  9.000E+00
#rwgt            1           1   3.1640295500950703E-002           7      124993           0
</event>
<event>
      5   9999  3.79277E-02  5.76011E+01 -1.00000E+00  1.35657E-01
      21    -1     0     0   511   501  0.000000000E+00  0.000000000E+00  1.230005227E+02  1.230005227E+02  0.000000000E+00  0.00000E+00  9.000E+00
      21    -1     0     0   501   502  0.000000000E+00  0.000000000E+00 -8.510427201E+02  8.510427201E+02  0.000000000E+00  0.00000E+00  9.000E+00
      25     1     1     2     0     0 -1.862934573E+00  8.994124559E+01 -3.368638237E+02  3.703986149E+02  1.250000000E+02  0.00000E+00  9.000E+00
      25     1     1     2     0     0 -4.863717017E+01 -1.176472104E+02 -4.718874261E+02  5.044890320E+02  1.250000000E+02  0.00000E+00  9.000E+00
      21     1     1     2   511   502  5.050010474E+01  2.770596483E+01  8.070905247E+01  9.915559599E+01  2.336015456E-06  0.00000E+00  9.000E+00
#rwgt            1           1   3.8529804546462466E-002           7      125094           0
</event>
<event>
      5   9999  3.79277E-02  8.94012E+00 -1.00000E+00  2.01555E-01
      21    -1     0     0   512   501  0.000000000E+00  0.000000000E+00  8.288767889E+02  8.288767889E+02  0.000000000E+00  0.00000E+00  9.000E+00
      21    -1     0     0   501   502  0.000000000E+00  0.000000000E+00 -3.459567929E+02  3.459567929E+02  0.000000000E+00  0.00000E+00  9.000E+00
      25     1     1     2     0     0  8.290737861E+01  7.435651872E+01 -8.442492914E+01  1.874969172E+02  1.250000000E+02  0.00000E+00  9.000E+00
      25     1     1     2     0     0 -7.936237889E+01 -8.256375747E+01 -1.757494490E+02  2.441885133E+02  1.250000000E+02  0.00000E+00  9.000E+00
      21     1     1     2   512   502 -3.544999720E+00  8.207238748E+00  7.430943742E+02  7.431481513E+02  1.078959322E-05  0.00000E+00  9.000E+00
#rwgt            1           1   3.8946574659415638E-002           7      125192           0
</event>
<event>
      5   9999 -3.79277E-02  4.65067E+01 -1.00000E+00  1.40894E-01
       1    -1     0     0   502     0  0.000000000E+00  0.000000000E+00  4.117115815E+02  4.117115815E+02  0.000000000E+00  0.00000E+00  9.000E+00
      21    -1     0     0   501   502  0.000000000E+00  0.000000000E+00 -2.945031134E+02  2.945031134E+02  0.000000000E+00  0.00000E+00  9.000E+00
      25     1     1     2     0     0  2.762900490E+02 -4.308782779E+00  3.797092355E+01  3.056493871E+02  1.250000000E+02  0.00000E+00  9.000E+00
      25     1     1     2     0     0 -2.311930991E+02 -7.055008447E+00 -4.605525835E+01  2.669196678E+02  1.250000000E+02  0.00000E+00  9.000E+00
       1     1     1     2   501     0 -4.509694991E+01  1.136379123E+01  1.252928029E+02  1.336456401E+02  1.907348633E-06  0.00000E+00  9.000E+00
#rwgt            1           1  -6.5052918146378758E-002           7      125495           0
</event>
<event>
      5   9999  3.79277E-02  5.05826E+01 -1.00000E+00  1.38789E-01
      21    -1     0     0   502   511  0.000000000E+00  0.000000000E+00  4.258104458E+02  4.258104458E+02  0.000000000E+00  0.00000E+00  9.000E+00
      21    -1     0     0   501   502  0.000000000E+00  0.000000000E+00 -6.601427458E+02  6.601427458E+02  0.000000000E+00  0.00000E+00  9.000E+00
      25     1     1     2     0     0 -1.148648251E+02  6.518380730E+01 -1.771377617E+02  2.538614650E+02  1.250000000E+02  0.00000E+00  9.000E+00
      25     1     1     2     0     0  1.147295312E+02 -1.157661911E+02 -4.190687789E+02  4.666993870E+02  1.250000000E+02  0.00000E+00  9.000E+00
      21     1     1     2   501   511  1.352938549E-01  5.058238382E+01  3.618742406E+02  3.653923397E+02  7.629394531E-06  0.00000E+00  9.000E+00
#rwgt            1           1  0.14448278471292619                7      125743           0
</event>
<event>
      5   9999  3.79277E-02  4.33634E+01 -1.00000E+00  1.42699E-01
      21    -1     0     0   502   512  0.000000000E+00  0.000000000E+00  2.621317889E+02  2.621317889E+02  0.000000000E+00  0.00000E+00  9.000E+00
      21    -1     0     0   501   502  0.000000000E+00  0.000000000E+00 -3.411319805E+02  3.411319805E+02  0.000000000E+00  0.00000E+00  9.000E+00
      25     1     1     2     0     0  6.532957134E+01 -2.272910440E+02 -1.475831091E+02  3.055076851E+02  1.250000000E+02  0.00000E+00  9.000E+00
      25     1     1     2     0     0 -7.948658218E+01  1.863036375E+02  3.034913063E+01  2.399442264E+02  1.250000000E+02  0.00000E+00  9.000E+00
      21     1     1     2   501   512  1.415701084E+01  4.098740652E+01  3.823378687E+01  5.781185784E+01  6.743495762E-07  0.00000E+00  9.000E+00
#rwgt            1           1   4.3995635000712678E-002           7      125826           0
</event>
<event>
      5   9999  3.79277E-02  1.30682E+01 -1.00000E+00  1.83216E-01
      21    -1     0     0   502   501  0.000000000E+00  0.000000000E+00  1.244004645E+02  1.244004645E+02  0.000000000E+00  0.00000E+00  9.000E+00
      21    -1     0     0   501   511  0.000000000E+00  0.000000000E+00 -5.045963056E+02  5.045963056E+02  0.000000000E+00  0.00000E+00  9.000E+00
      25     1     1     2     0     0  1.584782594E+02  2.458648999E+01 -6.942339952E+01  2.148591692E+02  1.250000000E+02  0.00000E+00  9.000E+00
      25     1     1     2     0     0 -1.454299084E+02 -2.386612578E+01 -1.300249605E+02  2.329183131E+02  1.250000000E+02  0.00000E+00  9.000E+00
      21     1     1     2   502   511 -1.304835099E+01 -7.203642147E-01 -1.807474810E+02  1.812192878E+02  3.814697266E-06  0.00000E+00  9.000E+00
#rwgt            1           1   3.1373606393980957E-002           7      125928           0
</event>
<event>
      5   9999  3.79277E-02  1.15089E+02 -1.00000E+00  1.21144E-01
      21    -1     0     0   502   501  0.000000000E+00  0.000000000E+00  5.707485997E+01  5.707485997E+01  0.000000000E+00  0.00000E+00  9.000E+00
      21    -1     0     0   501   512  0.000000000E+00  0.000000000E+00 -2.152163067E+03  2.152163067E+03  0.000000000E+00  0.00000E+00  9.000E+00
      25     1     1     2     0     0  1.118563427E+02 -1.877359060E+02 -6.955362363E+02  7.396974164E+02  1.250000000E+02  0.00000E+00  9.000E+00
      25     1     1     2     0     0 -6.516602621E+01  2.929282774E+02 -9.002454672E+02  9.571418326E+02  1.250000000E+02  0.00000E+00  9.000E+00
      21     1     1     2   502   512 -4.669031654E+01 -1.051923714E+02 -4.993065037E+02  5.123986781E+02  5.394796609E-06  0.00000E+00  9.000E+00
#rwgt            1           1  0.30380523776068497                7      126241           0
</event>
<event>
      5   9999  3.79277E-02  9.41838E+00 -1.00000E+00  1.98814E-01
      21    -1     0     0   502   511  0.000000000E+00  0.000000000E+00  1.232041756E+02  1.232041756E+02  0.000000000E+00  0.00000E+00  9.000E+00
      21    -1     0     0   501   502  0.000000000E+00  0.000000000E+00 -6.396005789E+02  6.396005789E+02  0.000000000E+00  0.00000E+00  9.000E+00
      25     1     1     2     0     0  1.983628563E+01 -6.503051624E+01 -5.551004325E+02  5.730479355E+02  1.250000000E+02  0.00000E+00  9.000E+00
      25     1     1     2     0     0 -2.671584505E+01  5.859798131E+01 -9.219564651E+00  1.409165007E+02  1.250000000E+02  0.00000E+00  9.000E+00
      21     1     1     2   501   511  6.879559420E+00  6.432534930E+00  4.792359389E+01  4.884031834E+01  6.743495762E-07  0.00000E+00  9.000E+00
#rwgt            1           1   9.1437489978425292E-003           7      126421           0
</event>
<event>
      5   9999  3.79277E-02  1.91973E+01 -1.00000E+00  1.67850E-01
      21    -1     0     0   502   512  0.000000000E+00  0.000000000E+00  7.114922459E+01  7.114922459E+01  0.000000000E+00  0.00000E+00  9.000E+00
      21    -1     0     0   501   502  0.000000000E+00  0.000000000E+00 -1.101629594E+03  1.101629594E+03  0.000000000E+00  0.00000E+00  9.000E+00
      25     1     1     2     0     0 -5.924561675E+00  2.008864730E+02 -3.421957845E+02  4.160690212E+02  1.250000000E+02  0.00000E+00  9.000E+00
      25     1     1     2     0     0  2.492716686E+01 -1.981595624E+02 -6.969120753E+02  7.356629775E+02  1.250000000E+02  0.00000E+00  9.000E+00
      21     1     1     2   501   512 -1.900260519E+01 -2.726910608E+00  8.627490232E+00  2.104682002E+01  0.000000000E+00  0.00000E+00  9.000E+00
#rwgt            1           1   3.3834047703197118E-002           7      126724           0
</event>
<event>
      5   9999  3.79277E-02  5.63774E+01 -1.00000E+00  1.36165E-01
      21    -1     0     0   502   511  0.000000000E+00  0.000000000E+00  1.733818701E+02  1.733818701E+02  0.000000000E+00  0.00000E+00  9.000E+00
      21    -1     0     0   501   502  0.000000000E+00  0.000000000E+00 -6.062160647E+02  6.062160647E+02  0.000000000E+00  0.00000E+00  9.000E+00
      25     1     1     2     0     0 -2.468526034E+02  8.257020854E+01 -3.441503573E+02  4.492421569E+02  1.250000000E+02  0.00000E+00  9.000E+00
      25     1     1     2     0     0  1.942061791E+02 -6.240192254E+01 -1.180610884E+02  2.667835462E+02  1.250000000E+02  0.00000E+00  9.000E+00
      21     1     1     2   501   511  5.264642428E+01 -2.016828601E+01  2.937725112E+01  6.357223162E+01  1.168007728E-06  0.00000E+00  9.000E+00
#rwgt            1           1   3.9222792899376115E-002           7      127061           0
</event>
<event>
      5   9999  3.79277E-02  6.02566E+01 -1.00000E+00  1.34604E-01
      21    -1     0     0   512   501  0.000000000E+00  0.000000000E+00  1.451528077E+02  1.451528077E+02  0.000000000E+00  0.00000E+00  9.000E+00
      21    -1     0     0   501   502  0.000000000E+00  0.000000000E+00 -4.682345944E+02  4.682345944E+02  0.000000000E+00  0.00000E+00  9.000E+00
      25     1     1     2     0     0 -1.254846991E+01  1.015774693E+02 -3.552010116E+02  3.902155879E+02  1.250000000E+02  0.00000E+00  9.000E+00
      25     1     1     2     0     0 -4.279679249E+01 -7.774988256E+01 -3.183372888E+00  1.533353956E+02  1.250000000E+02  0.00000E+00  9.000E+00
      21     1     1     2   512   502  5.534526239E+01 -2.382758674E+01  3.530259778E+01  6.983641865E+01  0.000000000E+00  0.00000E+00  9.000E+00
#rwgt            1           1   3.7463764688583749E-002           7      127150           0
</event>
<event>
      5   9999  3.79277E-02  9.64019E+01 -1.00000E+00  1.24548E-01
      21    -1     0     0   502   511  0.000000000E+00  0.000000000E+00  8.656971689E+02  8.656971689E+02  0.000000000E+00  0.00000E+00  9.000E+00
      21    -1     0     0   501   502  0.000000000E+00  0.000000000E+00 -5.739298427E+02  5.739298427E+02  0.000000000E+00  0.00000E+00  9.000E+00
      25     1     1     2     0     0 -1.983571250E+02  4.667593963E+02 -2.463392017E+02  5.775100738E+02  1.250000000E+02  0.00000E+00  9.000E+00
      25     1     1     2     0     0  1.208470068E+02 -5.240787014E+02  3.586912600E+02  6.584427874E+02  1.250000000E+02  0.00000E+00  9.000E+00
      21     1     1     2   501   511  7.751011822E+01  5.731930509E+01  1.794152680E+02  2.036741504E+02  3.303624740E-06  0.00000E+00  9.000E+00
#rwgt            1           1   4.2072264246705501E-002           7      127218           0
</event>
<event>
      5   9999  3.79277E-02  2.05900E+01 -1.00000E+00  1.65334E-01
      21    -1     0     0   502   512  0.000000000E+00  0.000000000E+00  4.309513489E+02  4.309513489E+02  0.000000000E+00  0.00000E+00  9.000E+00
      21    -1     0     0   501   502  0.000000000E+00  0.000000000E+00 -1.287948545E+03  1.287948545E+03  0.000000000E+00  0.00000E+00  9.000E+00
      25     1     1     2     0     0  1.968028860E+02  3.296664022E+02 -2.596496739E+02  4.800565236E+02  1.250000000E+02  0.00000E+00  9.000E+00
      25     1     1     2     0     0 -2.044660160E+02 -3.105555307E+02 -8.757970803E+02  9.596335838E+02  1.250000000E+02  0.00000E+00  9.000E+00
      21     1     1     2   501   512  7.663129988E+00 -1.911087156E+01  2.784495576E+02  2.792097869E+02  6.607249480E-06  0.00000E+00  9.000E+00
#rwgt            1           1   2.8130045302936765E-002           7      127358           0
</event>
<event>
      5   9999  3.79277E-02  7.22132E+01 -1.00000E+00  1.30540E-01
      21    -1     0     0   502   511  0.000000000E+00  0.000000000E+00  3.539772288E+03  3.539772288E+03  0.000000000E+00  0.00000E+00  9.000E+00
      21    -1     0     0   501   502  0.000000000E+00  0.000000000E+00 -2.813889541E+02  2.813889541E+02  0.000000000E+00  0.00000E+00  9.000E+00
      25     1     1     2     0     0  2.452564230E+01  9.767023987E+01  3.551461291E+01  1.643997282E+02  1.250000000E+02  0.00000E+00  9.000E+00
      25     1     1     2     0     0 -5.609504157E+01 -3.272314103E+01 -1.936589495E+02  2.394707631E+02  1.250000000E+02  0.00000E+00  9.000E+00
      21     1     1     2   501   511  3.156939927E+01 -6.494709884E+01  3.416527671E+03  3.417290751E+03  0.000000000E+00  0.00000E+00  9.000E+00
#rwgt            1           1   5.1654530720761815E-002           7      127558           0
</event>
<event>
      5   9999  3.79277E-02  1.42957E+02 -1.00000E+00  1.17227E-01
      21    -1     0     0   502   501  0.000000000E+00  0.000000000E+00  1.803704801E+02  1.803704801E+02  0.000000000E+00  0.00000E+00  9.000E+00
      21    -1     0     0   501   512  0.000000000E+00  0.000000000E+00 -4.734251923E+02  4.734251923E+02  0.000000000E+00  0.00000E+00  9.000E+00
      25     1     1     2     0     0 -2.152401518E+02  5.244335795E-01 -3.411678782E+01  2.512320704E+02  1.250000000E+02  0.00000E+00  9.000E+00
      25     1     1     2     0     0  8.671205588E+01 -6.311164373E+01 -1.508439457E+02  2.233404490E+02  1.250000000E+02  0.00000E+00  9.000E+00
      21     1     1     2   502   512  1.285280959E+02  6.258721015E+01 -1.080939787E+02  1.792231529E+02  2.697398305E-06  0.00000E+00  9.000E+00
#rwgt            1           1   4.3804473294358423E-002           7      127779           0
</event>
<event>
      5   9999  3.79277E-02  4.54490E+01 -1.00000E+00  1.41482E-01
      21    -1     0     0   502   511  0.000000000E+00  0.000000000E+00  3.222096444E+02  3.222096444E+02  0.000000000E+00  0.00000E+00  9.000E+00
      21    -1     0     0   501   502  0.000000000E+00  0.000000000E+00 -1.488756027E+02  1.488756027E+02  0.000000000E+00  0.00000E+00  9.000E+00
      25     1     1     2     0     0 -1.187295206E+02  1.088930895E+01  8.252616022E+01  1.914440995E+02  1.250000000E+02  0.00000E+00  9.000E+00
      25     1     1     2     0     0  1.638218072E+02 -1.657259507E+01  3.839107462E+01  2.102643813E+02  1.250000000E+02  0.00000E+00  9.000E+00
      21     1     1     2   501   511 -4.509228660E+01  5.683286118E+00  5.241680690E+01  6.937676626E+01  6.743495762E-07  0.00000E+00  9.000E+00
#rwgt            1           1   2.9060881191343795E-002           7      127854           0
</event>
<event>
      5   9999  3.79277E-02  8.08474E+01 -1.00000E+00  1.28128E-01
       1    -1     0     0   502     0  0.000000000E+00  0.000000000E+00  2.980448687E+03  2.980448687E+03  0.000000000E+00  0.00000E+00  9.000E+00
      21    -1     0     0   501   502  0.000000000E+00  0.000000000E+00 -3.305915585E+01  3.305915585E+01  0.000000000E+00  0.00000E+00  9.000E+00
      25     1     1     2     0     0  1.075992889E+02  4.743009755E+01  1.333126662E+03  1.344127567E+03  1.250000000E+02  0.00000E+00  9.000E+00
      25     1     1     2     0     0 -8.273256193E+01  2.949805600E+01  1.945398668E+02  2.473571747E+02  1.250000000E+02  0.00000E+00  9.000E+00
       1     1     1     2   501     0 -2.486672701E+01 -7.692815354E+01  1.419723003E+03  1.422023101E+03  3.411968960E-05  0.00000E+00  9.000E+00
#rwgt            1           1   2.8450086634632912E-002           7      127966           0
</event>
<event>
      5   9999  3.79277E-02  3.10354E+01 -1.00000E+00  1.52023E-01
      21    -1     0     0   502   501  0.000000000E+00  0.000000000E+00  8.724926731E+02  8.724926731E+02  0.000000000E+00  0.00000E+00  9.000E+00
      21    -1     0     0   511   502  0.000000000E+00  0.000000000E+00 -8.116199003E+01  8.116199003E+01  0.000000000E+00  0.00000E+00  9.000E+00
      25     1     1     2     0     0  2.079180025E+02 -1.432387405E+01  4.152605654E+02  4.811459303E+02  1.250000000E+02  0.00000E+00  9.000E+00
      25     1     1     2     0     0 -1.796496184E+02  1.513822707E+00  3.826159654E+02  4.407904877E+02  1.250000000E+02  0.00000E+00  9.000E+00
      21     1     1     2   511   501 -2.826838406E+01  1.281005134E+01 -6.545847677E+00  3.171824514E+01  5.960464478E-07  0.00000E+00  9.000E+00
#rwgt            1           1   3.6858762468969297E-002           7      128068           0
</event>
<event>
      5   9999  3.79277E-02  2.70218E+01 -1.00000E+00  1.56262E-01
      21    -1     0     0   502   501  0.000000000E+00  0.000000000E+00  5.657197586E+02  5.657197586E+02  0.000000000E+00  0.00000E+00  9.000E+00
      21    -1     0     0   501   512  0.000000000E+00  0.000000000E+00 -9.073154450E+02  9.073154450E+02  0.000000000E+00  0.00000E+00  9.000E+00
      25     1     1     2     0     0 -1.903411638E+02 -1.056055135E+02  2.518743438E+02  3.555952308E+02  1.250000000E+02  0.00000E+00  9.000E+00
      25     1     1     2     0     0  1.988228838E+02  7.994934109E+01  2.029725863E+02  3.205390882E+02  1.250000000E+02  0.00000E+00  9.000E+00
      21     1     1     2   502   512 -8.481719953E+00  2.565617242E+01 -7.964426165E+02  7.969008847E+02  0.000000000E+00  0.00000E+00  9.000E+00
#rwgt            1           1   4.3659131636321812E-002           7      128304           0
</event>
<event>
      5   9999  3.79277E-02  3.37140E+01 -1.00000E+00  1.49601E-01
      21    -1     0     0   502   501  0.000000000E+00  0.000000000E+00  1.399465946E+02  1.399465946E+02  0.000000000E+00  0.00000E+00  9.000E+00
      21    -1     0     0   501   511  0.000000000E+00  0.000000000E+00 -9.998755364E+02  9.998755364E+02  0.000000000E+00  0.00000E+00  9.000E+00
      25     1     1     2     0     0 -1.958193288E+02 -4.921991095E+01 -7.546328408E+01  2.491736672E+02  1.250000000E+02  0.00000E+00  9.000E+00
      25     1     1     2     0     0  1.800056321E+02  7.899506927E+01 -2.053172809E+02  3.105196199E+02  1.250000000E+02  0.00000E+00  9.000E+00
      21     1     1     2   502   511  1.581369675E+01 -2.977515832E+01 -5.791483768E+02  5.801288438E+02  7.629394531E-06  0.00000E+00  9.000E+00
#rwgt            1           1   3.6554752413501777E-002           7      128436           0
</event>
<event>
      5   9999  3.79277E-02  2.44091E+01 -1.00000E+00  1.59533E-01
      21    -1     0     0   512   501  0.000000000E+00  0.000000000E+00  1.365729184E+03  1.365729184E+03  0.000000000E+00  0.00000E+00  9.000E+00
      21    -1     0     0   501   502  0.000000000E+00  0.000000000E+00 -8.018258930E+01  8.018258930E+01  0.000000000E+00  0.00000E+00  9.000E+00
      25     1     1     2     0     0 -1.809986796E+02 -1.033957442E+02  1.752538665E+02  2.996499953E+02  1.250000000E+02  0.00000E+00  9.000E+00
      25     1     1     2     0     0  1.594787963E+02  1.149152265E+02  7.547160253E+02  7.898482605E+02  1.250000000E+02  0.00000E+00  9.000E+00
      21     1     1     2   512   502  2.151988332E+01 -1.151948224E+01  3.555767028E+02  3.564135175E+02  3.814697266E-06  0.00000E+00  9.000E+00
#rwgt            1           1   3.2912475701975356E-002           7      128745           0
</event>
<event>
      5   9999  3.79277E-02  3.02989E+01 -1.00000E+00  1.52741E-01
      21    -1     0     0   502   501  0.000000000E+00  0.000000000E+00  1.905777975E+01  1.905777975E+01  0.000000000E+00  0.00000E+00  9.000E+00
       2    -1     0     0   501     0  0.000000000E+00  0.000000000E+00 -3.749199779E+03  3.749199779E+03  0.000000000E+00  0.00000E+00  9.000E+00
      25     1     1     2     0     0 -1.151852450E+02  7.485736303E+01 -7.439456834E+02  7.667799198E+02  1.250000000E+02  0.00000E+00  9.000E+00
      25     1     1     2     0     0  1.384964662E+02 -5.550248640E+01 -1.254009719E+03  1.269026072E+03  1.250000000E+02  0.00000E+00  9.000E+00
       2     1     1     2   502     0 -2.331122112E+01 -1.935487664E+01 -1.732186597E+03  1.732451566E+03  3.737624730E-05  0.00000E+00  9.000E+00
#rwgt            1           1  0.10137465178486850                7      128871           0
</event>
<event>
      5   9999  3.79277E-02  2.42972E+01 -1.00000E+00  1.59684E-01
      21    -1     0     0   502   501  0.000000000E+00  0.000000000E+00  1.025988715E+02  1.025988715E+02  0.000000000E+00  0.00000E+00  9.000E+00
       2    -1     0     0   501     0  0.000000000E+00  0.000000000E+00 -2.116854151E+03  2.116854151E+03  0.000000000E+00  0.00000E+00  9.000E+00
      25     1     1     2     0     0  7.350814845E+01  9.365663471E+01 -1.074773891E+03  1.088549002E+03  1.250000000E+02  0.00000E+00  9.000E+00
      25     1     1     2     0     0 -5.068166697E+01 -1.019815281E+02  2.074974551E+01  1.703655346E+02  1.250000000E+02  0.00000E+00  9.000E+00
       2     1     1     2   502     0 -2.282648148E+01  8.324893428E+00 -9.602311341E+02  9.605384860E+02  1.078959322E-05  0.00000E+00  9.000E+00
#rwgt            1           1   4.6904919769113450E-002           7      128991           0
</event>
<event>
      5   9999  3.79277E-02  1.68509E+01 -1.00000E+00  1.72752E-01
      21    -1     0     0   511   501  0.000000000E+00  0.000000000E+00  1.703129569E+01  1.703129569E+01  0.000000000E+00  0.00000E+00  9.000E+00
      21    -1     0     0   501   502  0.000000000E+00  0.000000000E+00 -2.280548535E+03  2.280548535E+03  0.000000000E+00  0.00000E+00  9.000E+00
      25     1     1     2     0     0  8.255857757E+01 -1.127908613E+02 -9.056233639E+02  9.248331603E+02  1.250000000E+02  0.00000E+00  9.000E+00
      25     1     1     2     0     0 -7.739581899E+01  9.675028611E+01 -1.313912276E+03  1.325647464E+03  1.250000000E+02  0.00000E+00  9.000E+00
      21     1     1     2   511   502 -5.162758575E+00  1.604057517E+01 -4.398159959E+01  4.709920626E+01  1.066240300E-06  0.00000E+00  9.000E+00
#rwgt            1           1   5.7893587355667568E-002           7      129236           0
</event>
<event>
      5   9999  3.79277E-02  5.28955E+01 -1.00000E+00  1.37695E-01
      21    -1     0     0   502   512  0.000000000E+00  0.000000000E+00  1.012302485E+03  1.012302485E+03  0.000000000E+00  0.00000E+00  9.000E+00
      21    -1     0     0   501   502  0.000000000E+00  0.000000000E+00 -6.691470030E+01  6.691470030E+01  0.000000000E+00  0.00000E+00  9.000E+00
      25     1     1     2     0     0 -1.109902019E+02  2.994701610E+01  9.331389660E+01  1.937734037E+02  1.250000000E+02  0.00000E+00  9.000E+00
      25     1     1     2     0     0  1.295401216E+02  1.958913007E+01  5.578577011E+02  5.865105214E+02  1.250000000E+02  0.00000E+00  9.000E+00
      21     1     1     2   501   512 -1.854991966E+01 -4.953614617E+01  2.942161868E+02  2.989332599E+02  6.607249480E-06  0.00000E+00  9.000E+00
#rwgt            1           1   3.2878180851539769E-002           7      129396           0
</event>
<event>
      5   9999  3.79277E-02  1.18922E+01 -1.00000E+00  1.87441E-01
      21    -1     0     0   502   511  0.000000000E+00  0.000000000E+00  1.721146973E+03  1.721146973E+03  0.000000000E+00  0.00000E+00  9.000E+00
      21    -1     0     0   501   502  0.000000000E+00  0.000000000E+00 -2.867995961E+01  2.867995961E+01  0.000000000E+00  0.00000E+00  9.000E+00
      25     1     1     2     0     0 -1.740249661E+02 -4.689674672E+01  7.526731609E+02  7.839807911E+02  1.250000000E+02  0.00000E+00  9.000E+00
      25     1     1     2     0     0  1.621925122E+02  4.808733601E+01  8.714862360E+02  8.965110498E+02  1.250000000E+02  0.00000E+00  9.000E+00
      21     1     1     2   501   511  1.183245390E+01 -1.190589286E+00  6.830761625E+01  6.933509144E+01  9.536743164E-07  0.00000E+00  9.000E+00
#rwgt            1           1   3.8039607471135543E-002           7      129525           0
</event>
<event>
      5   9999  3.79277E-02  4.13822E+01 -1.00000E+00  1.43931E-01
      21    -1     0     0   502   501  0.000000000E+00  0.000000000E+00  2.143469000E+02  2.143469000E+02  0.000000000E+00  0.00000E+00  9.000E+00
      21    -1     0     0   512   502  0.000000000E+00  0.000000000E+00 -4.798262053E+02  4.798262053E+02  0.000000000E+00  0.00000E+00  9.000E+00
      25     1     1     2     0     0  7.925679787E+01  1.669222803E+02  1.127014588E+02  2.499426064E+02  1.250000000E+02  0.00000E+00  9.000E+00
      25     1     1     2     0     0 -5.321148475E+01 -1.347644509E+02 -3.016035246E+02  3.571870734E+02  1.250000000E+02  0.00000E+00  9.000E+00
      21     1     1     2   512   501 -2.604531312E+01 -3.215782946E+01 -7.657723943E+01  8.704342554E+01  9.536743164E-07  0.00000E+00  9.000E+00
#rwgt            1           1   3.4410924445742203E-002           7      129785           0
</event>
<event>
      5   9999 -3.79277E-02  9.98290E+01 -1.00000E+00  1.23861E-01
      21    -1     0     0   511   501  0.000000000E+00  0.000000000E+00  2.009443795E+02  2.009443795E+02  0.000000000E+00  0.00000E+00  9.000E+00
      21    -1     0     0   501   502  0.000000000E+00  0.000000000E+00 -4.623386941E+02  4.623386941E+02  0.000000000E+00  0.00000E+00  9.000E+00
      25     1     1     2     0     0  1.248410783E+02  2.056896764E+02 -2.542036451E+02  3.716692494E+02  1.250000000E+02  0.00000E+00  9.000E+00
      25     1     1     2     0     0 -7.516828266E+01 -1.190961566E+02 -2.579966420E+01  1.900652202E+02  1.250000000E+02  0.00000E+00  9.000E+00
      21     1     1     2   511   502 -4.967279562E+01 -8.659351976E+01  1.860899477E+01  1.015486040E+02  1.168007728E-06  0.00000E+00  9.000E+00
#rwgt            1           1 -0.25496174023173829                7      129905           0
</event>
<event>
      5   9999  3.79277E-02  5.56439E+01 -1.00000E+00  1.36476E-01
      21    -1     0     0   502   501  0.000000000E+00  0.000000000E+00  3.538380622E+02  3.538380622E+02  0.000000000E+00  0.00000E+00  9.000E+00
      21    -1     0     0   501   512  0.000000000E+00  0.000000000E+00 -1.027045177E+03  1.027045177E+03  0.000000000E+00  0.00000E+00  9.000E+00
      25     1     1     2     0     0  1.991198861E+02 -4.457199388E+00 -5.920895530E+01  2.424856616E+02  1.250000000E+02  0.00000E+00  9.000E+00
      25     1     1     2     0     0 -2.287919551E+02  5.152955289E+01  1.936557424E+02  3.288291351E+02  1.250000000E+02  0.00000E+00  9.000E+00
      21     1     1     2   502   512  2.967206898E+01 -4.707235350E+01 -8.076539017E+02  8.095684425E+02  1.078959322E-05  0.00000E+00  9.000E+00
#rwgt            1           1   5.6399173539233164E-003           7      129962           0
</event>
<event>
      5   9999  3.79277E-02  6.34265E+01 -1.00000E+00  1.33427E-01
      21    -1     0     0   502   501  0.000000000E+00  0.000000000E+00  8.889068514E+01  8.889068514E+01  0.000000000E+00  0.00000E+00  9.000E+00
      21    -1     0     0   511   502  0.000000000E+00  0.000000000E+00 -1.103459740E+03  1.103459740E+03  0.000000000E+00  0.00000E+00  9.000E+00
      25     1     1     2     0     0 -2.258006140E+01  8.901346460E+01 -5.943007353E+00  1.552210533E+02  1.250000000E+02  0.00000E+00  9.000E+00
      25     1     1     2     0     0  5.808677453E+01 -3.645693109E+01 -9.009454267E+02  9.121572469E+02  1.250000000E+02  0.00000E+00  9.000E+00
      21     1     1     2   511   501 -3.550671313E+01 -5.255653351E+01 -1.076806203E+02  1.249721244E+02  0.000000000E+00  0.00000E+00  9.000E+00
#rwgt            1           1   8.1972735720320569E-003           7      130092           0
</event>
<event>
      5   9999  3.79277E-02  6.57766E+01 -1.00000E+00  1.32604E-01
       2    -1     0     0   502     0  0.000000000E+00  0.000000000E+00  2.556277381E+03  2.556277381E+03  0.000000000E+00  0.00000E+00  9.000E+00
      21    -1     0     0   501   502  0.000000000E+00  0.000000000E+00 -2.728089548E+01  2.728089548E+01  0.000000000E+00  0.00000E+00  9.000E+00
      25     1     1     2     0     0  8.827897115E+01  2.278774020E+01  3.060749481E+02  3.429567490E+02  1.250000000E+02  0.00000E+00  9.000E+00
      25     1     1     2     0     0 -1.539128030E+02 -1.845588328E+01  1.280951569E+03  1.296337801E+03  1.250000000E+02  0.00000E+00  9.000E+00
       2     1     1     2   501     0  6.563383182E+01 -4.331856918E+00  9.419699681E+02  9.442637267E+02  1.525878906E-05  0.00000E+00  9.000E+00
#rwgt            1           1   5.0367307463171772E-002           7      130234           0
</event>
<event>
      5   9999  3.79277E-02  4.22623E+01 -1.00000E+00  1.43374E-01
      21    -1     0     0   502   511  0.000000000E+00  0.000000000E+00  4.663383113E+02  4.663383113E+02  0.000000000E+00  0.00000E+00  9.000E+00
      21    -1     0     0   501   502  0.000000000E+00  0.000000000E+00 -3.199228422E+02  3.199228422E+02  0.000000000E+00  0.00000E+00  9.000E+00
      25     1     1     2     0     0  2.884765862E+01 -3.661715664E+01 -2.742671750E+02  3.049926013E+02  1.250000000E+02  0.00000E+00  9.000E+00
      25     1     1     2     0     0 -7.093862997E+01  4.041892662E+01  4.118719805E+02  4.380976000E+02  1.250000000E+02  0.00000E+00  9.000E+00
      21     1     1     2   501   511  4.209097135E+01 -3.801769979E+00  8.810663608E+00  4.317095224E+01  7.539457465E-07  0.00000E+00  9.000E+00
#rwgt            1           1   4.3803653834324163E-002           7      130338           0
</event>
<event>
      5   9999  3.79277E-02  6.02506E+01 -1.00000E+00  1.34607E-01
      21    -1     0     0   502   501  0.000000000E+00  0.000000000E+00  1.478693710E+03  1.478693710E+03  0.000000000E+00  0.00000E+00  9.000E+00
      21    -1     0     0   501   512  0.000000000E+00  0.000000000E+00 -2.856126607E+02  2.856126607E+02  0.000000000E+00  0.00000E+00  9.000E+00
      25     1     1     2     0     0 -7.344196349E+01 -1.272173102E+02  2.988726177E+02  3.557074748E+02  1.250000000E+02  0.00000E+00  9.000E+00
      25     1     1     2     0     0  1.161173593E+02  8.468556573E+01  1.139860927E+03  1.155665530E+03  1.250000000E+02  0.00000E+00  9.000E+00
      21     1     1     2   502   512 -4.267539586E+01  4.253174445E+01 -2.456524954E+02  2.529333651E+02  5.394796609E-06  0.00000E+00  9.000E+00
#rwgt            1           1   6.3515389574122241E-002           7      130572           0
</event>
<event>
      5   9999  3.79277E-02  3.03571E+01 -1.00000E+00  1.52684E-01
      21    -1     0     0   511   501  0.000000000E+00  0.000000000E+00  1.868900848E+03  1.868900848E+03  0.000000000E+00  0.00000E+00  9.000E+00
      21    -1     0     0   501   502  0.000000000E+00  0.000000000E+00 -1.836721911E+02  1.836721911E+02  0.000000000E+00  0.00000E+00  9.000E+00
      25     1     1     2     0     0 -3.492112309E+01  1.331013608E+02 -1.690515388E+01  1.866714796E+02  1.250000000E+02  0.00000E+00  9.000E+00
      25     1     1     2     0     0  1.156658905E+01 -1.524951873E+02  3.756866944E+01  2.010596256E+02  1.250000000E+02  0.00000E+00  9.000E+00
      21     1     1     2   511   502  2.335453404E+01  1.939382650E+01  1.664565142E+03  1.664841934E+03  0.000000000E+00  0.00000E+00  9.000E+00
#rwgt            1           1   3.2656052534344629E-002           7      130820           0
</event>
<event>
      5   9999  3.79277E-02  3.81577E+01 -1.00000E+00  1.46122E-01
      21    -1     0     0   502   512  0.000000000E+00  0.000000000E+00  1.714211178E+03  1.714211178E+03  0.000000000E+00  0.00000E+00  9.000E+00
      21    -1     0     0   501   502  0.000000000E+00  0.000000000E+00 -8.328424001E+01  8.328424001E+01  0.000000000E+00  0.00000E+00  9.000E+00
      25     1     1     2     0     0 -7.975449500E+01  6.626101753E+01  9.042687220E+02  9.187372985E+02  1.250000000E+02  0.00000E+00  9.000E+00
      25     1     1     2     0     0  4.239271737E+01 -5.850818633E+01 -6.578717873E+00  1.445289932E+02  1.250000000E+02  0.00000E+00  9.000E+00
      21     1     1     2   501   512  3.736177764E+01 -7.752831194E+00  7.332369340E+02  7.342291265E+02  1.078959322E-05  0.00000E+00  9.000E+00
#rwgt            1           1   4.6474171828118895E-002           7      131026           0
</event>
<event>
      5   9999  3.79277E-02  4.01279E+01 -1.00000E+00  1.44754E-01
      21    -1     0     0   502   501  0.000000000E+00  0.000000000E+00  9.743690928E+02  9.743690928E+02  0.000000000E+00  0.00000E+00  9.000E+00
      21    -1     0     0   501   511  0.000000000E+00  0.000000000E+00 -1.270540749E+02  1.270540749E+02  0.000000000E+00  0.00000E+00  9.000E+00
      25     1     1     2     0     0 -9.299714023E+01 -9.021581257E+00  1.205605359E+02  1.972047156E+02  1.250000000E+02  0.00000E+00  9.000E+00
      25     1     1     2     0     0  1.086479703E+02  4.597156240E+01  8.013170417E+02  8.195436336E+02  1.250000000E+02  0.00000E+00  9.000E+00
      21     1     1     2   502   511 -1.565083009E+01 -3.694998114E+01 -7.456255968E+01  8.467481854E+01  0.000000000E+00  0.00000E+00  9.000E+00
#rwgt            1           1   4.7594624810072046E-002           7      131279           0
</event>
<event>
      5   9999  3.79277E-02  1.32114E+01 -1.00000E+00  1.82741E-01
      21    -1     0     0   502   501  0.000000000E+00  0.000000000E+00  2.205871529E+03  2.205871529E+03  0.000000000E+00  0.00000E+00  9.000E+00
      21    -1     0     0   501   512  0.000000000E+00  0.000000000E+00 -1.535721258E+01  1.535721258E+01  0.000000000E+00  0.00000E+00  9.000E+00
      25     1     1     2     0     0  1.002992090E+02  3.386668812E+01  1.546787260E+03  1.555436502E+03  1.250000000E+02  0.00000E+00  9.000E+00
      25     1     1     2     0     0 -8.826724349E+01 -2.841031028E+01  5.687815350E+02  5.896911790E+02  1.250000000E+02  0.00000E+00  9.000E+00
      21     1     1     2   502   512 -1.203196551E+01 -5.456377846E+00  7.494552170E+01  7.610106094E+01  9.536743164E-07  0.00000E+00  9.000E+00
#rwgt            1           1  0.11703699435233994                7      131412           0
</event>
<event>
      5   9999  3.79277E-02  1.13723E+01 -1.00000E+00  1.89515E-01
      21    -1     0     0   511   501  0.000000000E+00  0.000000000E+00  3.965235805E+02  3.965235805E+02  0.000000000E+00  0.00000E+00  9.000E+00
      21    -1     0     0   501   502  0.000000000E+00  0.000000000E+00 -2.282644766E+02  2.282644766E+02  0.000000000E+00  0.00000E+00  9.000E+00
      25     1     1     2     0     0  4.650275892E+01 -2.040341907E+02 -7.472858072E+01  2.549545417E+02  1.250000000E+02  0.00000E+00  9.000E+00
      25     1     1     2     0     0 -3.513083671E+01  2.041327631E+02  1.693222322E+02  2.952954097E+02  1.250000000E+02  0.00000E+00  9.000E+00
      21     1     1     2   511   502 -1.137192221E+01 -9.857242358E-02  7.366545236E+01  7.453810571E+01  1.348699152E-06  0.00000E+00  9.000E+00
#rwgt            1           1   2.4631920449269335E-002           7      131579           0
</event>
<event>
      5   9999  3.79277E-02  7.07337E+01 -1.00000E+00  1.30992E-01
      21    -1     0     0   502   501  0.000000000E+00  0.000000000E+00  5.953088313E+01  5.953088313E+01  0.000000000E+00  0.00000E+00  9.000E+00
      21    -1     0     0   501   512  0.000000000E+00  0.000000000E+00 -2.234771578E+03  2.234771578E+03  0.000000000E+00  0.00000E+00  9.000E+00
      25     1     1     2     0     0 -6.510599558E+01  1.828497523E+02 -7.779860020E+02  8.115171236E+02  1.250000000E+02  0.00000E+00  9.000E+00
      25     1     1     2     0     0  4.159331021E+01 -2.495611564E+02 -4.387089226E+02  5.216332936E+02  1.250000000E+02  0.00000E+00  9.000E+00
      21     1     1     2   502   512  2.351268536E+01  6.671140409E+01 -9.585457703E+02  9.611520439E+02  0.000000000E+00  0.00000E+00  9.000E+00
#rwgt            1           1   4.0070445303360069E-002           7      131822           0
</event>
<event>
      5   9999  3.79277E-02  3.77419E+01 -1.00000E+00  1.46423E-01
      21    -1     0     0   511   501  0.000000000E+00  0.000000000E+00  1.369956593E+02  1.369956593E+02  0.000000000E+00  0.00000E+00  9.000E+00
      21    -1     0     0   501   502  0.000000000E+00  0.000000000E+00 -1.562492611E+03  1.562492611E+03  0.000000000E+00  0.00000E+00  9.000E+00
      25     1     1     2     0     0  3.846409500E+00 -3.929385240E+01 -6.592695516E+01  1.467316091E+02  1.250000000E+02  0.00000E+00  9.000E+00
      25     1     1     2     0     0  1.627099404E+01  7.122720678E+01 -1.448725026E+03  1.455942053E+03  1.250000000E+02  0.00000E+00  9.000E+00
      21     1     1     2   511   502 -2.011740354E+01 -3.193335438E+01  8.915502960E+01  9.681460814E+01  4.473129043E-06  0.00000E+00  9.000E+00
#rwgt            1           1   3.5054074427563649E-002           7      132015           0
</event>
<event>
      5   9999  3.79277E-02  1.21221E+02 -1.00000E+00  1.20182E-01
      21    -1     0     0   502   501  0.000000000E+00  0.000000000E+00  9.574797081E+01  9.574797081E+01  0.000000000E+00  0.00000E+00  9.000E+00
      21    -1     0     0   512   502  0.000000000E+00  0.000000000E+00 -7.552575453E+02  7.552575453E+02  0.000000000E+00  0.00000E+00  9.000E+00
      25     1     1     2     0     0 -2.508876452E+01  1.066001733E+02 -1.057553944E+02  1.969828584E+02  1.250000000E+02  0.00000E+00  9.000E+00
      25     1     1     2     0     0 -7.697582729E+01 -1.720014719E+02 -3.411997749E+02  4.093312481E+02  1.250000000E+02  0.00000E+00  9.000E+00
      21     1     1     2   512   501  1.020645918E+02  6.540129855E+01 -2.125544053E+02  2.446914096E+02  2.697398305E-06  0.00000E+00  9.000E+00
#rwgt            1           1   3.6583920519289777E-002           7      132226           0
</event>
<event>
      5   9999  3.79277E-02  2.65588E+01 -1.00000E+00  1.56808E-01
      21    -1     0     0   502   511  0.000000000E+00  0.000000000E+00  1.011100012E+03  1.011100012E+03  0.000000000E+00  0.00000E+00  9.000E+00
      21    -1     0     0   501   502  0.000000000E+00  0.000000000E+00 -9.162039917E+01  9.162039917E+01  0.000000000E+00  0.00000E+00  9.000E+00
      25     1     1     2     0     0  1.354854776E+02 -1.945614546E+02  4.126101849E+02  4.920189417E+02  1.250000000E+02  0.00000E+00  9.000E+00
      25     1     1     2     0     0 -1.603596271E+02  1.852529428E+02  3.200693960E+02  4.220228442E+02  1.250000000E+02  0.00000E+00  9.000E+00
      21     1     1     2   501   511  2.487414951E+01  9.308511812E+00  1.868000316E+02  1.886786250E+02  0.000000000E+00  0.00000E+00  9.000E+00
#rwgt            1           1   3.5875563632265142E-002           7      132274           0
</event>
<event>
      5   9999  3.79277E-02  1.19628E+01 -1.00000E+00  1.87170E-01
      21    -1     0     0   502   501  0.000000000E+00  0.000000000E+00  5.307499480E+02  5.307499480E+02  0.000000000E+00  0.00000E+00  9.000E+00
      21    -1     0     0   512   502  0.000000000E+00  0.000000000E+00 -1.917305786E+02  1.917305786E+02  0.000000000E+00  0.00000E+00  9.000E+00
      25     1     1     2     0     0 -1.635311132E+02  8.105822777E+01  3.717671745E+02  4.326068577E+02  1.250000000E+02  0.00000E+00  9.000E+00
      25     1     1     2     0     0  1.691138145E+02 -9.163849690E+01  2.513463974E+01  2.307679494E+02  1.250000000E+02  0.00000E+00  9.000E+00
      21     1     1     2   512   501 -5.582701316E+00  1.058026913E+01 -5.788244493E+01  5.910571952E+01  6.743495762E-07  0.00000E+00  9.000E+00
#rwgt            1           1   3.8624830846151502E-002           7      132431           0
</event>
<event>
      5   9999  3.79277E-02  5.43699E+01 -1.00000E+00  1.37031E-01
      21    -1     0     0   511   501  0.000000000E+00  0.000000000E+00  5.208157217E+02  5.208157217E+02  0.000000000E+00  0.00000E+00  9.000E+00
      21    -1     0     0   501   502  0.000000000E+00  0.000000000E+00 -3.178981374E+02  3.178981374E+02  0.000000000E+00  0.00000E+00  9.000E+00
      25     1     1     2     0     0 -4.503475149E+01 -4.276896926E+00  9.920076822E+01  1.658680593E+02  1.250000000E+02  0.00000E+00  9.000E+00
      25     1     1     2     0     0  9.518057446E+01 -1.673447709E+01 -2.604576226E+02  3.046351222E+02  1.250000000E+02  0.00000E+00  9.000E+00
      21     1     1     2   511   502 -5.014582297E+01  2.101137402E+01  3.641744387E+02  3.682106777E+02  7.629394531E-06  0.00000E+00  9.000E+00
#rwgt            1           1   4.2292978858151718E-002           7      132654           0
</event>
<event>
      5   9999  3.79277E-02  1.38065E+02 -1.00000E+00  1.17839E-01
      21    -1     0     0   502   501  0.000000000E+00  0.000000000E+00  6.721657604E+02  6.721657604E+02  0.000000000E+00  0.00000E+00  9.000E+00
      21    -1     0     0   512   502  0.000000000E+00  0.000000000E+00 -4.676093436E+02  4.676093436E+02  0.000000000E+00  0.00000E+00  9.000E+00
      25     1     1     2     0     0 -3.315732043E+02  7.593599808E+01  2.541018360E+02  4.426057034E+02  1.250000000E+02  0.00000E+00  9.000E+00
      25     1     1     2     0     0  3.005377908E+02 -2.104673096E+02  1.815095749E+02  4.280072171E+02  1.250000000E+02  0.00000E+00  9.000E+00
      21     1     1     2   512   501  3.103541355E+01  1.345313115E+02 -2.310549942E+02  2.691621834E+02  4.672030912E-06  0.00000E+00  9.000E+00
#rwgt            1           1   2.5937169235666580E-002           7      132750           0
</event>
<event>
      5   9999  3.79277E-02  2.97457E+01 -1.00000E+00  1.53297E-01
      21    -1     0     0   502   511  0.000000000E+00  0.000000000E+00  1.249163412E+03  1.249163412E+03  0.000000000E+00  0.00000E+00  9.000E+00
      21    -1     0     0   501   502  0.000000000E+00  0.000000000E+00 -8.999611026E+01  8.999611026E+01  0.000000000E+00  0.00000E+00  9.000E+00
      25     1     1     2     0     0 -6.326472302E+01  1.418441134E+02  1.946837242E+02  2.786555763E+02  1.250000000E+02  0.00000E+00  9.000E+00
      25     1     1     2     0     0  7.252957867E+01 -1.701101364E+02  2.133244327E+02  3.087560718E+02  1.250000000E+02  0.00000E+00  9.000E+00
      21     1     1     2   501   511 -9.264855654E+00  2.826602294E+01  7.511591444E+02  7.517478738E+02  0.000000000E+00  0.00000E+00  9.000E+00
#rwgt            1           1   4.0247710266945742E-002           7      132808           0
</event>
<event>
      5   9999  3.79277E-02  1.25289E+02 -1.00000E+00  1.19578E-01
      21    -1     0     0   502   512  0.000000000E+00  0.000000000E+00  3.862646841E+02  3.862646841E+02  0.000000000E+00  0.00000E+00  9.000E+00
      21    -1     0     0   501   502  0.000000000E+00  0.000000000E+00 -2.028953711E+02  2.028953711E+02  0.000000000E+00  0.00000E+00  9.000E+00
      25     1     1     2     0     0 -8.534468656E+01  5.229353071E+01  1.931440458E+02  2.508943031E+02  1.250000000E+02  0.00000E+00  9.000E+00
      25     1     1     2     0     0 -3.970283708E+01 -4.451251621E+01 -1.107618751E+02  1.773439380E+02  1.250000000E+02  0.00000E+00  9.000E+00
      21     1     1     2   501   512  1.250475236E+02 -7.781014496E+00  1.009871423E+02  1.609218141E+02  2.336015456E-06  0.00000E+00  9.000E+00
#rwgt            1           1   3.3109769325059102E-002           7      132954           0
</event>
<event>
      5   9999  3.79277E-02  5.09653E+00 -1.00000E+00  2.37074E-01
      21    -1     0     0   502   501  0.000000000E+00  0.000000000E+00  8.380107210E+01  8.380107210E+01  0.000000000E+00  0.00000E+00  9.000E+00
      21    -1     0     0   501   511  0.000000000E+00  0.000000000E+00 -7.619325258E+02  7.619325258E+02  0.000000000E+00  0.00000E+00  9.000E+00
      25     1     1     2     0     0  9.811603671E+01 -1.721675545E+02 -1.896135714E+02  3.014079129E+02  1.250000000E+02  0.00000E+00  9.000E+00
      25     1     1     2     0     0 -9.369171752E+01  1.746973857E+02 -4.710232479E+02  5.261038059E+02  1.250000000E+02  0.00000E+00  9.000E+00
      21     1     1     2   502   511 -4.424319193E+00 -2.529831138E+00 -1.749463444E+01  1.822187916E+01  4.768371582E-07  0.00000E+00  9.000E+00
#rwgt            1           1   4.1124845371553906E-002           7      133003           0
</event>
<event>
      5   9999  3.79277E-02  6.60798E+01 -1.00000E+00  1.32501E-01
      21    -1     0     0   512   501  0.000000000E+00  0.000000000E+00  1.881975878E+02  1.881975878E+02  0.000000000E+00  0.00000E+00  9.000E+00
      21    -1     0     0   501   502  0.000000000E+00  0.000000000E+00 -3.257684353E+02  3.257684353E+02  0.000000000E+00  0.00000E+00  9.000E+00
      25     1     1     2     0     0 -1.112094913E+02  4.699895034E+01  2.858981764E+01  1.761216340E+02  1.250000000E+02  0.00000E+00  9.000E+00
      25     1     1     2     0     0  8.644703066E+01 -1.082636032E+02 -1.912147395E+02  2.671744253E+02  1.250000000E+02  0.00000E+00  9.000E+00
      21     1     1     2   512   502  2.476246067E+01  6.126465287E+01  2.505407441E+01  7.066996388E+01  8.259061849E-07  0.00000E+00  9.000E+00
#rwgt            1           1   4.1192544174967788E-002           7      133370           0
</event>
<event>
      5   9999  3.79277E-02  2.25902E+01 -1.00000E+00  1.62120E-01
      21    -1     0     0   502   501  0.000000000E+00  0.000000000E+00  2.132323375E+02  2.132323375E+02  0.000000000E+00  0.00000E+00  9.000E+00
      21    -1     0     0   501   511  0.000000000E+00  0.000000000E+00 -5.197612482E+02  5.197612482E+02  0.000000000E+00  0.00000E+00  9.000E+00
      25     1     1     2     0     0  8.830106373E+00  5.146819950E+01 -4.524743838E+02  4.723187634E+02  1.250000000E+02  0.00000E+00  9.000E+00
      25     1     1     2     0     0  4.970196739E+00 -3.358335664E+01  1.788098762E+02  2.207951913E+02  1.250000000E+02  0.00000E+00  9.000E+00
      21     1     1     2   502   511 -1.380030311E+01 -1.788484285E+01 -3.286440313E+01  3.987963093E+01  4.768371582E-07  0.00000E+00  9.000E+00
#rwgt            1           1   4.1337789269148863E-002           7      133476           0
</event>
<event>
      5   9999  3.79277E-02  2.25737E+01 -1.00000E+00  1.62145E-01
      21    -1     0     0   512   501  0.000000000E+00  0.000000000E+00  1.132546340E+02  1.132546340E+02  0.000000000E+00  0.00000E+00  9.000E+00
      21    -1     0     0   501   502  0.000000000E+00  0.000000000E+00 -6.483236856E+02  6.483236856E+02  0.000000000E+00  0.00000E+00  9.000E+00
      25     1     1     2     0     0  8.148218654E+00 -1.050734673E+02 -2.075286910E+01  1.648105233E+02  1.250000000E+02  0.00000E+00  9.000E+00
      25     1     1     2     0     0 -2.910731312E+01  1.134573249E+02 -5.376628377E+02  5.642925901E+02  1.250000000E+02  0.00000E+00  9.000E+00
      21     1     1     2   512   502  2.095909447E+01 -8.383857581E+00  2.334665519E+01  3.247520619E+01  1.118282261E-06  0.00000E+00  9.000E+00
#rwgt            1           1   4.6860819924384838E-002           7      133701           0
</event>
<event>
      5   9999  3.79277E-02  6.17343E+01 -1.00000E+00  1.34045E-01
      21    -1     0     0   502   501  0.000000000E+00  0.000000000E+00  1.519661732E+02  1.519661732E+02  0.000000000E+00  0.00000E+00  9.000E+00
       2    -1     0     0   501     0  0.000000000E+00  0.000000000E+00 -1.995808322E+03  1.995808322E+03  0.000000000E+00  0.00000E+00  9.000E+00
      25     1     1     2     0     0  1.247752701E+02  4.430476636E+01  4.248234509E+01  1.869800257E+02  1.250000000E+02  0.00000E+00  9.000E+00
      25     1     1     2     0     0 -7.079304049E+01 -1.435406793E+01 -1.052792679E+02  1.786796521E+02  1.250000000E+02  0.00000E+00  9.000E+00
       2     1     1     2   502     0 -5.398222962E+01 -2.995069843E+01 -1.781045226E+03  1.782114817E+03  2.157918644E-05  0.00000E+00  9.000E+00
#rwgt            1           1   5.2344700778857445E-002           7      133885           0
</event>
<event>
      5   9999  3.79277E-02  6.67374E+01 -1.00000E+00  1.32279E-01
      21    -1     0     0   511   501  0.000000000E+00  0.000000000E+00  1.607217194E+02  1.607217194E+02  0.000000000E+00  0.00000E+00  9.000E+00
      21    -1     0     0   501   502  0.000000000E+00  0.000000000E+00 -7.966169870E+02  7.966169870E+02  0.000000000E+00  0.00000E+00  9.000E+00
      25     1     1     2     0     0  3.459299429E+01 -5.622364969E+01  6.750177616E+00  1.415215140E+02  1.250000000E+02  0.00000E+00  9.000E+00
      25     1     1     2     0     0 -3.983199435E+01 -1.030782119E+01 -7.093534826E+02  7.214569995E+02  1.250000000E+02  0.00000E+00  9.000E+00
      21     1     1     2   511   502  5.239000056E+00  6.653147088E+01  6.670803733E+01  9.436019279E+01  0.000000000E+00  0.00000E+00  9.000E+00
#rwgt            1           1   3.6443381075776063E-002           7      133954           0
</event>
<event>
      5   9999  3.79277E-02  4.86514E+01 -1.00000E+00  1.39756E-01
      21    -1     0     0   502   501  0.000000000E+00  0.000000000E+00  1.529143176E+02  1.529143176E+02  0.000000000E+00  0.00000E+00  9.000E+00
      21    -1     0     0   512   502  0.000000000E+00  0.000000000E+00 -2.618803273E+02  2.618803273E+02  0.000000000E+00  0.00000E+00  9.000E+00
      25     1     1     2     0     0  2.487231067E+01  1.120832818E+02 -2.063530644E+01  1.709740032E+02  1.250000000E+02  0.00000E+00  9.000E+00
      25     1     1     2     0     0  2.259271208E+01 -1.227618296E+02 -5.564352601E+01  1.852082596E+02  1.250000000E+02  0.00000E+00  9.000E+00
      21     1     1     2   512   501 -4.746502275E+01  1.067854777E+01 -3.268717733E+01  5.861238204E+01  1.066240300E-06  0.00000E+00  9.000E+00
#rwgt            1           1   3.8038344495594671E-002           7      134025           0
</event>
<event>
      5   9999  3.79277E-02  7.98952E+01 -1.00000E+00  1.28377E-01
      21    -1     0     0   502   511  0.000000000E+00  0.000000000E+00  6.310447032E+02  6.310447032E+02  0.000000000E+00  0.00000E+00  9.000E+00
      21    -1     0     0   501   502  0.000000000E+00  0.000000000E+00 -7.088447330E+02  7.088447330E+02  0.000000000E+00  0.00000E+00  9.000E+00
      25     1     1     2     0     0  1.504942933E+01 -1.100307828E+02 -6.234568825E+02  6.454895373E+02  1.250000000E+02  0.00000E+00  9.000E+00
      25     1     1     2     0     0 -4.703830707E+01  3.681910588E+01 -4.362233107E+00  1.386083618E+02  1.250000000E+02  0.00000E+00  9.000E+00
      21     1     1     2   501   511  3.198887775E+01  7.321167695E+01  5.500190858E+02  5.557915370E+02  1.321449896E-05  0.00000E+00  9.000E+00
#rwgt            1           1   3.9467526167268369E-002           7      134109           0
</event>
<event>
      5   9999  3.79277E-02  4.57991E+01 -1.00000E+00  1.41286E-01
      21    -1     0     0   512   501  0.000000000E+00  0.000000000E+00  2.030250228E+02  2.030250228E+02  0.000000000E+00  0.00000E+00  9.000E+00
      21    -1     0     0   501   502  0.000000000E+00  0.000000000E+00 -4.400945453E+02  4.400945453E+02  0.000000000E+00  0.00000E+00  9.000E+00
      25     1     1     2     0     0  1.843235462E+02 -3.457249287E+01 -3.564020624E+01  2.281789895E+02  1.250000000E+02  0.00000E+00  9.000E+00
      25     1     1     2     0     0 -2.187648157E+02  6.476117315E+01 -2.408429727E+02  3.545171246E+02  1.250000000E+02  0.00000E+00  9.000E+00
      21     1     1     2   512   502  3.444126951E+01 -3.018868029E+01  3.941365646E+01  6.042345387E+01  0.000000000E+00  0.00000E+00  9.000E+00
#rwgt            1           1   3.6356737136707395E-002           7      134194           0
</event>
<event>
      5   9999  3.79277E-02  3.06541E+01 -1.00000E+00  1.52392E-01
      21    -1     0     0   502   511  0.000000000E+00  0.000000000E+00  2.528527035E+01  2.528527035E+01  0.000000000E+00  0.00000E+00  9.000E+00
      21    -1     0     0   501   502  0.000000000E+00  0.000000000E+00 -2.751871654E+03  2.751871654E+03  0.000000000E+00  0.00000E+00  9.000E+00
      25     1     1     2     0     0 -8.604719363E+01  1.497082757E+02 -1.599845053E+03  1.613984474E+03  1.250000000E+02  0.00000E+00  9.000E+00
      25     1     1     2     0     0  8.986441459E+01 -1.801237314E+02 -1.089348050E+03  1.114820320E+03  1.250000000E+02  0.00000E+00  9.000E+00
      21     1     1     2   501   511 -3.817220960E+00  3.041545563E+01 -3.739328037E+01  4.835213060E+01  1.348699152E-06  0.00000E+00  9.000E+00
#rwgt            1           1   5.1609264916727238E-002           7      134307           0
</event>
<event>
      5   9999  3.79277E-02  1.20769E+01 -1.00000E+00  1.86737E-01
      21    -1     0     0   502   501  0.000000000E+00  0.000000000E+00  1.962633652E+02  1.962633652E+02  0.000000000E+00  0.00000E+00  9.000E+00
      21    -1     0     0   501   512  0.000000000E+00  0.000000000E+00 -1.957372225E+02  1.957372225E+02  0.000000000E+00  0.00000E+00  9.000E+00
      25     1     1     2     0     0 -4.273375367E+01 -3.103779718E+01  1.330410540E+02  1.900379978E+02  1.250000000E+02  0.00000E+00  9.000E+00
      25     1     1     2     0     0  4.682022889E+01  4.240226270E+01 -1.251074341E+02  1.877949834E+02  1.250000000E+02  0.00000E+00  9.000E+00
      21     1     1     2   502   512 -4.086475222E+00 -1.136446552E+01 -7.407477231E+00  1.416760654E+01  8.429369702E-08  0.00000E+00  9.000E+00
#rwgt            1           1   4.3460052341937026E-002           7      134401           0
</event>
<event>
      5   9999  3.79277E-02  9.86213E+01 -1.00000E+00  1.24100E-01
      21    -1     0     0   502   501  0.000000000E+00  0.000000000E+00  1.183369765E+03  1.183369765E+03  0.000000000E+00  0.00000E+00  9.000E+00
      21    -1     0     0   511   502  0.000000000E+00  0.000000000E+00 -8.904431707E+01  8.904431707E+01  0.000000000E+00  0.00000E+00  9.000E+00
      25     1     1     2     0     0  1.375942269E+02  2.702999772E+01  1.528716305E+02  2.421931615E+02  1.250000000E+02  0.00000E+00  9.000E+00
      25     1     1     2     0     0 -2.321321751E+02  1.054549865E+00  8.682581594E+02  9.074049207E+02  1.250000000E+02  0.00000E+00  9.000E+00
      21     1     1     2   511   501  9.453794817E+01 -2.808454759E+01  7.319565788E+01  1.228159997E+02  3.303624740E-06  0.00000E+00  9.000E+00
#rwgt            1           1   3.1795963365838120E-002           7      134700           0
</event>
<event>
      5   9999 -3.79277E-02  6.53013E+01 -1.00000E+00  1.32767E-01
      21    -1     0     0   502   501  0.000000000E+00  0.000000000E+00  8.380743864E+02  8.380743864E+02  0.000000000E+00  0.00000E+00  9.000E+00
      21    -1     0     0   512   502  0.000000000E+00  0.000000000E+00 -2.742712013E+02  2.742712013E+02  0.000000000E+00  0.00000E+00  9.000E+00
      25     1     1     2     0     0 -2.197961459E+02 -1.734229098E+02  5.405761377E+02  6.214767993E+02  1.250000000E+02  0.00000E+00  9.000E+00
      25     1     1     2     0     0  1.571594870E+02  1.549591255E+02  1.866250159E+02  3.149052738E+02  1.250000000E+02  0.00000E+00  9.000E+00
      21     1     1     2   512   501  6.263665894E+01  1.846378428E+01 -1.633979685E+02  1.759635146E+02  4.672030912E-06  0.00000E+00  9.000E+00
#rwgt            1           1 -0.34542025362664019                7      134750           0
</event>
<event>
      5   9999  3.79277E-02  3.85339E+01 -1.00000E+00  1.45853E-01
      21    -1     0     0   511   501  0.000000000E+00  0.000000000E+00  7.691771053E+02  7.691771053E+02  0.000000000E+00  0.00000E+00  9.000E+00
      21    -1     0     0   501   502  0.000000000E+00  0.000000000E+00 -6.552814895E+01  6.552814895E+01  0.000000000E+00  0.00000E+00  9.000E+00
      25     1     1     2     0     0 -1.310459486E+02  1.431628718E+01  2.868186726E+02  3.395113366E+02  1.250000000E+02  0.00000E+00  9.000E+00
      25     1     1     2     0     0  1.528724071E+02  1.744010927E+01  2.264937515E+02  3.009959297E+02  1.250000000E+02  0.00000E+00  9.000E+00
      21     1     1     2   511   502 -2.182645844E+01 -3.175639645E+01  1.903365323E+02  1.941979880E+02  0.000000000E+00  0.00000E+00  9.000E+00
#rwgt            1           1   3.4381866786986744E-002           7      134896           0
</event>
<event>
      5   9999  3.79277E-02  1.67257E+02 -1.00000E+00  1.14550E-01
      21    -1     0     0   502   501  0.000000000E+00  0.000000000E+00  2.573793036E+02  2.573793036E+02  0.000000000E+00  0.00000E+00  9.000E+00
       1    -1     0     0   501     0  0.000000000E+00  0.000000000E+00 -3.536766777E+03  3.536766777E+03  0.000000000E+00  0.00000E+00  9.000E+00
      25     1     1     2     0     0  7.943431089E+01  1.277956744E+02  2.688034768E+01  1.974565705E+02  1.250000000E+02  0.00000E+00  9.000E+00
      25     1     1     2     0     0  3.814477475E+01 -2.467500971E+02  6.894210261E+00  2.793083679E+02  1.250000000E+02  0.00000E+00  9.000E+00
       1     1     1     2   502     0 -1.175790856E+02  1.189544227E+02 -3.313162031E+03  3.317381142E+03  4.315837288E-05  0.00000E+00  9.000E+00
#rwgt            1           1   3.1490697443270287E-002           7      135173           0
</event>
<event>
      5   9999  3.79277E-02  6.57951E+01 -1.00000E+00  1.32598E-01
      21    -1     0     0   511   501  0.000000000E+00  0.000000000E+00  8.365611196E+01  8.365611196E+01  0.000000000E+00  0.00000E+00  9.000E+00
      21    -1     0     0   501   502  0.000000000E+00  0.000000000E+00 -1.672030686E+03  1.672030686E+03  0.000000000E+00  0.00000E+00  9.000E+00
      25     1     1     2     0     0  4.369614959E+00 -1.539900701E+02 -1.446740116E+03  1.460278740E+03  1.250000000E+02  0.00000E+00  9.000E+00
      25     1     1     2     0     0 -5.985619180E+01  1.186314465E+02 -6.328423072E+01  1.930960322E+02  1.250000000E+02  0.00000E+00  9.000E+00
      21     1     1     2   511   502  5.548657684E+01  3.535862361E+01 -7.835022694E+01  1.023120254E+02  0.000000000E+00  0.00000E+00  9.000E+00
#rwgt            1           1   3.4140616150838882E-002           7      135282           0
</event>
<event>
      5   9999 -3.79277E-02  5.19300E+01 -1.00000E+00  1.38144E-01
      21    -1     0     0   512   501  0.000000000E+00  0.000000000E+00  2.012596765E+03  2.012596765E+03  0.000000000E+00  0.00000E+00  9.000E+00
      21    -1     0     0   501   502  0.000000000E+00  0.000000000E+00 -3.426934915E+01  3.426934915E+01  0.000000000E+00  0.00000E+00  9.000E+00
      25     1     1     2     0     0  1.282787640E+02  3.878176756E+01  1.251928652E+03  1.265270649E+03  1.250000000E+02  0.00000E+00  9.000E+00
      25     1     1     2     0     0 -1.768226604E+02 -2.033689276E+01  4.433911176E+02  4.938628612E+02  1.250000000E+02  0.00000E+00  9.000E+00
      21     1     1     2   512   502  4.854389645E+01 -1.844487479E+01  2.830076460E+02  2.877326032E+02  5.394796609E-06  0.00000E+00  9.000E+00
#rwgt            1           1 -0.22173532852924788                7      135499           0
</event>
<event>
      5   9999  3.79277E-02  3.55208E+01 -1.00000E+00  1.48113E-01
      21    -1     0     0   502   501  0.000000000E+00  0.000000000E+00  9.928013768E+01  9.928013768E+01  0.000000000E+00  0.00000E+00  9.000E+00
      21    -1     0     0   511   502  0.000000000E+00  0.000000000E+00 -1.583071643E+03  1.583071643E+03  0.000000000E+00  0.00000E+00  9.000E+00
      25     1     1     2     0     0  9.512903760E+01 -2.169422083E+02 -1.915133381E+02  3.292655679E+02  1.250000000E+02  0.00000E+00  9.000E+00
      25     1     1     2     0     0 -6.793363813E+01  1.940919222E+02 -4.521062522E+02  5.121637597E+02  1.250000000E+02  0.00000E+00  9.000E+00
      21     1     1     2   511   501 -2.719539947E+01  2.285028607E+01 -8.401719149E+02  8.409224530E+02  1.525878906E-05  0.00000E+00  9.000E+00
#rwgt            1           1   4.1684184011715843E-002           7      135572           0
</event>
<event>
      5   9999  3.79277E-02  1.37880E+01 -1.00000E+00  1.80902E-01
      21    -1     0     0   512   501  0.000000000E+00  0.000000000E+00  1.877781228E+02  1.877781228E+02  0.000000000E+00  0.00000E+00  9.000E+00
      21    -1     0     0   501   502  0.000000000E+00  0.000000000E+00 -2.162159645E+02  2.162159645E+02  0.000000000E+00  0.00000E+00  9.000E+00
      25     1     1     2     0     0  1.956127017E+01 -8.775772006E+01 -1.389254389E+02  2.073869289E+02  1.250000000E+02  0.00000E+00  9.000E+00
      25     1     1     2     0     0 -9.577870429E+00  7.824772524E+01  1.068018005E+02  1.823350397E+02  1.250000000E+02  0.00000E+00  9.000E+00
      21     1     1     2   512   502 -9.983399737E+00  9.509994819E+00  3.685796727E+00  1.427211860E+01  3.097148194E-07  0.00000E+00  9.000E+00
#rwgt            1           1   4.2130589754818544E-002           7      135709           0
</event>
<event>
      5   9999  3.79277E-02  1.77483E+01 -1.00000E+00  1.70766E-01
       2    -1     0     0   502     0  0.000000000E+00  0.000000000E+00  4.296737754E+02  4.296737754E+02  0.000000000E+00  0.00000E+00  9.000E+00
      21    -1     0     0   501   502  0.000000000E+00  0.000000000E+00 -1.734335631E+02  1.734335631E+02  0.000000000E+00  0.00000E+00  9.000E+00
      25     1     1     2     0     0 -6.940036647E+01  2.429879177E+01  1.267464635E+02  1.926045383E+02  1.250000000E+02  0.00000E+00  9.000E+00
      25     1     1     2     0     0  5.344790194E+01 -3.207838922E+01 -1.053713435E+02  1.749680580E+02  1.250000000E+02  0.00000E+00  9.000E+00
       2     1     1     2   501     0  1.595246453E+01  7.779597444E+00  2.348650923E+02  2.355347424E+02  2.697398305E-06  0.00000E+00  9.000E+00
#rwgt            1           1   2.4119348213810551E-002           7      135985           0
</event>
<event>
      5   9999  3.79277E-02  5.41214E+01 -1.00000E+00  1.37141E-01
      21    -1     0     0   502   511  0.000000000E+00  0.000000000E+00  2.734051452E+02  2.734051452E+02  0.000000000E+00  0.00000E+00  9.000E+00
      21    -1     0     0   501   502  0.000000000E+00  0.000000000E+00 -4.108271571E+02  4.108271571E+02  0.000000000E+00  0.00000E+00  9.000E+00
      25     1     1     2     0     0  1.971223352E+02 -1.326802050E+02 -1.701184689E+02  3.178467324E+02  1.250000000E+02  0.00000E+00  9.000E+00
      25     1     1     2     0     0 -2.131152054E+02  1.843847390E+02  4.306374412E+01  3.112801131E+02  1.250000000E+02  0.00000E+00  9.000E+00
      21     1     1     2   501   511  1.599287019E+01 -5.170453398E+01 -1.036728709E+01  5.510545683E+01  1.111910230E-06  0.00000E+00  9.000E+00
#rwgt            1           1   3.0903072900271625E-002           7      136318           0
</event>
<event>
      5   9999  3.79277E-02  8.30169E+00 -1.00000E+00  2.05591E-01
      21    -1     0     0   502   512  0.000000000E+00  0.000000000E+00  6.187583084E+01  6.187583084E+01  0.000000000E+00  0.00000E+00  9.000E+00
      21    -1     0     0   501   502  0.000000000E+00  0.000000000E+00 -1.032528334E+03  1.032528334E+03  0.000000000E+00  0.00000E+00  9.000E+00
      25     1     1     2     0     0  4.450588818E+01 -7.237652411E+01 -8.971644602E+02  9.098066850E+02  1.250000000E+02  0.00000E+00  9.000E+00
      25     1     1     2     0     0 -3.621193852E+01  7.273497182E+01 -8.406336669E+01  1.711529440E+02  1.250000000E+02  0.00000E+00  9.000E+00
      21     1     1     2   501   512 -8.293949659E+00 -3.584477075E-01  1.057532348E+01  1.344453616E+01  2.665600750E-07  0.00000E+00  9.000E+00
#rwgt            1           1   5.1213697048322231E-002           7      136410           0
</event>
<event>
      5   9999  3.79277E-02  1.28329E+01 -1.00000E+00  1.84015E-01
      21    -1     0     0   502   501  0.000000000E+00  0.000000000E+00  1.947943784E+02  1.947943784E+02  0.000000000E+00  0.00000E+00  9.000E+00
      21    -1     0     0   501   511  0.000000000E+00  0.000000000E+00 -9.219883091E+02  9.219883091E+02  0.000000000E+00  0.00000E+00  9.000E+00
      25     1     1     2     0     0 -7.536997130E+01  1.187007346E+02  1.109465649E+02  2.184139127E+02  1.250000000E+02  0.00000E+00  9.000E+00
      25     1     1     2     0     0  6.287251271E+01 -1.157859443E+02 -2.444147717E+02  3.045043816E+02  1.250000000E+02  0.00000E+00  9.000E+00
      21     1     1     2   502   511  1.249745859E+01 -2.914790336E+00 -5.937257239E+02  5.938643933E+02  1.321449896E-05  0.00000E+00  9.000E+00
#rwgt            1           1   4.5369171784939620E-002           7      136615           0
</event>
<event>
      5   9999  3.79277E-02  6.78299E+01 -1.00000E+00  1.31917E-01
      21    -1     0     0   502   512  0.000000000E+00  0.000000000E+00  9.632730235E+02  9.632730235E+02  0.000000000E+00  0.00000E+00  9.000E+00
      21    -1     0     0   501   502  0.000000000E+00  0.000000000E+00 -7.994647730E+01  7.994647730E+01  0.000000000E+00  0.00000E+00  9.000E+00
      25     1     1     2     0     0  7.408563228E+01  1.896845941E+02  3.139500719E+02  3.945358967E+02  1.250000000E+02  0.00000E+00  9.000E+00
      25     1     1     2     0     0 -1.302285673E+02 -1.516205422E+02  3.763510377E+02  4.440871222E+02  1.250000000E+02  0.00000E+00  9.000E+00
      21     1     1     2   501   512  5.614293505E+01 -3.806405187E+01  1.930254366E+02  2.045964819E+02  2.697398305E-06  0.00000E+00  9.000E+00
#rwgt            1           1   3.8609799594848504E-002           7      136871           0
</event>
<event>
      5   9999  3.79277E-02  2.05022E+01 -1.00000E+00  1.65485E-01
      21    -1     0     0   502   511  0.000000000E+00  0.000000000E+00  9.133221876E+02  9.133221876E+02  0.000000000E+00  0.00000E+00  9.000E+00
      21    -1     0     0   501   502  0.000000000E+00  0.000000000E+00 -8.649766755E+01  8.649766755E+01  0.000000000E+00  0.00000E+00  9.000E+00
      25     1     1     2     0     0 -2.286124617E+01  1.408939009E+02  2.943354533E+02  3.501886448E+02  1.250000000E+02  0.00000E+00  9.000E+00
      25     1     1     2     0     0  4.335975665E+01 -1.405043029E+02  1.013164778E+02  2.179714575E+02  1.250000000E+02  0.00000E+00  9.000E+00
      21     1     1     2   501   511 -2.049851049E+01 -3.895980582E-01  4.311725890E+02  4.316597528E+02  0.000000000E+00  0.00000E+00  9.000E+00
#rwgt            1           1   3.2306491917762720E-002           7      136923           0
</event>
<event>
      5   9999  3.79277E-02  6.33646E+01 -1.00000E+00  1.33449E-01
      21    -1     0     0   502   512  0.000000000E+00  0.000000000E+00  1.323887944E+03  1.323887944E+03  0.000000000E+00  0.00000E+00  9.000E+00
      21    -1     0     0   501   502  0.000000000E+00  0.000000000E+00 -9.537231576E+01  9.537231576E+01  0.000000000E+00  0.00000E+00  9.000E+00
      25     1     1     2     0     0  6.904211443E+00  1.800090135E+02  8.710417258E+02  8.982146743E+02  1.250000000E+02  0.00000E+00  9.000E+00
      25     1     1     2     0     0  5.262380956E+01 -1.582953164E+02  6.002286683E+01  2.169203012E+02  1.250000000E+02  0.00000E+00  9.000E+00
      21     1     1     2   501   512 -5.952802100E+01 -2.171369705E+01  2.974510359E+02  3.041252845E+02  5.394796609E-06  0.00000E+00  9.000E+00
#rwgt            1           1   1.7883608077528514E-002           7      137060           0
</event>
<event>
      5   9999  3.79277E-02  5.61020E+01 -1.00000E+00  1.36281E-01
      21    -1     0     0   502   501  0.000000000E+00  0.000000000E+00  3.279533093E+02  3.279533093E+02  0.000000000E+00  0.00000E+00  9.000E+00
       2    -1     0     0   501     0  0.000000000E+00  0.000000000E+00 -1.743448853E+03  1.743448853E+03  0.000000000E+00  0.00000E+00  9.000E+00
      25     1     1     2     0     0  3.951766206E+01  1.386108192E+02  2.646710851E+01  1.926138953E+02  1.250000000E+02  0.00000E+00  9.000E+00
      25     1     1     2     0     0 -3.929572421E-01 -1.788188650E+02  1.633147529E+02  2.725308229E+02  1.250000000E+02  0.00000E+00  9.000E+00
       2     1     1     2   502     0 -3.912470482E+01  4.020804572E+01 -1.605277405E+03  1.606257444E+03  2.157918644E-05  0.00000E+00  9.000E+00
#rwgt            1           1   2.7230105650292498E-002           7      137183           0
</event>
<event>
      5   9999  3.79277E-02  1.00230E+01 -1.00000E+00  1.95642E-01
      21    -1     0     0   502   501  0.000000000E+00  0.000000000E+00  2.775849917E+02  2.775849917E+02  0.000000000E+00  0.00000E+00  9.000E+00
      21    -1     0     0   511   502  0.000000000E+00  0.000000000E+00 -1.973916804E+02  1.973916804E+02  0.000000000E+00  0.00000E+00  9.000E+00
      25     1     1     2     0     0 -9.365413094E+01 -3.415194604E+01 -8.635201393E+01  1.817116451E+02  1.250000000E+02  0.00000E+00  9.000E+00
      25     1     1     2     0     0  9.359148509E+01  2.412909731E+01  2.019788955E+02  2.564411309E+02  1.250000000E+02  0.00000E+00  9.000E+00
      21     1     1     2   511   501  6.264584713E-02  1.002284873E+01 -3.543357024E+01  3.682389606E+01  6.743495762E-07  0.00000E+00  9.000E+00
#rwgt            1           1   3.8978621043374816E-002           7      137296           0
</event>
<event>
      5   9999  3.79277E-02  1.29816E+01 -1.00000E+00  1.83508E-01
      21    -1     0     0   512   501  0.000000000E+00  0.000000000E+00  1.535499466E+02  1.535499466E+02  0.000000000E+00  0.00000E+00  9.000E+00
      21    -1     0     0   501   502  0.000000000E+00  0.000000000E+00 -4.075061999E+02  4.075061999E+02  0.000000000E+00  0.00000E+00  9.000E+00
      25     1     1     2     0     0 -1.559743126E+02  1.244802447E+02 -1.294708576E+02  2.687210831E+02  1.250000000E+02  0.00000E+00  9.000E+00
      25     1     1     2     0     0  1.480176834E+02 -1.347376584E+02 -1.381816851E+02  2.734641645E+02  1.250000000E+02  0.00000E+00  9.000E+00
      21     1     1     2   512   502  7.956629215E+00  1.025741374E+01  1.369628931E+01  1.887089891E+01  2.384185791E-07  0.00000E+00  9.000E+00
#rwgt            1           1   3.6416265148349079E-002           7      137579           0
</event>
<event>
      5   9999  3.79277E-02  5.45204E+01 -1.00000E+00  1.36964E-01
      21    -1     0     0   502   501  0.000000000E+00  0.000000000E+00  3.066834731E+02  3.066834731E+02  0.000000000E+00  0.00000E+00  9.000E+00
      21    -1     0     0   511   502  0.000000000E+00  0.000000000E+00 -2.587439024E+02  2.587439024E+02  0.000000000E+00  0.00000E+00  9.000E+00
      25     1     1     2     0     0  5.297094613E+01  1.029056141E+02 -1.433402219E+02  2.226362634E+02  1.250000000E+02  0.00000E+00  9.000E+00
      25     1     1     2     0     0 -7.985593145E+01 -1.503362727E+02  1.959173068E+02  2.880738721E+02  1.250000000E+02  0.00000E+00  9.000E+00
      21     1     1     2   511   501  2.688498532E+01  4.743065866E+01 -4.637514307E+00  5.471724002E+01  9.156639275E-07  0.00000E+00  9.000E+00
#rwgt            1           1   6.7458783256965985E-002           7      137943           0
</event>
<event>
      5   9999 -3.79277E-02  2.75878E+01 -1.00000E+00  1.55612E-01
      21    -1     0     0   502   512  0.000000000E+00  0.000000000E+00  1.015834493E+03  1.015834493E+03  0.000000000E+00  0.00000E+00  9.000E+00
      21    -1     0     0   501   502  0.000000000E+00  0.000000000E+00 -2.957502291E+02  2.957502291E+02  0.000000000E+00  0.00000E+00  9.000E+00
      25     1     1     2     0     0  9.941969263E+01  7.328172121E+01 -1.013534336E+01  1.760176444E+02  1.250000000E+02  0.00000E+00  9.000E+00
      25     1     1     2     0     0 -1.106373368E+02 -9.848590826E+01 -1.560730770E+02  2.488451321E+02  1.250000000E+02  0.00000E+00  9.000E+00
      21     1     1     2   501   512  1.121764413E+01  2.520418705E+01  8.862926842E+02  8.867219455E+02  1.078959322E-05  0.00000E+00  9.000E+00
#rwgt            1           1 -0.35906464786310610                7      138181           0
</event>
<event>
      5   9999  3.79277E-02  4.45449E+01 -1.00000E+00  1.42000E-01
      21    -1     0     0   502   501  0.000000000E+00  0.000000000E+00  9.932169558E+01  9.932169558E+01  0.000000000E+00  0.00000E+00  9.000E+00
       2    -1     0     0   501     0  0.000000000E+00  0.000000000E+00 -1.098493961E+03  1.098493961E+03  0.000000000E+00  0.00000E+00  9.000E+00
      25     1     1     2     0     0  1.484046647E+02  1.067489078E+02 -1.138258828E+02  2.489992076E+02  1.250000000E+02  0.00000E+00  9.000E+00
      25     1     1     2     0     0 -1.124671368E+02 -8.042898096E+01 -2.496284285E+02  3.115397730E+02  1.250000000E+02  0.00000E+00  9.000E+00
       2     1     1     2   502     0 -3.593752793E+01 -2.631992687E+01 -6.357179537E+02  6.372766755E+02  1.078959322E-05  0.00000E+00  9.000E+00
#rwgt            1           1   2.9082394660215716E-002           7      138285           0
</event>
<event>
      5   9999  3.79277E-02  3.40912E+01 -1.00000E+00  1.49281E-01
      21    -1     0     0   511   501  0.000000000E+00  0.000000000E+00  7.500083765E+02  7.500083765E+02  0.000000000E+00  0.00000E+00  9.000E+00
      21    -1     0     0   501   502  0.000000000E+00  0.000000000E+00 -9.922810119E+01  9.922810119E+01  0.000000000E+00  0.00000E+00  9.000E+00
      25     1     1     2     0     0  1.130978542E+02 -3.209809957E+01  2.450424126E+02  2.991524638E+02  1.250000000E+02  0.00000E+00  9.000E+00
      25     1     1     2     0     0 -1.466951572E+02  3.788031545E+01  6.389832552E+01  2.065487435E+02  1.250000000E+02  0.00000E+00  9.000E+00
      21     1     1     2   511   502  3.359730303E+01 -5.782215873E+00  3.418395372E+02  3.435352704E+02  0.000000000E+00  0.00000E+00  9.000E+00
#rwgt            1           1   3.6815671236864633E-002           7      138353           0
</event>
<event>
      5   9999  3.79277E-02  2.55999E+01 -1.00000E+00  1.57983E-01
      21    -1     0     0   512   501  0.000000000E+00  0.000000000E+00  1.292656975E+03  1.292656975E+03  0.000000000E+00  0.00000E+00  9.000E+00
      21    -1     0     0   501   502  0.000000000E+00  0.000000000E+00 -1.284958503E+02  1.284958503E+02  0.000000000E+00  0.00000E+00  9.000E+00
      25     1     1     2     0     0  3.215974725E+02  1.171513822E+01  8.877909092E+02  9.525543960E+02  1.250000000E+02  0.00000E+00  9.000E+00
      25     1     1     2     0     0 -3.112418945E+02 -3.512702887E+01  2.095472996E+02  3.970396653E+02  1.250000000E+02  0.00000E+00  9.000E+00
      21     1     1     2   512   502 -1.035557799E+01  2.341189066E+01  6.682291580E+01  7.155876394E+01  9.536743164E-07  0.00000E+00  9.000E+00
#rwgt            1           1  0.33626928773787484                7      138558           0
</event>
<event>
      5   9999  3.79277E-02  5.19106E+01 -1.00000E+00  1.38153E-01
      21    -1     0     0   502   511  0.000000000E+00  0.000000000E+00  4.828433774E+02  4.828433774E+02  0.000000000E+00  0.00000E+00  9.000E+00
      21    -1     0     0   501   502  0.000000000E+00  0.000000000E+00 -2.490431490E+02  2.490431490E+02  0.000000000E+00  0.00000E+00  9.000E+00
      25     1     1     2     0     0  2.640851895E+01 -4.035058618E+01 -1.903744565E+02  2.327939290E+02  1.250000000E+02  0.00000E+00  9.000E+00
      25     1     1     2     0     0 -6.495670904E+00 -7.588792738E+00  7.507427462E+01  1.461537896E+02  1.250000000E+02  0.00000E+00  9.000E+00
      21     1     1     2   501   511 -1.991284804E+01  4.793937892E+01  3.491004103E+02  3.529388078E+02  0.000000000E+00  0.00000E+00  9.000E+00
#rwgt            1           1   4.7263507011499305E-002           7      138707           0
</event>
<event>
      5   9999  3.79277E-02  1.37882E+01 -1.00000E+00  1.80901E-01
      21    -1     0     0   502   501  0.000000000E+00  0.000000000E+00  1.349752192E+02  1.349752192E+02  0.000000000E+00  0.00000E+00  9.000E+00
      21    -1     0     0   512   502  0.000000000E+00  0.000000000E+00 -2.579848346E+02  2.579848346E+02  0.000000000E+00  0.00000E+00  9.000E+00
      25     1     1     2     0     0 -1.150272596E+02 -1.669198945E+01 -4.354676151E+01  1.761567864E+02  1.250000000E+02  0.00000E+00  9.000E+00
      25     1     1     2     0     0  1.264782152E+02  2.437250831E+01 -5.330790021E+01  1.872364556E+02  1.250000000E+02  0.00000E+00  9.000E+00
      21     1     1     2   512   501 -1.145095561E+01 -7.680518865E+00 -2.615495374E+01  2.956681179E+01  4.768371582E-07  0.00000E+00  9.000E+00
#rwgt            1           1   4.9832192042305656E-002           7      138798           0
</event>
<event>
      5   9999 -4.10081E-02  9.33319E+01 -1.00000E+00  1.25191E-01
      21    -1     0     0   502   501  0.000000000E+00  0.000000000E+00  8.282716755E+02  8.282716755E+02  0.000000000E+00  0.00000E+00  9.000E+00
      21    -1     0     0   501   511  0.000000000E+00  0.000000000E+00 -2.177480434E+02  2.177480434E+02  0.000000000E+00  0.00000E+00  9.000E+00
      25     1     1     2     0     0  9.910424008E+01  2.271112987E+02  3.976139853E+02  4.848949099E+02  1.250000000E+02  0.00000E+00  9.000E+00
      25     1     1     2     0     0 -1.836661945E+02 -1.876130056E+02  3.109722302E+02  4.257471536E+02  1.250000000E+02  0.00000E+00  9.000E+00
      21     1     1     2   502   511  8.456195446E+01 -3.949829310E+01 -9.806258334E+01  1.353776553E+02  3.015782986E-06  0.00000E+00  9.000E+00
#rwgt            1           1 -0.28585168154145851                7      139054           0
</event>
<event>
      5   9999 -3.79277E-02  2.15794E+01 -1.00000E+00  1.63691E-01
      21    -1     0     0   502   512  0.000000000E+00  0.000000000E+00  8.052947266E+02  8.052947266E+02  0.000000000E+00  0.00000E+00  9.000E+00
      21    -1     0     0   501   502  0.000000000E+00  0.000000000E+00 -8.168737435E+01  8.168737435E+01  0.000000000E+00  0.00000E+00  9.000E+00
      25     1     1     2     0     0 -1.547488748E+02 -8.405256689E+01  1.898526484E+02  2.875431730E+02  1.250000000E+02  0.00000E+00  9.000E+00
      25     1     1     2     0     0  1.737077550E+02  9.435945972E+01  3.952750519E+02  4.592879907E+02  1.250000000E+02  0.00000E+00  9.000E+00
      21     1     1     2   501   512 -1.895888022E+01 -1.030689283E+01  1.384796519E+02  1.401509371E+02  1.907348633E-06  0.00000E+00  9.000E+00
#rwgt            1           1  -5.1694478814784547E-002           7      139170           0
</event>
<event>
      5   9999 -3.79277E-02  2.79214E+01 -1.00000E+00  1.55238E-01
      21    -1     0     0   502   501  0.000000000E+00  0.000000000E+00  2.291842468E+02  2.291842468E+02  0.000000000E+00  0.00000E+00  9.000E+00
      21    -1     0     0   511   502  0.000000000E+00  0.000000000E+00 -1.945056473E+02  1.945056473E+02  0.000000000E+00  0.00000E+00  9.000E+00
      25     1     1     2     0     0 -3.136402385E+00 -1.473355128E+02  9.291713218E+01  2.144205769E+02  1.250000000E+02  0.00000E+00  9.000E+00
      25     1     1     2     0     0 -5.190571363E-01  1.196544277E+02 -5.161826154E+01  1.805737977E+02  1.250000000E+02  0.00000E+00  9.000E+00
      21     1     1     2   511   501  3.655459522E+00  2.768108507E+01 -6.620271139E+00  2.869551960E+01  2.064765462E-07  0.00000E+00  9.000E+00
#rwgt            1           1  -7.1779095381604818E-002           7      139368           0
</event>
<event>
      5   9999  3.79277E-02  3.68741E+01 -1.00000E+00  1.47066E-01
      21    -1     0     0   512   501  0.000000000E+00  0.000000000E+00  3.680844888E+02  3.680844888E+02  0.000000000E+00  0.00000E+00  9.000E+00
      21    -1     0     0   501   502  0.000000000E+00  0.000000000E+00 -1.612708288E+02  1.612708288E+02  0.000000000E+00  0.00000E+00  9.000E+00
      25     1     1     2     0     0 -1.273855439E+02  1.445003440E+02  7.703376732E+01  2.422119475E+02  1.250000000E+02  0.00000E+00  9.000E+00
      25     1     1     2     0     0  1.229741108E+02 -1.078911234E+02  7.105274929E+01  2.177994940E+02  1.250000000E+02  0.00000E+00  9.000E+00
      21     1     1     2   512   502  4.411433115E+00 -3.660922064E+01  5.872714336E+01  6.934387604E+01  9.536743164E-07  0.00000E+00  9.000E+00
#rwgt            1           1   3.9955480472750833E-002           7      139493           0
</event>
<event>
      5   9999  3.79277E-02  9.65905E+01 -1.00000E+00  1.24509E-01
      21    -1     0     0   502   501  0.000000000E+00  0.000000000E+00  5.011561699E+02  5.011561699E+02  0.000000000E+00  0.00000E+00  9.000E+00
      21    -1     0     0   501   511  0.000000000E+00  0.000000000E+00 -1.035505500E+02  1.035505500E+02  0.000000000E+00  0.00000E+00  9.000E+00
      25     1     1     2     0     0 -1.007440730E+01 -2.736709801E+01  4.053950715E+01  1.346064760E+02  1.250000000E+02  0.00000E+00  9.000E+00
      25     1     1     2     0     0 -2.206747304E+01  1.184529329E+02  3.247507232E+02  3.682473393E+02  1.250000000E+02  0.00000E+00  9.000E+00
      21     1     1     2   502   511  3.214188034E+01 -9.108583486E+01  3.231538946E+01  1.018529046E+02  9.536743164E-07  0.00000E+00  9.000E+00
#rwgt            1           1   4.0557654606206972E-002           7      139653           0
</event>
<event>
      5   9999  3.79277E-02  1.73342E+02 -1.00000E+00  1.13957E-01
      21    -1     0     0   512   501  0.000000000E+00  0.000000000E+00  7.252916656E+02  7.252916656E+02  0.000000000E+00  0.00000E+00  9.000E+00
      21    -1     0     0   501   502  0.000000000E+00  0.000000000E+00 -1.686480735E+02  1.686480735E+02  0.000000000E+00  0.00000E+00  9.000E+00
      25     1     1     2     0     0 -5.361383189E+01  1.225732005E+02  2.068597849E+02  2.762509783E+02  1.250000000E+02  0.00000E+00  9.000E+00
      25     1     1     2     0     0 -2.515038616E+01 -2.769869762E+02  1.150924823E+02  3.259227000E+02  1.250000000E+02  0.00000E+00  9.000E+00
      21     1     1     2   512   502  7.876421806E+01  1.544137757E+02  2.346913250E+02  2.917660608E+02  3.814697266E-06  0.00000E+00  9.000E+00
#rwgt            1           1   4.1993314984869239E-002           7      139942           0
</event>
<event>
      5   9999  3.79277E-02  1.89675E+01 -1.00000E+00  1.68291E-01
      21    -1     0     0   511   501  0.000000000E+00  0.000000000E+00  6.328926640E+01  6.328926640E+01  0.000000000E+00  0.00000E+00  9.000E+00
      21    -1     0     0   501   502  0.000000000E+00  0.000000000E+00 -3.938979399E+02  3.938979399E+02  0.000000000E+00  0.00000E+00  9.000E+00
      25     1     1     2     0     0 -6.075377704E+01 -4.860626933E+01 -1.650528183E+02  2.211809749E+02  1.250000000E+02  0.00000E+00  9.000E+00
      25     1     1     2     0     0  5.001974974E+01  6.424431263E+01 -1.486738236E+02  2.106138953E+02  1.250000000E+02  0.00000E+00  9.000E+00
      21     1     1     2   511   502  1.073402730E+01 -1.563804330E+01 -1.688203166E+01  2.539233611E+01  2.384185791E-07  0.00000E+00  9.000E+00
#rwgt            1           1   7.3691084500395673E-002           7      140012           0
</event>
<event>
      5   9999  3.79277E-02  4.38354E+01 -1.00000E+00  1.42416E-01
      21    -1     0     0   502   501  0.000000000E+00  0.000000000E+00  9.097946723E+02  9.097946723E+02  0.000000000E+00  0.00000E+00  9.000E+00
      21    -1     0     0   512   502  0.000000000E+00  0.000000000E+00 -7.566459988E+01  7.566459988E+01  0.000000000E+00  0.00000E+00  9.000E+00
      25     1     1     2     0     0  4.328374605E+01  8.853672706E+01  7.140212846E+02  7.315487883E+02  1.250000000E+02  0.00000E+00  9.000E+00
      25     1     1     2     0     0 -1.458687486E+01 -1.216733286E+02  7.328687240E+01  1.897712873E+02  1.250000000E+02  0.00000E+00  9.000E+00
      21     1     1     2   512   501 -2.869687119E+01  3.313660158E+01  4.682191538E+01  6.413919660E+01  6.743495762E-07  0.00000E+00  9.000E+00
#rwgt            1           1   2.0419124810317518E-002           7      140307           0
</event>
<event>
      5   9999  3.79277E-02  2.21733E+01 -1.00000E+00  1.62756E-01
      21    -1     0     0   502   501  0.000000000E+00  0.000000000E+00  7.895689076E+02  7.895689076E+02  0.000000000E+00  0.00000E+00  9.000E+00
      -5    -1     0     0     0   502  0.000000000E+00  0.000000000E+00 -4.573994420E+02  4.573994420E+02  0.000000000E+00  0.00000E+00  9.000E+00
      25     1     1     2     0     0  4.429934102E+01 -1.054623656E+02  5.544429466E+02  5.797557444E+02  1.250000000E+02  0.00000E+00  9.000E+00
      25     1     1     2     0     0 -6.616371674E+01  1.017738754E+02  1.880065675E+02  2.563338225E+02  1.250000000E+02  0.00000E+00  9.000E+00
      -5     1     1     2     0   501  2.186437573E+01  3.688490181E+00 -4.102800484E+02  4.108787826E+02  5.394796609E-06  0.00000E+00  9.000E+00
#rwgt            1           1   3.7118215665934741E-002           7      140458           0
</event>
<event>
      5   9999  3.79277E-02  1.03308E+02 -1.00000E+00  1.23196E-01
       2    -1     0     0   502     0  0.000000000E+00  0.000000000E+00  2.853024359E+03  2.853024359E+03  0.000000000E+00  0.00000E+00  9.000E+00
      21    -1     0     0   501   502  0.000000000E+00  0.000000000E+00 -1.631397283E+02  1.631397283E+02  0.000000000E+00  0.00000E+00  9.000E+00
      25     1     1     2     0     0 -4.341759327E+01 -1.400473561E+00 -1.090777735E+02  1.714934675E+02  1.250000000E+02  0.00000E+00  9.000E+00
      25     1     1     2     0     0  2.462148478E+01 -1.001829431E+02  2.795026867E+02  3.230937812E+02  1.250000000E+02  0.00000E+00  9.000E+00
       2     1     1     2   501     0  1.879610849E+01  1.015834167E+02  2.519459717E+03  2.521576838E+03  4.315837288E-05  0.00000E+00  9.000E+00
#rwgt            1           1   4.8222300367265568E-002           7      140573           0
</event>
<event>
      5   9999  3.79277E-02  1.08237E+02 -1.00000E+00  1.22301E-01
      21    -1     0     0   511   501  0.000000000E+00  0.000000000E+00  5.109795332E+02  5.109795332E+02  0.000000000E+00  0.00000E+00  9.000E+00
      21    -1     0     0   501   502  0.000000000E+00  0.000000000E+00 -5.567902614E+02  5.567902614E+02  0.000000000E+00  0.00000E+00  9.000E+00
      25     1     1     2     0     0 -3.094947152E+00  2.850525754E+02 -3.433498504E+02  4.634421962E+02  1.250000000E+02  0.00000E+00  9.000E+00
      25     1     1     2     0     0 -3.444713751E+00 -3.930914518E+02  2.687578609E+02  4.923297100E+02  1.250000000E+02  0.00000E+00  9.000E+00
      21     1     1     2   511   502  6.539660903E+00  1.080388765E+02  2.878126139E+01  1.119978884E+02  3.371747881E-07  0.00000E+00  9.000E+00
#rwgt            1           1  0.11265625571846852                7      140815           0
</event>
<event>
      5   9999  3.79277E-02  6.58668E+01 -1.00000E+00  1.32573E-01
      21    -1     0     0   512   501  0.000000000E+00  0.000000000E+00  7.901483737E+02  7.901483737E+02  0.000000000E+00  0.00000E+00  9.000E+00
      21    -1     0     0   501   502  0.000000000E+00  0.000000000E+00 -1.057241867E+02  1.057241867E+02  0.000000000E+00  0.00000E+00  9.000E+00
      25     1     1     2     0     0 -7.691237173E+01 -1.781437412E+02  1.201192560E+02  2.602005786E+02  1.250000000E+02  0.00000E+00  9.000E+00
      25     1     1     2     0     0  1.112361446E+02  1.219270625E+02  3.085729172E+02  3.715937751E+02  1.250000000E+02  0.00000E+00  9.000E+00
      21     1     1     2   512   502 -3.432377289E+01  5.621667863E+01  2.557320138E+02  2.640782066E+02  5.394796609E-06  0.00000E+00  9.000E+00
#rwgt            1           1   3.6229545589596096E-002           7      140948           0
</event>
<event>
      5   9999  3.79277E-02  2.72030E+01 -1.00000E+00  1.56052E-01
      21    -1     0     0   502   511  0.000000000E+00  0.000000000E+00  7.777900998E+02  7.777900998E+02  0.000000000E+00  0.00000E+00  9.000E+00
      21    -1     0     0   501   502  0.000000000E+00  0.000000000E+00 -1.986500556E+02  1.986500556E+02  0.000000000E+00  0.00000E+00  9.000E+00
      25     1     1     2     0     0  1.425424091E+02 -7.803454105E+01 -1.233210046E+02  2.392504925E+02  1.250000000E+02  0.00000E+00  9.000E+00
      25     1     1     2     0     0 -1.184546604E+02  9.067515303E+01  6.428382914E+02  6.716543448E+02  1.250000000E+02  0.00000E+00  9.000E+00
      21     1     1     2   501   511 -2.408774879E+01 -1.264061198E+01  5.962275741E+01  6.553531806E+01  0.000000000E+00  0.00000E+00  9.000E+00
#rwgt            1           1   3.6237200832866079E-002           7      141053           0
</event>
<event>
      5   9999  3.79277E-02  2.88058E+01 -1.00000E+00  1.54275E-01
      21    -1     0     0   502   501  0.000000000E+00  0.000000000E+00  3.214552745E+02  3.214552745E+02  0.000000000E+00  0.00000E+00  9.000E+00
      21    -1     0     0   512   502  0.000000000E+00  0.000000000E+00 -4.963527695E+02  4.963527695E+02  0.000000000E+00  0.00000E+00  9.000E+00
      25     1     1     2     0     0  9.974252272E+01  9.792321013E+01 -7.659548831E+01  2.025571395E+02  1.250000000E+02  0.00000E+00  9.000E+00
      25     1     1     2     0     0 -1.270194518E+02 -8.866330744E+01  2.194048712E+02  2.962408154E+02  1.250000000E+02  0.00000E+00  9.000E+00
      21     1     1     2   512   501  2.727692905E+01 -9.259902686E+00 -3.177068779E+02  3.190100891E+02  5.394796609E-06  0.00000E+00  9.000E+00
#rwgt            1           1   4.2776656587709454E-002           7      141225           0
</event>
<event>
      5   9999  3.79277E-02  1.07718E+01 -1.00000E+00  1.92097E-01
      21    -1     0     0   502   501  0.000000000E+00  0.000000000E+00  6.312672395E+02  6.312672395E+02  0.000000000E+00  0.00000E+00  9.000E+00
      21    -1     0     0   511   502  0.000000000E+00  0.000000000E+00 -1.593275033E+02  1.593275033E+02  0.000000000E+00  0.00000E+00  9.000E+00
      25     1     1     2     0     0 -6.921802230E+01 -9.333725736E+01  5.468002576E+02  5.728162881E+02  1.250000000E+02  0.00000E+00  9.000E+00
      25     1     1     2     0     0  5.963377586E+01  9.825391771E+01 -3.100084353E+01  1.726153871E+02  1.250000000E+02  0.00000E+00  9.000E+00
      21     1     1     2   511   501  9.584246431E+00 -4.916660356E+00 -4.385967791E+01  4.516306760E+01  0.000000000E+00  0.00000E+00  9.000E+00
#rwgt            1           1   3.2190027333362729E-002           7      141411           0
</event>
<event>
      5   9999  3.79277E-02  2.28399E+01 -1.00000E+00  1.61748E-01
      21    -1     0     0   502   501  0.000000000E+00  0.000000000E+00  7.324216043E+01  7.324216043E+01  0.000000000E+00  0.00000E+00  9.000E+00
      21    -1     0     0   501   512  0.000000000E+00  0.000000000E+00 -1.467475704E+03  1.467475704E+03  0.000000000E+00  0.00000E+00  9.000E+00
      25     1     1     2     0     0  1.222485413E+02 -1.450925744E+02 -2.557746338E+02  3.421143439E+02  1.250000000E+02  0.00000E+00  9.000E+00
      25     1     1     2     0     0 -1.448575500E+02  1.483317011E+02 -4.605066759E+02  5.202666642E+02  1.250000000E+02  0.00000E+00  9.000E+00
      21     1     1     2   502   512  2.260900869E+01 -3.239126686E+00 -6.779522344E+02  6.783368568E+02  7.629394531E-06  0.00000E+00  9.000E+00
#rwgt            1           1   5.3496947361188478E-002           7      141650           0
</event>
<event>
      5   9999  3.79277E-02  3.61819E+01 -1.00000E+00  1.47595E-01
      21    -1     0     0   502   501  0.000000000E+00  0.000000000E+00  9.208225182E+01  9.208225182E+01  0.000000000E+00  0.00000E+00  9.000E+00
       2    -1     0     0   501     0  0.000000000E+00  0.000000000E+00 -1.028533904E+03  1.028533904E+03  0.000000000E+00  0.00000E+00  9.000E+00
      25     1     1     2     0     0  1.823158540E+02 -1.177887396E+02 -1.496618017E+02  2.917823036E+02  1.250000000E+02  0.00000E+00  9.000E+00
      25     1     1     2     0     0 -1.578916950E+02  9.109432659E+01 -7.159123275E+02  7.492552464E+02  1.250000000E+02  0.00000E+00  9.000E+00
       2     1     1     2   502     0 -2.442415905E+01  2.669441303E+01 -7.087752325E+01  7.957860601E+01  9.536743164E-07  0.00000E+00  9.000E+00
#rwgt            1           1   2.4014922652518558E-002           7      141745           0
</event>
<event>
      5   9999  3.79277E-02  6.29569E+01 -1.00000E+00  1.33596E-01
      21    -1     0     0   502   511  0.000000000E+00  0.000000000E+00  2.314619452E+01  2.314619452E+01  0.000000000E+00  0.00000E+00  9.000E+00
      21    -1     0     0   501   502  0.000000000E+00  0.000000000E+00 -1.405016397E+03  1.405016397E+03  0.000000000E+00  0.00000E+00  9.000E+00
      25     1     1     2     0     0  5.685933112E+00  5.686849078E+01 -6.666250397E+02  6.806469706E+02  1.250000000E+02  0.00000E+00  9.000E+00
      25     1     1     2     0     0  5.558647882E+01 -7.133439929E+01 -5.129880911E+02  5.356866946E+02  1.250000000E+02  0.00000E+00  9.000E+00
      21     1     1     2   501   511 -6.127241193E+01  1.446590851E+01 -2.022570720E+02  2.118289266E+02  4.672030912E-06  0.00000E+00  9.000E+00
#rwgt            1           1   5.0843577112148056E-002           7      141900           0
</event>
<event>
      5   9999  3.79277E-02  3.27906E+01 -1.00000E+00  1.50404E-01
      21    -1     0     0   502   501  0.000000000E+00  0.000000000E+00  5.295894199E+02  5.295894199E+02  0.000000000E+00  0.00000E+00  9.000E+00
      21    -1     0     0   501   512  0.000000000E+00  0.000000000E+00 -2.600477136E+02  2.600477136E+02  0.000000000E+00  0.00000E+00  9.000E+00
      25     1     1     2     0     0 -2.819095333E+02 -3.387831579E+01  2.953085960E+02  4.283140111E+02  1.250000000E+02  0.00000E+00  9.000E+00
      25     1     1     2     0     0  2.510452705E+02  4.495181360E+01  4.097223647E+01  2.869636171E+02  1.250000000E+02  0.00000E+00  9.000E+00
      21     1     1     2   502   512  3.086426286E+01 -1.107349780E+01 -6.673912612E+01  7.435950532E+01  1.348699152E-06  0.00000E+00  9.000E+00
#rwgt            1           1   5.0586110923658507E-002           7      141962           0
</event>
<event>
      5   9999  3.79277E-02  1.31704E+01 -1.00000E+00  1.82877E-01
      21    -1     0     0   502   511  0.000000000E+00  0.000000000E+00  2.443111639E+02  2.443111639E+02  0.000000000E+00  0.00000E+00  9.000E+00
      21    -1     0     0   501   502  0.000000000E+00  0.000000000E+00 -1.175416916E+02  1.175416916E+02  0.000000000E+00  0.00000E+00  9.000E+00
      25     1     1     2     0     0 -9.790256433E+01 -5.438243118E+00  8.574379173E+01  1.805311176E+02  1.250000000E+02  0.00000E+00  9.000E+00
      25     1     1     2     0     0  9.017799288E+01 -5.228970390E+00  1.863355645E+01  1.553435610E+02  1.250000000E+02  0.00000E+00  9.000E+00
      21     1     1     2   501   511  7.724571455E+00  1.066721351E+01  2.239212415E+01  2.597817685E+01  2.384185791E-07  0.00000E+00  9.000E+00
#rwgt            1           1   4.7238862452757213E-002           7      142147           0
</event>
<event>
      5   9999  3.79277E-02  2.22100E+02 -1.00000E+00  1.10016E-01
       2    -1     0     0   502     0  0.000000000E+00  0.000000000E+00  1.202512948E+03  1.202512948E+03  0.000000000E+00  0.00000E+00  9.000E+00
      21    -1     0     0   501   502  0.000000000E+00  0.000000000E+00 -1.013603774E+02  1.013603774E+02  0.000000000E+00  0.00000E+00  9.000E+00
      25     1     1     2     0     0  8.678682096E+00 -7.379434462E+00  2.900388467E+02  3.160337136E+02  1.250000000E+02  0.00000E+00  9.000E+00
      25     1     1     2     0     0  1.599455393E+02  1.519281572E+02  1.598263174E+02  2.997235263E+02  1.250000000E+02  0.00000E+00  9.000E+00
       2     1     1     2   501     0 -1.686242214E+02 -1.445487227E+02  6.512874068E+02  6.881160858E+02  1.078959322E-05  0.00000E+00  9.000E+00
#rwgt            1           1   3.5747930000281890E-002           7      142271           0
</event>
<event>
      5   9999  3.79277E-02  3.15571E+01 -1.00000E+00  1.51529E-01
      21    -1     0     0   502   501  0.000000000E+00  0.000000000E+00  8.343931966E+02  8.343931966E+02  0.000000000E+00  0.00000E+00  9.000E+00
      21    -1     0     0   501   511  0.000000000E+00  0.000000000E+00 -5.480432831E+01  5.480432831E+01  0.000000000E+00  0.00000E+00  9.000E+00
      25     1     1     2     0     0 -8.458036538E+01 -1.149595211E+02  5.588367883E+02  5.901636092E+02  1.250000000E+02  0.00000E+00  9.000E+00
      25     1     1     2     0     0  6.472684859E+01  9.043023883E+01  2.021360610E+02  2.623950841E+02  1.250000000E+02  0.00000E+00  9.000E+00
      21     1     1     2   502   511  1.985351679E+01  2.452928226E+01  1.861601909E+01  3.663883164E+01  7.539457465E-07  0.00000E+00  9.000E+00
#rwgt            1           1   2.1846763850387640E-002           7      142312           0
</event>
<event>
      5   9999  3.79277E-02  1.46980E+02 -1.00000E+00  1.16745E-01
      21    -1     0     0   502   501  0.000000000E+00  0.000000000E+00  5.033668883E+02  5.033668883E+02  0.000000000E+00  0.00000E+00  9.000E+00
      21    -1     0     0   512   502  0.000000000E+00  0.000000000E+00 -2.379325020E+02  2.379325020E+02  0.000000000E+00  0.00000E+00  9.000E+00
      25     1     1     2     0     0  4.416376922E+01  1.428535997E+02  1.095281594E+02  2.235598514E+02  1.250000000E+02  0.00000E+00  9.000E+00
      25     1     1     2     0     0  9.186019953E+01 -8.717118867E+01  2.756933145E+02  3.281294197E+02  1.250000000E+02  0.00000E+00  9.000E+00
      21     1     1     2   512   501 -1.360239687E+02 -5.568241099E+01 -1.197870876E+02  1.896101192E+02  3.303624740E-06  0.00000E+00  9.000E+00
#rwgt            2          11   2.6620598065056765E-003           7      142578           0
</event>
<event>
      5   9999  3.79277E-02  1.32119E+01 -1.00000E+00  1.82739E-01
      21    -1     0     0   502   511  0.000000000E+00  0.000000000E+00  1.172637701E+03  1.172637701E+03  0.000000000E+00  0.00000E+00  9.000E+00
      21    -1     0     0   501   502  0.000000000E+00  0.000000000E+00 -3.491249027E+01  3.491249027E+01  0.000000000E+00  0.00000E+00  9.000E+00
      25     1     1     2     0     0  6.441482392E+01 -6.406281517E+01  1.910723384E+02  2.457375680E+02  1.250000000E+02  0.00000E+00  9.000E+00
      25     1     1     2     0     0 -7.391806459E+01  5.488440315E+01  8.281545997E+02  8.425800965E+02  1.250000000E+02  0.00000E+00  9.000E+00
      21     1     1     2   501   511  9.503240664E+00  9.178412019E+00  1.184982730E+02  1.192325271E+02  1.348699152E-06  0.00000E+00  9.000E+00
#rwgt            1           1  0.20796146055301618                7      142598           0
</event>
<event>
      5   9999 -3.79277E-02  2.63347E+01 -1.00000E+00  1.57077E-01
      21    -1     0     0   502   512  0.000000000E+00  0.000000000E+00  3.645460854E+02  3.645460854E+02  0.000000000E+00  0.00000E+00  9.000E+00
      21    -1     0     0   501   502  0.000000000E+00  0.000000000E+00 -2.584546752E+02  2.584546752E+02  0.000000000E+00  0.00000E+00  9.000E+00
      25     1     1     2     0     0 -3.244374779E+01  1.997394010E+02  1.222148135E+02  2.674133238E+02  1.250000000E+02  0.00000E+00  9.000E+00
      25     1     1     2     0     0  4.101343192E+01 -1.748380454E+02 -1.192229047E+02  2.491777372E+02  1.250000000E+02  0.00000E+00  9.000E+00
      21     1     1     2   501   512 -8.569684131E+00 -2.490135564E+01  1.030995014E+02  1.064096997E+02  1.348699152E-06  0.00000E+00  9.000E+00
#rwgt            1           1  -5.9813780860858857E-003           7      142787           0
</event>
<event>
      5   9999  3.79277E-02  4.88448E+01 -1.00000E+00  1.39657E-01
      21    -1     0     0   502   501  0.000000000E+00  0.000000000E+00  8.219362836E+02  8.219362836E+02  0.000000000E+00  0.00000E+00  9.000E+00
      21    -1     0     0   501   511  0.000000000E+00  0.000000000E+00 -1.581047837E+02  1.581047837E+02  0.000000000E+00  0.00000E+00  9.000E+00
      25     1     1     2     0     0  1.937551548E+02  5.822774813E+01  4.225389684E+02  4.848666935E+02  1.250000000E+02  0.00000E+00  9.000E+00
      25     1     1     2     0     0 -1.675028752E+02 -9.941796586E+01  3.245651241E+02  3.986334970E+02  1.250000000E+02  0.00000E+00  9.000E+00
      21     1     1     2   502   511 -2.625227959E+01  4.119021773E+01 -8.327259257E+01  9.654087680E+01  1.651812370E-06  0.00000E+00  9.000E+00
#rwgt            1           1   4.2494238562723420E-002           7      142861           0
</event>
<event>
      5   9999  3.79277E-02  1.35896E+01 -1.00000E+00  1.81521E-01
      -4    -1     0     0     0   501  0.000000000E+00  0.000000000E+00  1.380540888E+03  1.380540888E+03  0.000000000E+00  0.00000E+00  9.000E+00
      21    -1     0     0   501   502  0.000000000E+00  0.000000000E+00 -4.783087267E+01  4.783087267E+01  0.000000000E+00  0.00000E+00  9.000E+00
      25     1     1     2     0     0  5.160502222E+01 -8.344303057E+01  1.540050846E+02  2.212880109E+02  1.250000000E+02  0.00000E+00  9.000E+00
      25     1     1     2     0     0 -6.410982505E+01  8.876353390E+01  4.746603412E+02  5.029080176E+02  1.250000000E+02  0.00000E+00  9.000E+00
      -4     1     1     2     0   502  1.250480283E+01 -5.320503325E+00  7.040445892E+02  7.041757319E+02  1.078959322E-05  0.00000E+00  9.000E+00
#rwgt            1           1   4.3076755198636955E-002           7      143028           0
</event>
<event>
      5   9999  3.79277E-02  3.13967E+01 -1.00000E+00  1.51680E-01
      21    -1     0     0   511   501  0.000000000E+00  0.000000000E+00  4.383635386E+02  4.383635386E+02  0.000000000E+00  0.00000E+00  9.000E+00
      21    -1     0     0   501   502  0.000000000E+00  0.000000000E+00 -2.207363755E+02  2.207363755E+02  0.000000000E+00  0.00000E+00  9.000E+00
      25     1     1     2     0     0 -1.597092587E+02  8.411419390E+01  8.540282480E+01  2.355862632E+02  1.250000000E+02  0.00000E+00  9.000E+00
      25     1     1     2     0     0  1.533406447E+02 -1.148582127E+02 -5.368306776E+01  2.349736881E+02  1.250000000E+02  0.00000E+00  9.000E+00
      21     1     1     2   511   502  6.368614053E+00  3.074401879E+01  1.859074060E+02  1.885399627E+02  3.814697266E-06  0.00000E+00  9.000E+00
#rwgt            1           1   3.6994492758577947E-002           7      143232           0
</event>
<event>
      5   9999  3.79277E-02  1.84353E+01 -1.00000E+00  1.69342E-01
      21    -1     0     0   502   501  0.000000000E+00  0.000000000E+00  1.188110462E+03  1.188110462E+03  0.000000000E+00  0.00000E+00  9.000E+00
      21    -1     0     0   512   502  0.000000000E+00  0.000000000E+00 -5.245447434E+01  5.245447434E+01  0.000000000E+00  0.00000E+00  9.000E+00
      25     1     1     2     0     0  2.306446392E+01  3.369900391E+01  9.721200471E+02  9.809739947E+02  1.250000000E+02  0.00000E+00  9.000E+00
      25     1     1     2     0     0 -1.635177480E+01 -1.652929926E+01  1.892240960E+02  2.279722720E+02  1.250000000E+02  0.00000E+00  9.000E+00
      21     1     1     2   512   501 -6.712689124E+00 -1.716970465E+01 -2.568815534E+01  3.161866977E+01  1.011524364E-06  0.00000E+00  9.000E+00
#rwgt            1           1   4.2432087045133397E-002           7      143437           0
</event>
<event>
      5   9999  3.79277E-02  4.02065E+01 -1.00000E+00  1.44702E-01
      21    -1     0     0   502   501  0.000000000E+00  0.000000000E+00  1.959810786E+02  1.959810786E+02  0.000000000E+00  0.00000E+00  9.000E+00
      21    -1     0     0   501   511  0.000000000E+00  0.000000000E+00 -2.169869584E+02  2.169869584E+02  0.000000000E+00  0.00000E+00  9.000E+00
      25     1     1     2     0     0 -2.122779369E+01 -1.147112276E+02  2.547539255E+01  1.728678125E+02  1.250000000E+02  0.00000E+00  9.000E+00
      25     1     1     2     0     0  2.150985472E+00  1.501038388E+02 -3.803880507E+01  1.990169336E+02  1.250000000E+02  0.00000E+00  9.000E+00
      21     1     1     2   502   511  1.907680822E+01 -3.539261122E+01 -8.442467270E+00  4.108329094E+01  4.768371582E-07  0.00000E+00  9.000E+00
#rwgt            1           1   4.6876126526989158E-002           7      143586           0
</event>
<event>
      5   9999  3.79277E-02  5.22256E+01 -1.00000E+00  1.38005E-01
      21    -1     0     0   502   501  0.000000000E+00  0.000000000E+00  3.300381741E+02  3.300381741E+02  0.000000000E+00  0.00000E+00  9.000E+00
      21    -1     0     0   501   512  0.000000000E+00  0.000000000E+00 -5.009530220E+02  5.009530220E+02  0.000000000E+00  0.00000E+00  9.000E+00
      25     1     1     2     0     0  1.159741201E+02  1.404715377E+01  2.538134815E+02  3.060941072E+02  1.250000000E+02  0.00000E+00  9.000E+00
      25     1     1     2     0     0 -6.392262159E+01 -1.830819776E+01 -5.562902209E+01  1.521212666E+02  1.250000000E+02  0.00000E+00  9.000E+00
      21     1     1     2   502   512 -5.205149847E+01  4.261043994E+00 -3.690993073E+02  3.727758223E+02  5.394796609E-06  0.00000E+00  9.000E+00
#rwgt            1           1   4.1492764556983926E-002           7      143709           0
</event>
<event>
      5   9999  3.79277E-02  2.58139E+01 -1.00000E+00  1.57716E-01
      21    -1     0     0   502   501  0.000000000E+00  0.000000000E+00  1.877409622E+02  1.877409622E+02  0.000000000E+00  0.00000E+00  9.000E+00
      21    -1     0     0   511   502  0.000000000E+00  0.000000000E+00 -4.586788861E+02  4.586788861E+02  0.000000000E+00  0.00000E+00  9.000E+00
      25     1     1     2     0     0 -7.068867507E+01 -4.958259646E+01 -3.798744567E+02  4.091270286E+02  1.250000000E+02  0.00000E+00  9.000E+00
      25     1     1     2     0     0  5.989601240E+01  7.303202591E+01  1.303079585E+02  2.037802080E+02  1.250000000E+02  0.00000E+00  9.000E+00
      21     1     1     2   511   501  1.079266267E+01 -2.344942944E+01 -2.137142573E+01  3.351261175E+01  4.768371582E-07  0.00000E+00  9.000E+00
#rwgt            1           1   3.8524073831036232E-002           7      143859           0
</event>
<event>
      5   9999  3.79277E-02  9.03140E+01 -1.00000E+00  1.25851E-01
       2    -1     0     0   502     0  0.000000000E+00  0.000000000E+00  3.518092870E+03  3.518092870E+03  0.000000000E+00  0.00000E+00  9.000E+00
      21    -1     0     0   501   502  0.000000000E+00  0.000000000E+00 -2.612910629E+02  2.612910629E+02  0.000000000E+00  0.00000E+00  9.000E+00
      25     1     1     2     0     0 -2.279291319E+02 -2.378869210E+01 -9.180095375E+01  2.767128587E+02  1.250000000E+02  0.00000E+00  9.000E+00
      25     1     1     2     0     0  1.786853323E+02  9.949642088E+01  1.115856196E+02  2.643942818E+02  1.250000000E+02  0.00000E+00  9.000E+00
       2     1     1     2   501     0  4.924379963E+01 -7.570772878E+01  3.237017141E+03  3.238276792E+03  0.000000000E+00  0.00000E+00  9.000E+00
#rwgt            1           1   2.3105810778367424E-002           7      144170           0
</event>
<event>
      5   9999  3.79277E-02  7.83283E+01 -1.00000E+00  1.28795E-01
       2    -1     0     0   502     0  0.000000000E+00  0.000000000E+00  8.847340687E+01  8.847340687E+01  0.000000000E+00  0.00000E+00  9.000E+00
      21    -1     0     0   501   502  0.000000000E+00  0.000000000E+00 -1.324449807E+03  1.324449807E+03  0.000000000E+00  0.00000E+00  9.000E+00
      25     1     1     2     0     0  5.203281466E+01  1.220675187E+02 -3.096602414E+02  3.593359960E+02  1.250000000E+02  0.00000E+00  9.000E+00
      25     1     1     2     0     0  2.595618769E+01 -1.293501232E+02 -9.535075984E+02  9.706734355E+02  1.250000000E+02  0.00000E+00  9.000E+00
       2     1     1     2   501     0 -7.798900236E+01  7.282604458E+00  2.719144016E+01  8.291378193E+01  3.053247565E-06  0.00000E+00  9.000E+00
#rwgt            1           1   3.8744072718936165E-002           7      144259           0
</event>
<event>
      5   9999  3.79277E-02  4.35388E+01 -1.00000E+00  1.42593E-01
      21    -1     0     0   502   511  0.000000000E+00  0.000000000E+00  1.400747559E+03  1.400747559E+03  0.000000000E+00  0.00000E+00  9.000E+00
      21    -1     0     0   501   502  0.000000000E+00  0.000000000E+00 -3.356807607E+01  3.356807607E+01  0.000000000E+00  0.00000E+00  9.000E+00
      25     1     1     2     0     0 -9.450816564E+01 -2.607054937E+01  7.050354049E+02  7.227111381E+02  1.250000000E+02  0.00000E+00  9.000E+00
      25     1     1     2     0     0  1.302634678E+02  1.227328045E+00  3.260138304E+02  3.726661978E+02  1.250000000E+02  0.00000E+00  9.000E+00
      21     1     1     2   501   511 -3.575530221E+01  2.484322133E+01  3.361302480E+02  3.389382996E+02  3.814697266E-06  0.00000E+00  9.000E+00
#rwgt            1           1   6.2134207181700922E-002           7      144306           0
</event>
<event>
      5   9999  3.79277E-02  7.33255E+01 -1.00000E+00  1.30208E-01
       1    -1     0     0   502     0  0.000000000E+00  0.000000000E+00  2.562576685E+03  2.562576685E+03  0.000000000E+00  0.00000E+00  9.000E+00
      21    -1     0     0   501   502  0.000000000E+00  0.000000000E+00 -4.928831138E+01  4.928831138E+01  0.000000000E+00  0.00000E+00  9.000E+00
      25     1     1     2     0     0 -8.715451577E+00 -1.399341859E+02  1.036713573E+03  1.053592695E+03  1.250000000E+02  0.00000E+00  9.000E+00
      25     1     1     2     0     0  5.694264876E+01  8.470047799E+01  1.234918944E+02  2.032040457E+02  1.250000000E+02  0.00000E+00  9.000E+00
       1     1     1     2   501     0 -4.822719719E+01  5.523370794E+01  1.353082906E+03  1.355068255E+03  1.525878906E-05  0.00000E+00  9.000E+00
#rwgt            1           1   3.2029157387440853E-002           7      144514           0
</event>
<event>
      5   9999  3.79277E-02  6.55744E+01 -1.00000E+00  1.32673E-01
      21    -1     0     0   502   501  0.000000000E+00  0.000000000E+00  1.196368696E+02  1.196368696E+02  0.000000000E+00  0.00000E+00  9.000E+00
      21    -1     0     0   511   502  0.000000000E+00  0.000000000E+00 -8.864840813E+02  8.864840813E+02  0.000000000E+00  0.00000E+00  9.000E+00
      25     1     1     2     0     0  7.949297194E+01  8.838169785E+01 -2.843748115E+02  3.326026015E+02  1.250000000E+02  0.00000E+00  9.000E+00
      25     1     1     2     0     0 -2.887552320E+01 -4.669380281E+01  4.364376042E+01  1.433313814E+02  1.250000000E+02  0.00000E+00  9.000E+00
      21     1     1     2   511   501 -5.061744874E+01 -4.168789504E+01 -5.261161605E+02  5.301869680E+02  7.629394531E-06  0.00000E+00  9.000E+00
#rwgt            1           1   2.0700153008204131E-002           7      144654           0
</event>
<event>
      5   9999  3.79277E-02  4.36878E+01 -1.00000E+00  1.42504E-01
      21    -1     0     0   512   501  0.000000000E+00  0.000000000E+00  2.541744232E+02  2.541744232E+02  0.000000000E+00  0.00000E+00  9.000E+00
      21    -1     0     0   501   502  0.000000000E+00  0.000000000E+00 -1.642256442E+02  1.642256442E+02  0.000000000E+00  0.00000E+00  9.000E+00
      25     1     1     2     0     0 -4.176112725E+01  6.143112168E+01  6.306760094E+01  1.584938382E+02  1.250000000E+02  0.00000E+00  9.000E+00
      25     1     1     2     0     0  6.513278230E+01 -2.452058783E+01 -6.577734622E+01  1.574649099E+02  1.250000000E+02  0.00000E+00  9.000E+00
      21     1     1     2   512   502 -2.337165505E+01 -3.691053385E+01  9.265852437E+01  1.024413193E+02  1.348699152E-06  0.00000E+00  9.000E+00
#rwgt            1           1   3.4524459652875615E-002           7      144794           0
</event>
<event>
      5   9999  3.79277E-02  5.83538E+01 -1.00000E+00  1.35352E-01
      21    -1     0     0   502   501  0.000000000E+00  0.000000000E+00  1.441499473E+01  1.441499473E+01  0.000000000E+00  0.00000E+00  9.000E+00
      21    -1     0     0   511   502  0.000000000E+00  0.000000000E+00 -2.074514175E+03  2.074514175E+03  0.000000000E+00  0.00000E+00  9.000E+00
      25     1     1     2     0     0 -2.103501855E+01 -4.171489982E+01 -6.230548717E+02  6.371851992E+02  1.250000000E+02  0.00000E+00  9.000E+00
      25     1     1     2     0     0 -2.784545164E+01  7.358760035E+01 -1.022437568E+03  1.033050862E+03  1.250000000E+02  0.00000E+00  9.000E+00
      21     1     1     2   511   501  4.888047019E+01 -3.187270053E+01 -4.146067412E+02  4.186931086E+02  5.394796609E-06  0.00000E+00  9.000E+00
#rwgt            1           1  0.14606219314056279                7      144860           0
</event>
<event>
      5   9999  3.79277E-02  9.20082E+01 -1.00000E+00  1.25477E-01
      21    -1     0     0   502   512  0.000000000E+00  0.000000000E+00  2.290667368E+02  2.290667368E+02  0.000000000E+00  0.00000E+00  9.000E+00
      21    -1     0     0   501   502  0.000000000E+00  0.000000000E+00 -2.652679326E+02  2.652679326E+02  0.000000000E+00  0.00000E+00  9.000E+00
      25     1     1     2     0     0 -6.462884825E+01  1.133453649E+01  1.136195545E+02  1.812174465E+02  1.250000000E+02  0.00000E+00  9.000E+00
      25     1     1     2     0     0  4.175161863E+01  7.778413379E+01 -1.589664481E+02  2.206556157E+02  1.250000000E+02  0.00000E+00  9.000E+00
      21     1     1     2   501   512  2.287722962E+01 -8.911867029E+01  9.145697790E+00  9.246160726E+01  1.395308961E-06  0.00000E+00  9.000E+00
#rwgt            1           1   4.3731745966279524E-002           7      144940           0
</event>
<event>
      5   9999  3.79277E-02  2.62186E+01 -1.00000E+00  1.57218E-01
      21    -1     0     0   502   511  0.000000000E+00  0.000000000E+00  7.025074387E+02  7.025074387E+02  0.000000000E+00  0.00000E+00  9.000E+00
      21    -1     0     0   501   502  0.000000000E+00  0.000000000E+00 -2.458247550E+02  2.458247550E+02  0.000000000E+00  0.00000E+00  9.000E+00
      25     1     1     2     0     0 -1.535373119E+02 -5.605972542E+01 -2.438563040E+00  2.057847068E+02  1.250000000E+02  0.00000E+00  9.000E+00
      25     1     1     2     0     0  1.276835977E+02  6.041850403E+01 -7.848683066E+01  2.043004634E+02  1.250000000E+02  0.00000E+00  9.000E+00
      21     1     1     2   501   511  2.585371426E+01 -4.358778613E+00  5.376080773E+02  5.382470235E+02  0.000000000E+00  0.00000E+00  9.000E+00
#rwgt            1           1   2.6195283765540967E-002           7      145039           0
</event>
<event>
      5   9999  3.79277E-02  1.45686E+02 -1.00000E+00  1.16898E-01
      21    -1     0     0   502   501  0.000000000E+00  0.000000000E+00  1.921523733E+03  1.921523733E+03  0.000000000E+00  0.00000E+00  9.000E+00
      21    -1     0     0   501   512  0.000000000E+00  0.000000000E+00 -3.269356778E+01  3.269356778E+01  0.000000000E+00  0.00000E+00  9.000E+00
      25     1     1     2     0     0 -1.283648653E+01  1.835562948E+02  8.869971783E+02  9.144652443E+02  1.250000000E+02  0.00000E+00  9.000E+00
      25     1     1     2     0     0 -1.329162842E+01 -4.023254719E+01  5.093340993E+02  5.261573433E+02  1.250000000E+02  0.00000E+00  9.000E+00
      21     1     1     2   502   512  2.612811495E+01 -1.433237476E+02  4.924988874E+02  5.135947129E+02  5.394796609E-06  0.00000E+00  9.000E+00
#rwgt            1           1   4.6830628278808996E-002           7      145138           0
</event>
<event>
      5   9999  3.79277E-02  1.30437E+02 -1.00000E+00  1.18851E-01
      21    -1     0     0   502   511  0.000000000E+00  0.000000000E+00  1.538480013E+02  1.538480013E+02  0.000000000E+00  0.00000E+00  9.000E+00
      21    -1     0     0   501   502  0.000000000E+00  0.000000000E+00 -1.790589872E+03  1.790589872E+03  0.000000000E+00  0.00000E+00  9.000E+00
      25     1     1     2     0     0  1.045150009E+02  1.110770319E+02 -5.347488102E+02  5.699498069E+02  1.250000000E+02  0.00000E+00  9.000E+00
      25     1     1     2     0     0 -2.742078850E+00 -1.926613823E+02 -1.193343134E+03  1.215244322E+03  1.250000000E+02  0.00000E+00  9.000E+00
      21     1     1     2   501   511 -1.017729220E+02  8.158435044E+01  9.135007398E+01  1.592437437E+02  3.568322551E-06  0.00000E+00  9.000E+00
#rwgt            1           1   4.2690059355810807E-002           7      145202           0
</event>
<event>
      5   9999  4.82179E-02  5.13790E+01 -1.00000E+00  1.38405E-01
      21    -1     0     0   502   501  0.000000000E+00  0.000000000E+00  2.725237489E+02  2.725237489E+02  0.000000000E+00  0.00000E+00  9.000E+00
      21    -1     0     0   501   512  0.000000000E+00  0.000000000E+00 -5.849235177E+02  5.849235177E+02  0.000000000E+00  0.00000E+00  9.000E+00
      25     1     1     2     0     0 -2.870504180E+02 -8.187517190E+01  7.824797018E+01  3.329402815E+02  1.250000000E+02  0.00000E+00  9.000E+00
      25     1     1     2     0     0  2.360140685E+02  7.595096910E+01 -2.458421042E+02  3.708564823E+02  1.250000000E+02  0.00000E+00  9.000E+00
      21     1     1     2   502   512  5.103634942E+01  5.924202796E+00 -1.448056348E+02  1.536505028E+02  0.000000000E+00  0.00000E+00  9.000E+00
#rwgt            1           1  0.61945578499451559                7      145238           0
</event>
<event>
      5   9999  3.79277E-02  2.61873E+01 -1.00000E+00  1.57256E-01
      21    -1     0     0   502   501  0.000000000E+00  0.000000000E+00  7.001887497E+01  7.001887497E+01  0.000000000E+00  0.00000E+00  9.000E+00
       1    -1     0     0   501     0  0.000000000E+00  0.000000000E+00 -1.497668157E+03  1.497668157E+03  0.000000000E+00  0.00000E+00  9.000E+00
      25     1     1     2     0     0 -1.149555564E+02 -7.983207721E+01 -5.997163372E+02  6.283889127E+02  1.250000000E+02  0.00000E+00  9.000E+00
      25     1     1     2     0     0  1.236079631E+02  1.045486849E+02 -1.332250864E+02  2.440968654E+02  1.250000000E+02  0.00000E+00  9.000E+00
       1     1     1     2   502     0 -8.652406668E+00 -2.471660767E+01 -6.947078585E+02  6.952012539E+02  7.629394531E-06  0.00000E+00  9.000E+00
#rwgt            1           1   5.0056912211366787E-002           7      145322           0
</event>
<event>
      5   9999  3.79277E-02  1.24998E+01 -1.00000E+00  1.85184E-01
      21    -1     0     0   502   501  0.000000000E+00  0.000000000E+00  1.415870719E+03  1.415870719E+03  0.000000000E+00  0.00000E+00  9.000E+00
      21    -1     0     0   511   502  0.000000000E+00  0.000000000E+00 -4.339737393E+01  4.339737393E+01  0.000000000E+00  0.00000E+00  9.000E+00
      25     1     1     2     0     0 -1.800282514E+01  5.533416455E+01  8.784003482E+01  1.634834646E+02  1.250000000E+02  0.00000E+00  9.000E+00
      25     1     1     2     0     0  9.779309768E+00 -6.474792166E+01  1.262530367E+03  1.270392008E+03  1.250000000E+02  0.00000E+00  9.000E+00
      21     1     1     2   511   501  8.223515371E+00  9.413757112E+00  2.210294309E+01  2.539261943E+01  0.000000000E+00  0.00000E+00  9.000E+00
#rwgt            1           1   3.1321886088677836E-002           7      145530           0
</event>
<event>
      5   9999  3.79277E-02  9.55368E+01 -1.00000E+00  1.24726E-01
      21    -1     0     0   502   501  0.000000000E+00  0.000000000E+00  1.318920256E+02  1.318920256E+02  0.000000000E+00  0.00000E+00  9.000E+00
      21    -1     0     0   501   512  0.000000000E+00  0.000000000E+00 -5.722609786E+02  5.722609786E+02  0.000000000E+00  0.00000E+00  9.000E+00
      25     1     1     2     0     0  1.658896700E+02 -3.597463126E+01 -1.069818209E+02  2.363972646E+02  1.250000000E+02  0.00000E+00  9.000E+00
      25     1     1     2     0     0 -1.469547992E+02  1.296162019E+02 -2.300668658E+02  3.270349149E+02  1.250000000E+02  0.00000E+00  9.000E+00
      21     1     1     2   502   512 -1.893487080E+01 -9.364157068E+01 -1.033202663E+02  1.407208248E+02  0.000000000E+00  0.00000E+00  9.000E+00
#rwgt            1           1   2.2064083079152325E-002           7      145791           0
</event>
<event>
      5   9999  3.79277E-02  3.55801E+01 -1.00000E+00  1.48066E-01
      21    -1     0     0   502   511  0.000000000E+00  0.000000000E+00  1.914941960E+02  1.914941960E+02  0.000000000E+00  0.00000E+00  9.000E+00
      21    -1     0     0   501   502  0.000000000E+00  0.000000000E+00 -2.341431640E+02  2.341431640E+02  0.000000000E+00  0.00000E+00  9.000E+00
      25     1     1     2     0     0  1.607372284E+02 -3.817795761E+01 -1.616378541E+01  2.077986549E+02  1.250000000E+02  0.00000E+00  9.000E+00
      25     1     1     2     0     0 -1.272063537E+02  2.627747004E+01 -2.684381632E+01  1.822568307E+02  1.250000000E+02  0.00000E+00  9.000E+00
      21     1     1     2   501   511 -3.353087467E+01  1.190048758E+01  3.586337705E-01  3.558187430E+01  4.786671878E-07  0.00000E+00  9.000E+00
#rwgt            1           1   3.9862635000876633E-002           7      145957           0
</event>
<event>
      5   9999  3.79277E-02  3.69833E+00 -1.00000E+00  2.71761E-01
      21    -1     0     0   502   501  0.000000000E+00  0.000000000E+00  1.117673974E+03  1.117673974E+03  0.000000000E+00  0.00000E+00  9.000E+00
      21    -1     0     0   501   512  0.000000000E+00  0.000000000E+00 -4.388198059E+01  4.388198059E+01  0.000000000E+00  0.00000E+00  9.000E+00
      25     1     1     2     0     0 -5.774161314E+01  1.363304202E+02  8.023819539E+02  8.254464715E+02  1.250000000E+02  0.00000E+00  9.000E+00
      25     1     1     2     0     0  5.432636079E+01 -1.349113703E+02  2.715120755E+02  3.324097448E+02  1.250000000E+02  0.00000E+00  9.000E+00
      21     1     1     2   502   512  3.415252358E+00 -1.419049938E+00 -1.020360525E-01  3.699738201E+00  1.244004346E-07  0.00000E+00  9.000E+00
#rwgt            1           1   1.1278970820404422E-002           7      146100           0
</event>
<event>
      5   9999 -5.57728E-02  1.81958E+01 -1.00000E+00  1.69830E-01
      21    -1     0     0   502   501  0.000000000E+00  0.000000000E+00  2.500479799E+02  2.500479799E+02  0.000000000E+00  0.00000E+00  9.000E+00
      21    -1     0     0   501   511  0.000000000E+00  0.000000000E+00 -7.729808384E+02  7.729808384E+02  0.000000000E+00  0.00000E+00  9.000E+00
      25     1     1     2     0     0  1.076951069E+02  4.017316888E+02 -2.876402968E+02  5.209112459E+02  1.250000000E+02  0.00000E+00  9.000E+00
      25     1     1     2     0     0 -9.055404714E+01 -3.956266068E+02 -2.195997928E+02  4.780894440E+02  1.250000000E+02  0.00000E+00  9.000E+00
      21     1     1     2   502   511 -1.714105977E+01 -6.105081949E+00 -1.569276895E+01  2.402812837E+01  1.685873940E-07  0.00000E+00  9.000E+00
#rwgt            1           1 -0.59748541873692229                7      146679           0
</event>
<event>
      5   9999  3.79277E-02  6.40660E+01 -1.00000E+00  1.33199E-01
       1    -1     0     0   502     0  0.000000000E+00  0.000000000E+00  2.035750148E+03  2.035750148E+03  0.000000000E+00  0.00000E+00  9.000E+00
      21    -1     0     0   501   502  0.000000000E+00  0.000000000E+00 -7.911130260E+01  7.911130260E+01  0.000000000E+00  0.00000E+00  9.000E+00
      25     1     1     2     0     0  1.071961596E+02 -6.073778342E+00  1.010699900E+03  1.024044528E+03  1.250000000E+02  0.00000E+00  9.000E+00
      25     1     1     2     0     0 -1.107320191E+02  7.004211037E+01  4.367238620E+01  1.862787014E+02  1.250000000E+02  0.00000E+00  9.000E+00
       1     1     1     2   501     0  3.535859497E+00 -6.396833202E+01  9.022665598E+02  9.045382219E+02  1.525878906E-05  0.00000E+00  9.000E+00
#rwgt            1           1   4.6534983432435666E-002           7      147125           0
</event>
<event>
      5   9999 -3.79277E-02  3.07842E+01 -1.00000E+00  1.52266E-01
      21    -1     0     0   502   511  0.000000000E+00  0.000000000E+00  2.272458936E+02  2.272458936E+02  0.000000000E+00  0.00000E+00  9.000E+00
      21    -1     0     0   501   502  0.000000000E+00  0.000000000E+00 -5.595926566E+02  5.595926566E+02  0.000000000E+00  0.00000E+00  9.000E+00
      25     1     1     2     0     0 -5.997740706E+01 -1.916203992E+02 -2.069192079E+02  3.142550324E+02  1.250000000E+02  0.00000E+00  9.000E+00
      25     1     1     2     0     0  5.859780173E+01  1.608671328E+02 -2.594682250E+02  3.350532742E+02  1.250000000E+02  0.00000E+00  9.000E+00
      21     1     1     2   501   511  1.379605335E+00  3.075326646E+01  1.340406699E+02  1.375302436E+02  1.907348633E-06  0.00000E+00  9.000E+00
#rwgt            1           1 -0.26841988349353851                7      147244           0
</event>
<event>
      5   9999  3.79277E-02  1.93029E+02 -1.00000E+00  1.12212E-01
      21    -1     0     0   512   501  0.000000000E+00  0.000000000E+00  2.313362587E+03  2.313362587E+03  0.000000000E+00  0.00000E+00  9.000E+00
      21    -1     0     0   501   502  0.000000000E+00  0.000000000E+00 -2.539772943E+02  2.539772943E+02  0.000000000E+00  0.00000E+00  9.000E+00
      25     1     1     2     0     0 -2.626521302E+00  3.157974858E+02 -8.410479401E+01  3.499050829E+02  1.250000000E+02  0.00000E+00  9.000E+00
      25     1     1     2     0     0 -1.892273775E+02 -2.945349547E+02  1.297285141E+03  1.349493081E+03  1.250000000E+02  0.00000E+00  9.000E+00
      21     1     1     2   512   502  1.918538988E+02 -2.126253119E+01  8.462049454E+02  8.679417165E+02  0.000000000E+00  0.00000E+00  9.000E+00
#rwgt            1           1   4.9601878806123684E-002           7      147354           0
</event>
<event>
      5   9999  3.79277E-02  7.22511E+01 -1.00000E+00  1.30528E-01
      21    -1     0     0   511   501  0.000000000E+00  0.000000000E+00  4.696374247E+02  4.696374247E+02  0.000000000E+00  0.00000E+00  9.000E+00
      21    -1     0     0   501   502  0.000000000E+00  0.000000000E+00 -2.405692310E+02  2.405692310E+02  0.000000000E+00  0.00000E+00  9.000E+00
      25     1     1     2     0     0  1.020809969E+02 -6.386961917E+01  6.439761435E+01  1.851267428E+02  1.250000000E+02  0.00000E+00  9.000E+00
      25     1     1     2     0     0 -1.478057902E+02  7.927992284E+00 -1.223286109E+02  2.291259342E+02  1.250000000E+02  0.00000E+00  9.000E+00
      21     1     1     2   511   502  4.572479329E+01  5.594162689E+01  2.869991903E+02  2.959539788E+02  3.814697266E-06  0.00000E+00  9.000E+00
#rwgt            1           1   8.2629299532534936E-002           7      147464           0
</event>
<event>
      5   9999  3.79277E-02  3.07066E+01 -1.00000E+00  1.52341E-01
      21    -1     0     0   502   501  0.000000000E+00  0.000000000E+00  7.625774534E+02  7.625774534E+02  0.000000000E+00  0.00000E+00  9.000E+00
       2    -1     0     0   501     0  0.000000000E+00  0.000000000E+00 -2.151376585E+02  2.151376585E+02  0.000000000E+00  0.00000E+00  9.000E+00
      25     1     1     2     0     0 -2.655449893E+02 -1.458302340E+02  1.307181070E+02  3.528354035E+02  1.250000000E+02  0.00000E+00  9.000E+00
      25     1     1     2     0     0  2.919365635E+02  1.301337681E+02  4.586928868E+02  5.728751339E+02  1.250000000E+02  0.00000E+00  9.000E+00
       2     1     1     2   502     0 -2.639157422E+01  1.569646592E+01 -4.197119883E+01  5.200457444E+01  4.768371582E-07  0.00000E+00  9.000E+00
#rwgt            1           1   3.2832695422130541E-002           7      147587           0
</event>
<event>
      5   9999  3.79277E-02  1.06809E+01 -1.00000E+00  1.92507E-01
      21    -1     0     0   502   511  0.000000000E+00  0.000000000E+00  1.453683167E+02  1.453683167E+02  0.000000000E+00  0.00000E+00  9.000E+00
      21    -1     0     0   501   502  0.000000000E+00  0.000000000E+00 -3.264065197E+02  3.264065197E+02  0.000000000E+00  0.00000E+00  9.000E+00
      25     1     1     2     0     0 -2.528916850E+01  1.512168986E+02 -3.280485594E+01  2.005174582E+02  1.250000000E+02  0.00000E+00  9.000E+00
      25     1     1     2     0     0  1.729042456E+01 -1.582951613E+02 -1.579892425E+02  2.567915840E+02  1.250000000E+02  0.00000E+00  9.000E+00
      21     1     1     2   501   511  7.998743945E+00  7.078262773E+00  9.755895366E+00  1.446579424E+01  1.685873940E-07  0.00000E+00  9.000E+00
#rwgt            1           1   3.4516278377674479E-002           7      147825           0
</event>
<event>
      5   9999  3.79277E-02  1.55838E+01 -1.00000E+00  1.75835E-01
      21    -1     0     0   502   512  0.000000000E+00  0.000000000E+00  1.211791473E+02  1.211791473E+02  0.000000000E+00  0.00000E+00  9.000E+00
      21    -1     0     0   501   502  0.000000000E+00  0.000000000E+00 -7.983067693E+02  7.983067693E+02  0.000000000E+00  0.00000E+00  9.000E+00
      25     1     1     2     0     0  1.183711538E+02  2.007390904E+02 -5.603950275E+02  6.196575662E+02  1.250000000E+02  0.00000E+00  9.000E+00
      25     1     1     2     0     0 -1.283797235E+02 -1.887940323E+02 -1.067878048E+02  2.813417411E+02  1.250000000E+02  0.00000E+00  9.000E+00
      21     1     1     2   501   512  1.000856968E+01 -1.194505810E+01 -9.944789676E+00  1.848660925E+01  1.192092896E-07  0.00000E+00  9.000E+00
#rwgt            1           1   3.8016368177316122E-002           7      148036           0
</event>
<event>
      5   9999  3.79277E-02  6.90992E+01 -1.00000E+00  1.31506E-01
      21    -1     0     0   502   501  0.000000000E+00  0.000000000E+00  6.572563038E+02  6.572563038E+02  0.000000000E+00  0.00000E+00  9.000E+00
      21    -1     0     0   501   511  0.000000000E+00  0.000000000E+00 -8.554265112E+01  8.554265112E+01  0.000000000E+00  0.00000E+00  9.000E+00
      25     1     1     2     0     0 -8.500995490E+01 -7.871999969E+01  1.271603031E+02  2.126458875E+02  1.250000000E+02  0.00000E+00  9.000E+00
      25     1     1     2     0     0  1.538244292E+02  8.498680684E+01  3.717656177E+02  4.297899334E+02  1.250000000E+02  0.00000E+00  9.000E+00
      21     1     1     2   502   511 -6.881447434E+01 -6.266807150E+00  7.278773187E+01  1.003631340E+02  2.132480600E-06  0.00000E+00  9.000E+00
#rwgt            1           1   4.4193553391663580E-002           7      148273           0
</event>
<event>
      5   9999  3.79277E-02  2.61077E+01 -1.00000E+00  1.57353E-01
      21    -1     0     0   502   501  0.000000000E+00  0.000000000E+00  5.505079348E+01  5.505079348E+01  0.000000000E+00  0.00000E+00  9.000E+00
      21    -1     0     0   512   502  0.000000000E+00  0.000000000E+00 -8.127886250E+02  8.127886250E+02  0.000000000E+00  0.00000E+00  9.000E+00
      25     1     1     2     0     0  5.718387753E+01 -4.117029836E+01 -6.976016449E+01  1.595508379E+02  1.250000000E+02  0.00000E+00  9.000E+00
      25     1     1     2     0     0 -5.214232938E+01  1.555403495E+01 -6.317923834E+02  6.463337886E+02  1.250000000E+02  0.00000E+00  9.000E+00
      21     1     1     2   512   501 -5.041548149E+00  2.561626342E+01 -5.618528359E+01  6.195479199E+01  0.000000000E+00  0.00000E+00  9.000E+00
#rwgt            1           1   3.5138804614650784E-002           7      148385           0
</event>
<event>
      5   9999  3.79277E-02  1.83310E+01 -1.00000E+00  1.69553E-01
      21    -1     0     0   511   501  0.000000000E+00  0.000000000E+00  5.751013191E+01  5.751013191E+01  0.000000000E+00  0.00000E+00  9.000E+00
      21    -1     0     0   501   502  0.000000000E+00  0.000000000E+00 -1.496953686E+03  1.496953686E+03  0.000000000E+00  0.00000E+00  9.000E+00
      25     1     1     2     0     0  4.168940340E+01  9.579101378E+01 -1.353010904E+03  1.362782973E+03  1.250000000E+02  0.00000E+00  9.000E+00
      25     1     1     2     0     0 -2.905583662E+01 -8.250877996E+01 -7.429660227E+01  1.696965690E+02  1.250000000E+02  0.00000E+00  9.000E+00
      21     1     1     2   511   502 -1.263356677E+01 -1.328223382E+01 -1.213604807E+01  2.198427637E+01  3.371747881E-07  0.00000E+00  9.000E+00
#rwgt            1           1   5.1939882021273441E-002           7      148562           0
</event>
<event>
      5   9999  3.79277E-02  3.15698E+01 -1.00000E+00  1.51517E-01
      21    -1     0     0   502   501  0.000000000E+00  0.000000000E+00  9.150696995E+01  9.150696995E+01  0.000000000E+00  0.00000E+00  9.000E+00
      21    -1     0     0   501   512  0.000000000E+00  0.000000000E+00 -6.265578449E+02  6.265578449E+02  0.000000000E+00  0.00000E+00  9.000E+00
      25     1     1     2     0     0 -5.329368299E+01  3.627119001E+01 -5.148829232E+02  5.337464197E+02  1.250000000E+02  0.00000E+00  9.000E+00
      25     1     1     2     0     0  4.287559045E+01 -6.469930929E+00  1.937584577E+01  1.337183595E+02  1.250000000E+02  0.00000E+00  9.000E+00
      21     1     1     2   502   512  1.041809253E+01 -2.980125908E+01 -3.954379751E+01  5.060003574E+01  1.066240300E-06  0.00000E+00  9.000E+00
#rwgt            1           1   4.1516987509710598E-002           7      148691           0
</event>
<event>
      5   9999  3.79277E-02  1.64418E+01 -1.00000E+00  1.73709E-01
      21    -1     0     0   502   511  0.000000000E+00  0.000000000E+00  3.052254644E+02  3.052254644E+02  0.000000000E+00  0.00000E+00  9.000E+00
      21    -1     0     0   501   502  0.000000000E+00  0.000000000E+00 -1.386902860E+02  1.386902860E+02  0.000000000E+00  0.00000E+00  9.000E+00
      25     1     1     2     0     0  6.188697347E+01 -1.069047861E+02  4.399146196E+01  1.811598176E+02  1.250000000E+02  0.00000E+00  9.000E+00
      25     1     1     2     0     0 -7.475867934E+01  1.171348060E+02  5.733123839E+01  1.955026696E+02  1.250000000E+02  0.00000E+00  9.000E+00
      21     1     1     2   501   511  1.287170587E+01 -1.023001991E+01  6.521247807E+01  6.725326323E+01  9.536743164E-07  0.00000E+00  9.000E+00
#rwgt            1           1  0.16995239811711557                7      148834           0
</event>
<event>
      5   9999  3.79277E-02  5.28050E+01 -1.00000E+00  1.37736E-01
      21    -1     0     0   502   501  0.000000000E+00  0.000000000E+00  2.612203656E+02  2.612203656E+02  0.000000000E+00  0.00000E+00  9.000E+00
      21    -1     0     0   501   512  0.000000000E+00  0.000000000E+00 -2.222001119E+02  2.222001119E+02  0.000000000E+00  0.00000E+00  9.000E+00
      25     1     1     2     0     0 -1.550111761E+01 -4.162233029E+01 -6.219479781E+01  1.465124428E+02  1.250000000E+02  0.00000E+00  9.000E+00
      25     1     1     2     0     0  6.708660474E+01  3.033948966E+01  1.866944219E+02  2.364337208E+02  1.250000000E+02  0.00000E+00  9.000E+00
      21     1     1     2   502   512 -5.158548713E+01  1.128284063E+01 -8.547937037E+01  1.004743138E+02  0.000000000E+00  0.00000E+00  9.000E+00
#rwgt            2          11   1.1281774883989616E-003           7      149009           0
</event>
<event>
      5   9999  3.79277E-02  1.20191E+02 -1.00000E+00  1.20339E-01
      21    -1     0     0   502   501  0.000000000E+00  0.000000000E+00  1.272245053E+02  1.272245053E+02  0.000000000E+00  0.00000E+00  9.000E+00
       2    -1     0     0   501     0  0.000000000E+00  0.000000000E+00 -3.338291221E+03  3.338291221E+03  0.000000000E+00  0.00000E+00  9.000E+00
      25     1     1     2     0     0  1.650041190E+02  5.695268254E+01 -6.581577396E+02  6.922908186E+02  1.250000000E+02  0.00000E+00  9.000E+00
      25     1     1     2     0     0 -1.093533129E+02 -1.634842824E+02 -1.613316037E+01  2.336033743E+02  1.250000000E+02  0.00000E+00  9.000E+00
       2     1     1     2   502     0 -5.565080604E+01  1.065315998E+02 -2.536775816E+03  2.539621533E+03  3.051757812E-05  0.00000E+00  9.000E+00
#rwgt            1           1   6.6490192448479327E-002           7      149059           0
</event>
<event>
      5   9999  3.79277E-02  4.41802E+01 -1.00000E+00  1.42213E-01
      21    -1     0     0   502   511  0.000000000E+00  0.000000000E+00  1.103468558E+03  1.103468558E+03  0.000000000E+00  0.00000E+00  9.000E+00
      21    -1     0     0   501   502  0.000000000E+00  0.000000000E+00 -1.153143845E+02  1.153143845E+02  0.000000000E+00  0.00000E+00  9.000E+00
      25     1     1     2     0     0 -1.637034183E+02 -3.149848305E+01  6.337182202E+01  2.177887771E+02  1.250000000E+02  0.00000E+00  9.000E+00
      25     1     1     2     0     0  1.200500808E+02  3.830098937E+01  1.728070822E+02  2.477221737E+02  1.250000000E+02  0.00000E+00  9.000E+00
      21     1     1     2   501   511  4.365333755E+01 -6.802506319E+00  7.519752692E+02  7.532719917E+02  0.000000000E+00  0.00000E+00  9.000E+00
#rwgt            1           1  0.10338940834539502                7      149283           0
</event>
<event>
      5   9999  3.79277E-02  1.92256E+01 -1.00000E+00  1.67797E-01
      21    -1     0     0   502   512  0.000000000E+00  0.000000000E+00  1.448812624E+02  1.448812624E+02  0.000000000E+00  0.00000E+00  9.000E+00
      21    -1     0     0   501   502  0.000000000E+00  0.000000000E+00 -6.260385907E+02  6.260385907E+02  0.000000000E+00  0.00000E+00  9.000E+00
      25     1     1     2     0     0  1.426576830E+02  2.282580350E+02 -2.516434723E+02  3.891045903E+02  1.250000000E+02  0.00000E+00  9.000E+00
      25     1     1     2     0     0 -1.236646632E+02 -2.252763613E+02 -2.176977037E+02  3.592487691E+02  1.250000000E+02  0.00000E+00  9.000E+00
      21     1     1     2   501   512 -1.899301984E+01 -2.981673726E+00 -1.181615231E+01  2.256649367E+01  1.685873940E-07  0.00000E+00  9.000E+00
#rwgt            1           1   1.3967654977544411E-002           7      149378           0
</event>
<event>
      5   9999  3.79277E-02  1.27881E+02 -1.00000E+00  1.19207E-01
      21    -1     0     0   502   511  0.000000000E+00  0.000000000E+00  4.968045320E+02  4.968045320E+02  0.000000000E+00  0.00000E+00  9.000E+00
      21    -1     0     0   501   502  0.000000000E+00  0.000000000E+00 -2.418823175E+02  2.418823175E+02  0.000000000E+00  0.00000E+00  9.000E+00
      25     1     1     2     0     0  1.855257896E+02 -8.026834495E+01  1.142181059E+02  2.636922478E+02  1.250000000E+02  0.00000E+00  9.000E+00
      25     1     1     2     0     0 -1.884787695E+02 -4.757813726E+01 -5.838464920E+01  2.383730122E+02  1.250000000E+02  0.00000E+00  9.000E+00
      21     1     1     2   501   511  2.952979919E+00  1.278464822E+02  1.990887578E+02  2.366215894E+02  2.697398305E-06  0.00000E+00  9.000E+00
#rwgt            2          11   2.0844078668881094E-003           7      149609           0
</event>
<event>
      5   9999  3.79277E-02  6.27702E+01 -1.00000E+00  1.33664E-01
      21    -1     0     0   502   501  0.000000000E+00  0.000000000E+00  2.772109988E+02  2.772109988E+02  0.000000000E+00  0.00000E+00  9.000E+00
       2    -1     0     0   501     0  0.000000000E+00  0.000000000E+00 -4.649466945E+02  4.649466945E+02  0.000000000E+00  0.00000E+00  9.000E+00
      25     1     1     2     0     0  1.031508833E+02  8.702299926E+01  4.310310127E+01  1.889338097E+02  1.250000000E+02  0.00000E+00  9.000E+00
      25     1     1     2     0     0 -5.144626041E+01 -1.226142274E+02  1.056879449E+02  2.108931202E+02  1.250000000E+02  0.00000E+00  9.000E+00
       2     1     1     2   502     0 -5.170462284E+01  3.559122812E+01 -3.365267419E+02  3.423307634E+02  3.814697266E-06  0.00000E+00  9.000E+00
#rwgt            1           1   1.4844657846016518E-002           7      149629           0
</event>
<event>
      5   9999  3.79277E-02  5.03513E+01 -1.00000E+00  1.38902E-01
      21    -1     0     0   511   501  0.000000000E+00  0.000000000E+00  1.131369688E+02  1.131369688E+02  0.000000000E+00  0.00000E+00  9.000E+00
      21    -1     0     0   501   502  0.000000000E+00  0.000000000E+00 -4.017214142E+02  4.017214142E+02  0.000000000E+00  0.00000E+00  9.000E+00
      25     1     1     2     0     0 -3.059143179E-01 -1.359782549E+02 -2.240734417E+02  2.903860992E+02  1.250000000E+02  0.00000E+00  9.000E+00
      25     1     1     2     0     0 -3.249795498E+01  9.777926155E+01 -6.383269339E+01  1.741163801E+02  1.250000000E+02  0.00000E+00  9.000E+00
      21     1     1     2   511   502  3.280386930E+01  3.819899331E+01 -6.783104303E-01  5.035590369E+01  4.434190993E-07  0.00000E+00  9.000E+00
#rwgt            1           1   4.1720361795639489E-002           7      149842           0
</event>
<event>
      5   9999 -3.79277E-02  3.21149E+01 -1.00000E+00  1.51013E-01
      21    -1     0     0   502   501  0.000000000E+00  0.000000000E+00  3.140706466E+02  3.140706466E+02  0.000000000E+00  0.00000E+00  9.000E+00
      21    -1     0     0   501   512  0.000000000E+00  0.000000000E+00 -5.875899209E+02  5.875899209E+02  0.000000000E+00  0.00000E+00  9.000E+00
      25     1     1     2     0     0  1.511185223E+02 -3.206086227E+02 -1.568502314E+02  4.072513865E+02  1.250000000E+02  0.00000E+00  9.000E+00
      25     1     1     2     0     0 -1.283798677E+02  3.432872637E+02 -1.471477965E+01  3.875165294E+02  1.250000000E+02  0.00000E+00  9.000E+00
      21     1     1     2   502   512 -2.273865462E+01 -2.267864106E+01 -1.019542632E+02  1.068926516E+02  1.348699152E-06  0.00000E+00  9.000E+00
#rwgt            1           1  -4.0516747959720038E-002           7      149955           0
</event>
<event>
      5   9999  3.79277E-02  3.37871E+01 -1.00000E+00  1.49538E-01
      21    -1     0     0   502   501  0.000000000E+00  0.000000000E+00  1.159946781E+02  1.159946781E+02  0.000000000E+00  0.00000E+00  9.000E+00
      21    -1     0     0   511   502  0.000000000E+00  0.000000000E+00 -5.449748730E+02  5.449748730E+02  0.000000000E+00  0.00000E+00  9.000E+00
      25     1     1     2     0     0  1.184332903E+02  9.300572540E+00 -3.089297457E+02  3.538015442E+02  1.250000000E+02  0.00000E+00  9.000E+00
      25     1     1     2     0     0 -1.395230480E+02 -3.569730860E+01 -8.801649413E+00  1.909016705E+02  1.250000000E+02  0.00000E+00  9.000E+00
      21     1     1     2   511   501  2.108975767E+01  2.639673606E+01 -1.112487997E+02  1.162663364E+02  1.348699152E-06  0.00000E+00  9.000E+00
#rwgt            1           1   1.4414424613570360E-002           7      150176           0
</event>
<event>
      5   9999  3.79277E-02  2.22695E+02 -1.00000E+00  1.09975E-01
      21    -1     0     0   502   501  0.000000000E+00  0.000000000E+00  2.000069969E+02  2.000069969E+02  0.000000000E+00  0.00000E+00  9.000E+00
      21    -1     0     0   512   502  0.000000000E+00  0.000000000E+00 -1.580425580E+03  1.580425580E+03  0.000000000E+00  0.00000E+00  9.000E+00
      25     1     1     2     0     0  2.828711976E+02  9.826521664E+01 -5.737936407E+01  3.295292986E+02  1.250000000E+02  0.00000E+00  9.000E+00
      25     1     1     2     0     0 -6.205093189E+01 -1.270966984E+02 -1.118400674E+02  2.194016626E+02  1.250000000E+02  0.00000E+00  9.000E+00
      21     1     1     2   512   501 -2.208202657E+02  2.883148178E+01 -1.211199151E+03  1.231501615E+03  0.000000000E+00  0.00000E+00  9.000E+00
#rwgt            2          11   1.0115387951868744E-003           7      150352           0
</event>
<event>
      5   9999  3.79277E-02  1.33023E+02 -1.00000E+00  1.18499E-01
      21    -1     0     0   511   501  0.000000000E+00  0.000000000E+00  6.698865971E+02  6.698865971E+02  0.000000000E+00  0.00000E+00  9.000E+00
      21    -1     0     0   501   502  0.000000000E+00  0.000000000E+00 -2.239686047E+02  2.239686047E+02  0.000000000E+00  0.00000E+00  9.000E+00
      25     1     1     2     0     0 -8.934899460E+01 -3.169756894E+01 -8.236723519E+01  1.771929461E+02  1.250000000E+02  0.00000E+00  9.000E+00
      25     1     1     2     0     0  1.261675724E+02  1.595235686E+02  8.429554706E+01  2.531733882E+02  1.250000000E+02  0.00000E+00  9.000E+00
      21     1     1     2   511   502 -3.681857777E+01 -1.278259996E+02  4.439896805E+02  4.634888674E+02  5.394796609E-06  0.00000E+00  9.000E+00
#rwgt            1           1   4.8436090302481020E-002           7      150477           0
</event>
<event>
      5   9999  3.79277E-02  1.72196E+01 -1.00000E+00  1.71918E-01
      21    -1     0     0   502   501  0.000000000E+00  0.000000000E+00  1.267799336E+03  1.267799336E+03  0.000000000E+00  0.00000E+00  9.000E+00
      21    -1     0     0   501   512  0.000000000E+00  0.000000000E+00 -2.674008878E+01  2.674008878E+01  0.000000000E+00  0.00000E+00  9.000E+00
      25     1     1     2     0     0  5.596153239E+01 -3.373511482E+01  1.000201435E+03  1.010097848E+03  1.250000000E+02  0.00000E+00  9.000E+00
      25     1     1     2     0     0 -4.023057708E+01  2.673141312E+01  2.163089954E+02  2.544555939E+02  1.250000000E+02  0.00000E+00  9.000E+00
      21     1     1     2   502   512 -1.573095531E+01  7.003701709E+00  2.454881729E+01  2.998598378E+01  5.840038640E-07  0.00000E+00  9.000E+00
#rwgt            1           1   3.7958292771370111E-002           7      150578           0
</event>
<event>
      5   9999  3.79277E-02  8.84627E+00 -1.00000E+00  2.02120E-01
      21    -1     0     0   502   501  0.000000000E+00  0.000000000E+00  1.363684269E+02  1.363684269E+02  0.000000000E+00  0.00000E+00  9.000E+00
      21    -1     0     0   501   511  0.000000000E+00  0.000000000E+00 -2.785390328E+02  2.785390328E+02  0.000000000E+00  0.00000E+00  9.000E+00
      25     1     1     2     0     0 -5.352577577E+01  1.074866731E+02 -9.678999847E+01  1.985237955E+02  1.250000000E+02  0.00000E+00  9.000E+00
      25     1     1     2     0     0  6.184436298E+01 -1.104962605E+02 -8.150236383E+00  1.781167459E+02  1.250000000E+02  0.00000E+00  9.000E+00
      21     1     1     2   502   511 -8.318587207E+00  3.009587397E+00 -3.723037105E+01  3.826691832E+01  6.743495762E-07  0.00000E+00  9.000E+00
#rwgt            1           1   3.5085774118301105E-002           7      150731           0
</event>
<event>
      5   9999  3.79277E-02  2.76721E+01 -1.00000E+00  1.55517E-01
      21    -1     0     0   502   512  0.000000000E+00  0.000000000E+00  1.116150698E+02  1.116150698E+02  0.000000000E+00  0.00000E+00  9.000E+00
      21    -1     0     0   501   502  0.000000000E+00  0.000000000E+00 -6.149801615E+02  6.149801615E+02  0.000000000E+00  0.00000E+00  9.000E+00
      25     1     1     2     0     0  1.318724950E+02  3.317931634E+01 -4.557499706E+02  4.917562991E+02  1.250000000E+02  0.00000E+00  9.000E+00
      25     1     1     2     0     0 -1.475285870E+02 -5.599667375E+01 -4.880728477E+01  2.071411657E+02  1.250000000E+02  0.00000E+00  9.000E+00
      21     1     1     2   501   512  1.565609202E+01  2.281735741E+01  1.192163687E+00  2.769776653E+01  3.371747881E-07  0.00000E+00  9.000E+00
#rwgt            1           1   2.8227210398616844E-002           7      151041           0
</event>
<event>
      5   9999  3.79277E-02  3.51583E+01 -1.00000E+00  1.48403E-01
      21    -1     0     0   502   501  0.000000000E+00  0.000000000E+00  2.076355646E+02  2.076355646E+02  0.000000000E+00  0.00000E+00  9.000E+00
      21    -1     0     0   511   502  0.000000000E+00  0.000000000E+00 -3.896166125E+02  3.896166125E+02  0.000000000E+00  0.00000E+00  9.000E+00
      25     1     1     2     0     0 -9.252901047E+01 -1.707933372E+02  1.567003073E+00  2.309966175E+02  1.250000000E+02  0.00000E+00  9.000E+00
      25     1     1     2     0     0  5.837677076E+01  1.624428052E+02 -3.795080219E+01  2.164734988E+02  1.250000000E+02  0.00000E+00  9.000E+00
      21     1     1     2   511   501  3.415223971E+01  8.350532046E+00 -1.455972488E+02  1.497820607E+02  1.907348633E-06  0.00000E+00  9.000E+00
#rwgt            1           1   4.3441635725758383E-002           7      151162           0
</event>
<event>
      5   9999  3.79277E-02  3.59009E+01 -1.00000E+00  1.47814E-01
      21    -1     0     0   502   501  0.000000000E+00  0.000000000E+00  5.720277702E+02  5.720277702E+02  0.000000000E+00  0.00000E+00  9.000E+00
      21    -1     0     0   512   502  0.000000000E+00  0.000000000E+00 -8.733667115E+01  8.733667115E+01  0.000000000E+00  0.00000E+00  9.000E+00
      25     1     1     2     0     0 -2.018817839E+00  1.129789314E+02  1.542985548E+02  2.284761663E+02  1.250000000E+02  0.00000E+00  9.000E+00
      25     1     1     2     0     0 -3.137162790E+01 -9.978978790E+01  3.527555877E+02  3.885919266E+02  1.250000000E+02  0.00000E+00  9.000E+00
      21     1     1     2   512   501  3.339044574E+01 -1.318914350E+01 -2.236304345E+01  4.229634837E+01  1.066240300E-06  0.00000E+00  9.000E+00
#rwgt            1           1   4.1707344853225838E-002           7      151397           0
</event>
<event>
      5   9999  3.79277E-02  1.18245E+02 -1.00000E+00  1.20640E-01
      21    -1     0     0   502   501  0.000000000E+00  0.000000000E+00  6.479446441E+02  6.479446441E+02  0.000000000E+00  0.00000E+00  9.000E+00
      21    -1     0     0   511   502  0.000000000E+00  0.000000000E+00 -1.165479780E+02  1.165479780E+02  0.000000000E+00  0.00000E+00  9.000E+00
      25     1     1     2     0     0 -8.097514060E+01  1.784778831E+02  3.995583577E+02  4.622588121E+02  1.250000000E+02  0.00000E+00  9.000E+00
      25     1     1     2     0     0  2.092429493E+01 -7.661586202E+01  1.033838810E+02  1.806129654E+02  1.250000000E+02  0.00000E+00  9.000E+00
      21     1     1     2   511   501  6.005084567E+01 -1.018620211E+02  2.845442735E+01  1.216208446E+02  1.994752947E-06  0.00000E+00  9.000E+00
#rwgt            1           1   3.4076228129032111E-002           7      151531           0
</event>
<event>
      5   9999  3.79277E-02  1.25429E+02 -1.00000E+00  1.19558E-01
      21    -1     0     0   502   512  0.000000000E+00  0.000000000E+00  1.875036889E+02  1.875036889E+02  0.000000000E+00  0.00000E+00  9.000E+00
      21    -1     0     0   501   502  0.000000000E+00  0.000000000E+00 -7.121776616E+02  7.121776616E+02  0.000000000E+00  0.00000E+00  9.000E+00
      25     1     1     2     0     0 -8.307860255E+01  5.627095485E+01 -3.546942812E+02  3.892319458E+02  1.250000000E+02  0.00000E+00  9.000E+00
      25     1     1     2     0     0  1.752213205E+02 -1.413713864E+02 -2.522260913E+02  3.604599578E+02  1.250000000E+02  0.00000E+00  9.000E+00
      21     1     1     2   501   512 -9.214271791E+01  8.510043151E+01  8.224639980E+01  1.499894469E+02  2.523185073E-06  0.00000E+00  9.000E+00
#rwgt            2          11   1.9118104878442621E-003           7      151591           0
</event>
<event>
      5   9999  3.79277E-02  1.53046E+02 -1.00000E+00  1.16049E-01
      21    -1     0     0   502   511  0.000000000E+00  0.000000000E+00  6.067769416E+02  6.067769416E+02  0.000000000E+00  0.00000E+00  9.000E+00
      21    -1     0     0   501   502  0.000000000E+00  0.000000000E+00 -4.765662784E+02  4.765662784E+02  0.000000000E+00  0.00000E+00  9.000E+00
      25     1     1     2     0     0  1.136343459E+01  7.633664556E+01 -3.841886267E+02  4.113177750E+02  1.250000000E+02  0.00000E+00  9.000E+00
      25     1     1     2     0     0 -2.006212047E+01  7.646220455E+01  1.378532130E+01  1.485395317E+02  1.250000000E+02  0.00000E+00  9.000E+00
      21     1     1     2   501   511  8.698685885E+00 -1.527988501E+02  5.006139687E+02  5.234859132E+02  7.629394531E-06  0.00000E+00  9.000E+00
#rwgt            2          11   4.6122959622222938E-003           7      151626           0
</event>
<event>
      5   9999  3.79277E-02  1.63531E+01 -1.00000E+00  1.73921E-01
      21    -1     0     0   502   501  0.000000000E+00  0.000000000E+00  1.019697242E+02  1.019697242E+02  0.000000000E+00  0.00000E+00  9.000E+00
      21    -1     0     0   512   502  0.000000000E+00  0.000000000E+00 -4.859873605E+02  4.859873605E+02  0.000000000E+00  0.00000E+00  9.000E+00
      25     1     1     2     0     0  7.925183322E+01 -1.055019901E+02 -3.332976754E+02  3.796364885E+02  1.250000000E+02  0.00000E+00  9.000E+00
      25     1     1     2     0     0 -8.170937266E+01  8.933459512E+01 -2.217701665E+01  1.754249456E+02  1.250000000E+02  0.00000E+00  9.000E+00
      21     1     1     2   512   501  2.457539438E+00  1.616739494E+01 -2.854294423E+01  3.289565055E+01  5.840038640E-07  0.00000E+00  9.000E+00
#rwgt            1           1   3.4003154696259981E-002           7      151676           0
</event>
<event>
      5   9999  3.79277E-02  1.08891E+01 -1.00000E+00  1.91576E-01
      21    -1     0     0   502   501  0.000000000E+00  0.000000000E+00  2.332951590E+02  2.332951590E+02  0.000000000E+00  0.00000E+00  9.000E+00
      21    -1     0     0   511   502  0.000000000E+00  0.000000000E+00 -7.128182409E+02  7.128182409E+02  0.000000000E+00  0.00000E+00  9.000E+00
      25     1     1     2     0     0  1.635091557E+02  6.018441526E+01  4.900493765E+00  2.144910783E+02  1.250000000E+02  0.00000E+00  9.000E+00
      25     1     1     2     0     0 -1.644541123E+02 -4.933640759E+01  3.226893331E+01  2.148150838E+02  1.250000000E+02  0.00000E+00  9.000E+00
      21     1     1     2   511   501  9.449566256E-01 -1.084800767E+01 -5.166925090E+02  5.168072378E+02  7.629394531E-06  0.00000E+00  9.000E+00
#rwgt            1           1   3.3134777482223918E-002           7      152007           0
</event>
<event>
      5   9999  3.79277E-02  1.31189E+01 -1.00000E+00  1.83047E-01
      21    -1     0     0   502   501  0.000000000E+00  0.000000000E+00  1.530713034E+02  1.530713034E+02  0.000000000E+00  0.00000E+00  9.000E+00
      -2    -1     0     0     0   502  0.000000000E+00  0.000000000E+00 -5.591106132E+02  5.591106132E+02  0.000000000E+00  0.00000E+00  9.000E+00
      25     1     1     2     0     0 -3.528989561E+01  1.137419908E+00  9.821011790E+01  1.628400986E+02  1.250000000E+02  0.00000E+00  9.000E+00
      25     1     1     2     0     0  3.265726217E+01  1.171462813E+01 -1.652394207E+02  2.100780699E+02  1.250000000E+02  0.00000E+00  9.000E+00
      -2     1     1     2     0   501  2.632633437E+00 -1.285204804E+01 -3.390100070E+02  3.392637481E+02  0.000000000E+00  0.00000E+00  9.000E+00
#rwgt            1           1   2.8289810613891280E-002           7      152238           0
</event>
<event>
      5   9999  3.79277E-02  9.07585E+00 -1.00000E+00  2.00755E-01
      21    -1     0     0   502   501  0.000000000E+00  0.000000000E+00  8.650701172E+01  8.650701172E+01  0.000000000E+00  0.00000E+00  9.000E+00
      21    -1     0     0   511   502  0.000000000E+00  0.000000000E+00 -7.005166990E+02  7.005166990E+02  0.000000000E+00  0.00000E+00  9.000E+00
      25     1     1     2     0     0 -1.288454960E+02 -1.620097313E+02 -2.513773916E+02  3.488035377E+02  1.250000000E+02  0.00000E+00  9.000E+00
      25     1     1     2     0     0  1.197727170E+02  1.617738092E+02 -3.502993390E+02  4.229076684E+02  1.250000000E+02  0.00000E+00  9.000E+00
      21     1     1     2   511   501  9.072779000E+00  2.359220874E-01 -1.233295671E+01  1.531250467E+01  2.920019320E-07  0.00000E+00  9.000E+00
#rwgt            1           1   4.3384270378956431E-002           7      152506           0
</event>
<event>
      5   9999  3.79277E-02  1.68876E+02 -1.00000E+00  1.14389E-01
      21    -1     0     0   512   501  0.000000000E+00  0.000000000E+00  6.869903697E+02  6.869903697E+02  0.000000000E+00  0.00000E+00  9.000E+00
      21    -1     0     0   501   502  0.000000000E+00  0.000000000E+00 -1.534656391E+03  1.534656391E+03  0.000000000E+00  0.00000E+00  9.000E+00
      25     1     1     2     0     0  2.904485443E+02 -1.107566005E+01 -4.882569919E+02  5.818100354E+02  1.250000000E+02  0.00000E+00  9.000E+00
      25     1     1     2     0     0 -3.665132373E+02  1.618509052E+02 -9.430639567E+02  1.032241394E+03  1.250000000E+02  0.00000E+00  9.000E+00
      21     1     1     2   512   502  7.606469292E+01 -1.507752451E+02  5.836549275E+02  6.075953312E+02  1.078959322E-05  0.00000E+00  9.000E+00
#rwgt            1           1   5.3373625258417864E-002           7      152923           0
</event>
<event>
      5   9999  3.79277E-02  2.42876E+01 -1.00000E+00  1.59697E-01
      21    -1     0     0   511   501  0.000000000E+00  0.000000000E+00  9.311098165E+01  9.311098165E+01  0.000000000E+00  0.00000E+00  9.000E+00
      21    -1     0     0   501   502  0.000000000E+00  0.000000000E+00 -6.421282331E+02  6.421282331E+02  0.000000000E+00  0.00000E+00  9.000E+00
      25     1     1     2     0     0 -3.261083390E+01 -2.858194379E+01 -5.473937508E+02  5.631565612E+02  1.250000000E+02  0.00000E+00  9.000E+00
      25     1     1     2     0     0  8.570065487E+00  3.203564219E+01 -3.196660582E+01  1.332163364E+02  1.250000000E+02  0.00000E+00  9.000E+00
      21     1     1     2   511   502  2.404076842E+01 -3.453698394E+00  3.034310518E+01  3.886631717E+01  1.066240300E-06  0.00000E+00  9.000E+00
#rwgt            1           1   5.9305957700164787E-002           7      152985           0
</event>
<event>
      5   9999  3.79277E-02  1.25120E+02 -1.00000E+00  1.19603E-01
      21    -1     0     0   502   501  0.000000000E+00  0.000000000E+00  6.133890932E+02  6.133890932E+02  0.000000000E+00  0.00000E+00  9.000E+00
       1    -1     0     0   501     0  0.000000000E+00  0.000000000E+00 -1.151639672E+03  1.151639672E+03  0.000000000E+00  0.00000E+00  9.000E+00
      25     1     1     2     0     0 -6.293040032E+01 -2.399564593E+02  4.543938190E+02  5.325768305E+02  1.250000000E+02  0.00000E+00  9.000E+00
      25     1     1     2     0     0 -2.924358912E+01  1.553460770E+02  2.862336397E+01  2.035482451E+02  1.250000000E+02  0.00000E+00  9.000E+00
       1     1     1     2   502     0  9.217398944E+01  8.461038235E+01 -1.021267761E+03  1.028903689E+03  1.078959322E-05  0.00000E+00  9.000E+00
#rwgt            1           1   2.8282162623915846E-002           7      153211           0
</event>
<event>
      5   9999  3.79277E-02  7.61700E+01 -1.00000E+00  1.29389E-01
      21    -1     0     0   511   501  0.000000000E+00  0.000000000E+00  4.352686571E+02  4.352686571E+02  0.000000000E+00  0.00000E+00  9.000E+00
      21    -1     0     0   501   502  0.000000000E+00  0.000000000E+00 -2.390570449E+02  2.390570449E+02  0.000000000E+00  0.00000E+00  9.000E+00
      25     1     1     2     0     0  9.880295965E+01  1.859686482E+02 -9.298801498E+01  2.619506326E+02  1.250000000E+02  0.00000E+00  9.000E+00
      25     1     1     2     0     0 -2.495211448E+01 -1.673159637E+02  1.678565144E+02  2.691060185E+02  1.250000000E+02  0.00000E+00  9.000E+00
      21     1     1     2   511   502 -7.385084518E+01 -1.865268451E+01  1.213431128E+02  1.432690510E+02  1.907348633E-06  0.00000E+00  9.000E+00
#rwgt            1           1   3.9898954079857829E-002           7      153304           0
</event>
<event>
      5   9999  3.79277E-02  4.35496E+01 -1.00000E+00  1.42587E-01
       2    -1     0     0   502     0  0.000000000E+00  0.000000000E+00  5.563669729E+02  5.563669729E+02  0.000000000E+00  0.00000E+00  9.000E+00
      21    -1     0     0   501   502  0.000000000E+00  0.000000000E+00 -2.134876111E+02  2.134876111E+02  0.000000000E+00  0.00000E+00  9.000E+00
      25     1     1     2     0     0  8.176830400E+01 -2.051562330E+02 -2.143045355E+00  2.537808663E+02  1.250000000E+02  0.00000E+00  9.000E+00
      25     1     1     2     0     0 -3.843454952E+01  2.008257079E+02  8.786016789E+01  2.552500512E+02  1.250000000E+02  0.00000E+00  9.000E+00
       2     1     1     2   501     0 -4.333375448E+01  4.330525086E+00  2.571622392E+02  2.608236665E+02  3.814697266E-06  0.00000E+00  9.000E+00
#rwgt            2          18   1.1562814230578311E-004           7      153372           0
</event>
<event>
      5   9999  3.79277E-02  7.86974E+01 -1.00000E+00  1.28696E-01
      21    -1     0     0   502   501  0.000000000E+00  0.000000000E+00  3.619923353E+02  3.619923353E+02  0.000000000E+00  0.00000E+00  9.000E+00
      21    -1     0     0   501   511  0.000000000E+00  0.000000000E+00 -3.028161437E+02  3.028161437E+02  0.000000000E+00  0.00000E+00  9.000E+00
      25     1     1     2     0     0 -1.168726314E+02 -2.829911086E+01  7.272135120E+00  1.736028099E+02  1.250000000E+02  0.00000E+00  9.000E+00
      25     1     1     2     0     0  6.163329494E+01  8.435174479E+01  2.384232827E+02  2.887638163E+02  1.250000000E+02  0.00000E+00  9.000E+00
      21     1     1     2   502   511  5.523933647E+01 -5.605263394E+01 -1.865192261E+02  2.024418528E+02  0.000000000E+00  0.00000E+00  9.000E+00
#rwgt            1           1   4.7914305944231135E-002           7      153466           0
</event>
<event>
      5   9999  3.79277E-02  3.79592E+01 -1.00000E+00  1.46265E-01
      21    -1     0     0   502   501  0.000000000E+00  0.000000000E+00  2.886755523E+02  2.886755523E+02  0.000000000E+00  0.00000E+00  9.000E+00
       1    -1     0     0   501     0  0.000000000E+00  0.000000000E+00 -2.065483484E+02  2.065483484E+02  0.000000000E+00  0.00000E+00  9.000E+00
      25     1     1     2     0     0 -6.457020476E+01  1.358637901E+02 -2.131495439E+00  1.955960738E+02  1.250000000E+02  0.00000E+00  9.000E+00
      25     1     1     2     0     0  8.603970804E+01 -1.045594944E+02  1.405285037E+02  2.317515471E+02  1.250000000E+02  0.00000E+00  9.000E+00
       1     1     1     2   502     0 -2.146950327E+01 -3.130429564E+01 -5.626980428E+01  6.787627987E+01  6.743495762E-07  0.00000E+00  9.000E+00
#rwgt            1           1   2.6838407552305241E-002           7      153551           0
</event>
<event>
      5   9999  3.79277E-02  1.49546E+02 -1.00000E+00  1.16446E-01
      21    -1     0     0   511   501  0.000000000E+00  0.000000000E+00  1.596439006E+03  1.596439006E+03  0.000000000E+00  0.00000E+00  9.000E+00
      21    -1     0     0   501   502  0.000000000E+00  0.000000000E+00 -1.568422169E+02  1.568422169E+02  0.000000000E+00  0.00000E+00  9.000E+00
      25     1     1     2     0     0  1.520805720E+02  9.103848063E+01  7.692119480E+01  2.301268684E+02  1.250000000E+02  0.00000E+00  9.000E+00
      25     1     1     2     0     0 -6.041460763E+00 -1.232348554E+02  2.530727416E+01  1.774508015E+02  1.250000000E+02  0.00000E+00  9.000E+00
      21     1     1     2   511   502 -1.460391113E+02  3.219637482E+01  1.337368320E+03  1.345703553E+03  0.000000000E+00  0.00000E+00  9.000E+00
#rwgt            1           1  0.33485068380494948                7      153674           0
</event>
<event>
      5   9999  3.79277E-02  1.65295E+01 -1.00000E+00  1.73501E-01
      21    -1     0     0   502   501  0.000000000E+00  0.000000000E+00  1.167203433E+02  1.167203433E+02  0.000000000E+00  0.00000E+00  9.000E+00
      21    -1     0     0   512   502  0.000000000E+00  0.000000000E+00 -3.679595056E+02  3.679595056E+02  0.000000000E+00  0.00000E+00  9.000E+00
      25     1     1     2     0     0  1.382926015E+02  6.561264013E+01 -9.992629838E+01  2.214500559E+02  1.250000000E+02  0.00000E+00  9.000E+00
      25     1     1     2     0     0 -1.252288540E+02 -7.573997900E+01 -1.172533035E+02  2.253711328E+02  1.250000000E+02  0.00000E+00  9.000E+00
      21     1     1     2   512   501 -1.306374743E+01  1.012733886E+01 -3.405956042E+01  3.785866011E+01  0.000000000E+00  0.00000E+00  9.000E+00
#rwgt            1           1   3.6060690754916795E-002           7      153766           0
</event>
<event>
      5   9999  3.79277E-02  1.26839E+02 -1.00000E+00  1.19355E-01
      21    -1     0     0   502   501  0.000000000E+00  0.000000000E+00  1.674782656E+03  1.674782656E+03  0.000000000E+00  0.00000E+00  9.000E+00
      21    -1     0     0   511   502  0.000000000E+00  0.000000000E+00 -6.064513086E+01  6.064513086E+01  0.000000000E+00  0.00000E+00  9.000E+00
      25     1     1     2     0     0 -7.606761241E+00  2.247250775E+02  8.571614329E+02  8.949357213E+02  1.250000000E+02  0.00000E+00  9.000E+00
      25     1     1     2     0     0  8.662119393E+01 -1.255039015E+02  6.334985815E+02  6.634756313E+02  1.250000000E+02  0.00000E+00  9.000E+00
      21     1     1     2   511   501 -7.901443269E+01 -9.922117600E+01  1.234775107E+02  1.770164342E+02  2.336015456E-06  0.00000E+00  9.000E+00
#rwgt            1           1   4.5691467524157064E-002           7      153991           0
</event>
<event>
      5   9999  3.79277E-02  1.11076E+01 -1.00000E+00  1.90627E-01
      21    -1     0     0   502   501  0.000000000E+00  0.000000000E+00  7.890315305E+01  7.890315305E+01  0.000000000E+00  0.00000E+00  9.000E+00
      21    -1     0     0   512   502  0.000000000E+00  0.000000000E+00 -7.768512751E+02  7.768512751E+02  0.000000000E+00  0.00000E+00  9.000E+00
      25     1     1     2     0     0  1.494304198E+02 -1.336027587E+02 -3.906893228E+02  4.565548099E+02  1.250000000E+02  0.00000E+00  9.000E+00
      25     1     1     2     0     0 -1.423604183E+02  1.421697599E+02 -2.646492973E+02  3.551661300E+02  1.250000000E+02  0.00000E+00  9.000E+00
      21     1     1     2   512   501 -7.070001505E+00 -8.567001210E+00 -4.260950194E+01  4.403348824E+01  4.768371582E-07  0.00000E+00  9.000E+00
#rwgt            1           1   3.8431283709940457E-002           7      154195           0
</event>
<event>
      5   9999  3.79277E-02  2.58999E+01 -1.00000E+00  1.57609E-01
      21    -1     0     0   502   511  0.000000000E+00  0.000000000E+00  3.970770363E+02  3.970770363E+02  0.000000000E+00  0.00000E+00  9.000E+00
      21    -1     0     0   501   502  0.000000000E+00  0.000000000E+00 -3.401564926E+02  3.401564926E+02  0.000000000E+00  0.00000E+00  9.000E+00
      25     1     1     2     0     0  1.329192198E+02  1.400771068E+02  1.053714591E+01  2.302718964E+02  1.250000000E+02  0.00000E+00  9.000E+00
      25     1     1     2     0     0 -1.253010294E+02 -1.153229185E+02 -1.809544065E+02  2.781532325E+02  1.250000000E+02  0.00000E+00  9.000E+00
      21     1     1     2   501   511 -7.618190414E+00 -2.475418828E+01  2.273378043E+02  2.288084000E+02  3.814697266E-06  0.00000E+00  9.000E+00
#rwgt            1           1   3.8848117244137968E-002           7      154471           0
</event>
<event>
      5   9999  3.79277E-02  1.46906E+01 -1.00000E+00  1.78241E-01
      21    -1     0     0   512   501  0.000000000E+00  0.000000000E+00  2.787057069E+02  2.787057069E+02  0.000000000E+00  0.00000E+00  9.000E+00
      21    -1     0     0   501   502  0.000000000E+00  0.000000000E+00 -4.054634519E+02  4.054634519E+02  0.000000000E+00  0.00000E+00  9.000E+00
      25     1     1     2     0     0  1.232738755E+02 -7.303254560E+01 -3.371925033E+02  3.871097846E+02  1.250000000E+02  0.00000E+00  9.000E+00
      25     1     1     2     0     0 -1.152675390E+02  8.534967881E+01  2.084769192E+02  2.822389043E+02  1.250000000E+02  0.00000E+00  9.000E+00
      21     1     1     2   512   502 -8.006336490E+00 -1.231713321E+01  1.957839024E+00  1.482046990E+01  9.884312124E-08  0.00000E+00  9.000E+00
#rwgt            1           1   4.2094967264429080E-002           7      154659           0
</event>
<event>
      5   9999  3.79277E-02  4.98995E+01 -1.00000E+00  1.39125E-01
       2    -1     0     0   502     0  0.000000000E+00  0.000000000E+00  2.857464547E+02  2.857464547E+02  0.000000000E+00  0.00000E+00  9.000E+00
      21    -1     0     0   501   502  0.000000000E+00  0.000000000E+00 -2.043060706E+02  2.043060706E+02  0.000000000E+00  0.00000E+00  9.000E+00
      25     1     1     2     0     0 -1.143530173E+02  2.545508509E+01  6.315942217E+01  1.825888456E+02  1.250000000E+02  0.00000E+00  9.000E+00
      25     1     1     2     0     0  6.773096206E+01 -7.668890536E+00 -1.033906983E+02  1.759571869E+02  1.250000000E+02  0.00000E+00  9.000E+00
       2     1     1     2   501     0  4.662205522E+01 -1.778619456E+01  1.216716603E+02  1.315064929E+02  1.348699152E-06  0.00000E+00  9.000E+00
#rwgt            1           1   3.1763204011606143E-002           7      154866           0
</event>
<event>
      5   9999  3.79277E-02  9.20257E+01 -1.00000E+00  1.25473E-01
      21    -1     0     0   502   511  0.000000000E+00  0.000000000E+00  2.304412238E+02  2.304412238E+02  0.000000000E+00  0.00000E+00  9.000E+00
      21    -1     0     0   501   502  0.000000000E+00  0.000000000E+00 -1.256209999E+03  1.256209999E+03  0.000000000E+00  0.00000E+00  9.000E+00
      25     1     1     2     0     0 -1.009199356E+02  6.032379336E+01 -1.094988132E+03  1.108353645E+03  1.250000000E+02  0.00000E+00  9.000E+00
      25     1     1     2     0     0  8.832885004E+01  3.083649162E+01 -1.001840764E+02  1.855120593E+02  1.250000000E+02  0.00000E+00  9.000E+00
      21     1     1     2   501   511  1.259108556E+01 -9.116028498E+01  1.694034332E+02  1.927855185E+02  5.046370146E-06  0.00000E+00  9.000E+00
#rwgt            1           1   4.5815390993199714E-002           7      154937           0
</event>
<event>
      5   9999  3.79277E-02  1.26613E+01 -1.00000E+00  1.84611E-01
      21    -1     0     0   502   501  0.000000000E+00  0.000000000E+00  5.637635667E+01  5.637635667E+01  0.000000000E+00  0.00000E+00  9.000E+00
      21    -1     0     0   512   502  0.000000000E+00  0.000000000E+00 -1.142333319E+03  1.142333319E+03  0.000000000E+00  0.00000E+00  9.000E+00
      25     1     1     2     0     0  5.823483265E+01  1.384858770E+02 -6.664252058E+02  6.944905966E+02  1.250000000E+02  0.00000E+00  9.000E+00
      25     1     1     2     0     0 -6.905017842E+01 -1.450690144E+02 -2.035703617E+02  2.878868497E+02  1.250000000E+02  0.00000E+00  9.000E+00
      21     1     1     2   512   501  1.081534577E+01  6.583137345E+00 -2.159613945E+02  2.163322290E+02  4.672030912E-06  0.00000E+00  9.000E+00
#rwgt            1           1   4.6029056644962457E-002           7      154998           0
</event>
<event>
      5   9999  3.79277E-02  4.95741E+01 -1.00000E+00  1.39288E-01
      21    -1     0     0   502   501  0.000000000E+00  0.000000000E+00  9.961456747E+02  9.961456747E+02  0.000000000E+00  0.00000E+00  9.000E+00
      21    -1     0     0   511   502  0.000000000E+00  0.000000000E+00 -6.791531824E+01  6.791531824E+01  0.000000000E+00  0.00000E+00  9.000E+00
      25     1     1     2     0     0  6.836367694E+01  5.420340379E+01  6.292084051E+01  1.649109865E+02  1.250000000E+02  0.00000E+00  9.000E+00
      25     1     1     2     0     0 -2.961731785E+01 -8.512762956E+01  8.114284107E+02  8.259327845E+02  1.250000000E+02  0.00000E+00  9.000E+00
      21     1     1     2   511   501 -3.874635909E+01  3.092422578E+01  5.388110529E+01  7.321722195E+01  1.651812370E-06  0.00000E+00  9.000E+00
#rwgt            1           1   4.0792959922017313E-002           7      155288           0
</event>
<event>
      5   9999  3.79277E-02  1.17305E+02 -1.00000E+00  1.20788E-01
      21    -1     0     0   512   501  0.000000000E+00  0.000000000E+00  5.201050153E+02  5.201050153E+02  0.000000000E+00  0.00000E+00  9.000E+00
      21    -1     0     0   501   502  0.000000000E+00  0.000000000E+00 -1.834244735E+02  1.834244735E+02  0.000000000E+00  0.00000E+00  9.000E+00
      25     1     1     2     0     0 -1.246873662E+02  6.241034255E+01  1.586758050E+02  2.454485715E+02  1.250000000E+02  0.00000E+00  9.000E+00
      25     1     1     2     0     0  6.599569452E+01 -1.639773662E+02 -3.071010889E+01  2.186598251E+02  1.250000000E+02  0.00000E+00  9.000E+00
      21     1     1     2   512   502  5.869167169E+01  1.015670236E+02  2.087148457E+02  2.394210922E+02  0.000000000E+00  0.00000E+00  9.000E+00
#rwgt            1           1   4.3714145572811072E-002           7      155395           0
</event>
<event>
      5   9999  3.79277E-02  9.01667E+01 -1.00000E+00  1.25884E-01
      21    -1     0     0   502   501  0.000000000E+00  0.000000000E+00  2.564515275E+02  2.564515275E+02  0.000000000E+00  0.00000E+00  9.000E+00
      21    -1     0     0   511   502  0.000000000E+00  0.000000000E+00 -3.883906155E+02  3.883906155E+02  0.000000000E+00  0.00000E+00  9.000E+00
      25     1     1     2     0     0 -9.829875656E+01  1.275217007E+01 -2.847552639E+00  1.595567985E+02  1.250000000E+02  0.00000E+00  9.000E+00
      25     1     1     2     0     0  3.503302610E+01  5.149332662E+01  1.422551381E+02  1.993499434E+02  1.250000000E+02  0.00000E+00  9.000E+00
      21     1     1     2   511   501  6.326573046E+01 -6.424549669E+01 -2.713466734E+02  2.859354012E+02  5.394796609E-06  0.00000E+00  9.000E+00
#rwgt            1           1   4.9772103639584120E-002           7      155453           0
</event>
<event>
      5   9999  3.79277E-02  3.22069E+01 -1.00000E+00  1.50929E-01
      21    -1     0     0   502   512  0.000000000E+00  0.000000000E+00  1.262744722E+02  1.262744722E+02  0.000000000E+00  0.00000E+00  9.000E+00
      21    -1     0     0   501   502  0.000000000E+00  0.000000000E+00 -4.412706242E+02  4.412706242E+02  0.000000000E+00  0.00000E+00  9.000E+00
      25     1     1     2     0     0 -9.337318820E+00  9.650494366E+01  1.746967002E-01  1.581942483E+02  1.250000000E+02  0.00000E+00  9.000E+00
      25     1     1     2     0     0 -9.830085416E+00 -1.223873353E+02 -3.302015044E+02  3.738092079E+02  1.250000000E+02  0.00000E+00  9.000E+00
      21     1     1     2   501   512  1.916740424E+01  2.588239161E+01  1.503065560E+01  3.554164020E+01  6.529361695E-07  0.00000E+00  9.000E+00
#rwgt            1           1   2.2932332930058918E-002           7      155543           0
</event>
<event>
      5   9999  3.79277E-02  1.07685E+02 -1.00000E+00  1.22399E-01
      21    -1     0     0   502   501  0.000000000E+00  0.000000000E+00  1.843730705E+02  1.843730705E+02  0.000000000E+00  0.00000E+00  9.000E+00
      21    -1     0     0   501   511  0.000000000E+00  0.000000000E+00 -4.986061195E+02  4.986061195E+02  0.000000000E+00  0.00000E+00  9.000E+00
      25     1     1     2     0     0 -1.075096487E+02 -1.848326538E+02 -1.085263838E+02  2.704152556E+02  1.250000000E+02  0.00000E+00  9.000E+00
      25     1     1     2     0     0  1.823467144E+02  1.074020679E+02 -1.132003127E+02  2.706008855E+02  1.250000000E+02  0.00000E+00  9.000E+00
      21     1     1     2   502   511 -7.483706565E+01  7.743058590E+01 -9.250635249E+01  1.419630490E+02  1.907348633E-06  0.00000E+00  9.000E+00
#rwgt            1           1   4.3902334612237720E-002           7      155661           0
</event>
<event>
      5   9999  3.79277E-02  5.94250E+01 -1.00000E+00  1.34927E-01
      21    -1     0     0   512   501  0.000000000E+00  0.000000000E+00  5.817648689E+01  5.817648689E+01  0.000000000E+00  0.00000E+00  9.000E+00
      21    -1     0     0   501   502  0.000000000E+00  0.000000000E+00 -9.732809590E+02  9.732809590E+02  0.000000000E+00  0.00000E+00  9.000E+00
      25     1     1     2     0     0  1.772949654E+02  2.584282475E+01 -5.192897669E+02  5.633721846E+02  1.250000000E+02  0.00000E+00  9.000E+00
      25     1     1     2     0     0 -1.367226676E+02  1.757630233E+01 -3.340020353E+02  3.823406516E+02  1.250000000E+02  0.00000E+00  9.000E+00
      21     1     1     2   512   502 -4.057229781E+01 -4.341912707E+01 -6.181266987E+01  8.574460975E+01  0.000000000E+00  0.00000E+00  9.000E+00
#rwgt            1           1   3.4207085811564002E-002           7      155739           0
</event>
<event>
      5   9999  3.79277E-02  6.24819E+01 -1.00000E+00  1.33769E-01
      21    -1     0     0   502   501  0.000000000E+00  0.000000000E+00  1.283008303E+03  1.283008303E+03  0.000000000E+00  0.00000E+00  9.000E+00
      21    -1     0     0   501   511  0.000000000E+00  0.000000000E+00 -8.203251687E+01  8.203251687E+01  0.000000000E+00  0.00000E+00  9.000E+00
      25     1     1     2     0     0 -3.564284727E+01  5.354121729E+01  1.065360602E+03  1.074595406E+03  1.250000000E+02  0.00000E+00  9.000E+00
      25     1     1     2     0     0  8.476387772E+01 -9.215620470E+01  1.430517370E+02  2.275224835E+02  1.250000000E+02  0.00000E+00  9.000E+00
      21     1     1     2   502   511 -4.912103045E+01  3.861498740E+01 -7.436552534E+00  6.292293063E+01  1.922192037E-06  0.00000E+00  9.000E+00
#rwgt            1           1   5.3901427270474221E-002           7      155817           0
</event>
<event>
      5   9999  3.79277E-02  1.71890E+01 -1.00000E+00  1.71986E-01
      21    -1     0     0   502   501  0.000000000E+00  0.000000000E+00  1.308447740E+03  1.308447740E+03  0.000000000E+00  0.00000E+00  9.000E+00
      21    -1     0     0   512   502  0.000000000E+00  0.000000000E+00 -1.424492462E+02  1.424492462E+02  0.000000000E+00  0.00000E+00  9.000E+00
      25     1     1     2     0     0 -2.183043583E+01 -3.942427155E+02  4.361308894E+02  6.014474535E+02  1.250000000E+02  0.00000E+00  9.000E+00
      25     1     1     2     0     0  2.565439160E+01  3.774844949E+02  7.306505928E+02  8.322427413E+02  1.250000000E+02  0.00000E+00  9.000E+00
      21     1     1     2   512   501 -3.823955773E+00  1.675822063E+01 -7.829884074E-01  1.720679132E+01  3.129243851E-07  0.00000E+00  9.000E+00
#rwgt            1           1   3.3990512205705224E-002           7      155885           0
</event>
<event>
      5   9999  3.79277E-02  3.61349E+01 -1.00000E+00  1.47631E-01
      21    -1     0     0   502   501  0.000000000E+00  0.000000000E+00  3.951931481E+02  3.951931481E+02  0.000000000E+00  0.00000E+00  9.000E+00
      21    -1     0     0   511   502  0.000000000E+00  0.000000000E+00 -2.135686941E+02  2.135686941E+02  0.000000000E+00  0.00000E+00  9.000E+00
      25     1     1     2     0     0  3.981253598E+01 -1.623000491E+02  2.617322962E+02  3.347463799E+02  1.250000000E+02  0.00000E+00  9.000E+00
      25     1     1     2     0     0 -7.456333118E+01  1.722052172E+02 -7.439367630E+01  2.374315612E+02  1.250000000E+02  0.00000E+00  9.000E+00
      21     1     1     2   511   501  3.475079520E+01 -9.905168136E+00 -5.714165905E+00  3.658390104E+01  4.042583694E-07  0.00000E+00  9.000E+00
#rwgt            1           1   3.2483652975234242E-002           7      156214           0
</event>
<event>
      5   9999  3.79277E-02  9.77040E+01 -1.00000E+00  1.24283E-01
      21    -1     0     0   502   501  0.000000000E+00  0.000000000E+00  3.662237149E+02  3.662237149E+02  0.000000000E+00  0.00000E+00  9.000E+00
       2    -1     0     0   501     0  0.000000000E+00  0.000000000E+00 -5.197246571E+02  5.197246571E+02  0.000000000E+00  0.00000E+00  9.000E+00
      25     1     1     2     0     0  1.755175629E+01  1.873959327E+02 -1.213960878E+02  2.564903700E+02  1.250000000E+02  0.00000E+00  9.000E+00
      25     1     1     2     0     0  7.477438075E+01 -1.554278793E+02  2.514473288E+02  3.295448268E+02  1.250000000E+02  0.00000E+00  9.000E+00
       2     1     1     2   502     0 -9.232613703E+01 -3.196805343E+01 -2.835521832E+02  2.999131752E+02  3.814697266E-06  0.00000E+00  9.000E+00
#rwgt            2          13   2.4041064573842371E-004           7      156357           0
</event>
<event>
      5   9999  3.79277E-02  2.17320E+01 -1.00000E+00  1.63447E-01
      21    -1     0     0   502   501  0.000000000E+00  0.000000000E+00  3.157388384E+02  3.157388384E+02  0.000000000E+00  0.00000E+00  9.000E+00
      21    -1     0     0   511   502  0.000000000E+00  0.000000000E+00 -9.284922675E+02  9.284922675E+02  0.000000000E+00  0.00000E+00  9.000E+00
      25     1     1     2     0     0  1.020965700E+02 -4.286592242E+01  2.174634921E+02  2.741834556E+02  1.250000000E+02  0.00000E+00  9.000E+00
      25     1     1     2     0     0 -9.419917929E+01  6.311213857E+01 -3.229177352E+01  1.718266162E+02  1.250000000E+02  0.00000E+00  9.000E+00
      21     1     1     2   511   501 -7.897390717E+00 -2.024621615E+01 -7.979251477E+02  7.982210342E+02  1.078959322E-05  0.00000E+00  9.000E+00
#rwgt            1           1   4.1381522321884419E-002           7      156376           0
</event>
<event>
      5   9999  3.79277E-02  6.68132E+01 -1.00000E+00  1.32254E-01
      21    -1     0     0   512   501  0.000000000E+00  0.000000000E+00  3.491917454E+02  3.491917454E+02  0.000000000E+00  0.00000E+00  9.000E+00
      21    -1     0     0   501   502  0.000000000E+00  0.000000000E+00 -1.988881731E+02  1.988881731E+02  0.000000000E+00  0.00000E+00  9.000E+00
      25     1     1     2     0     0  1.086501904E+02 -1.292523693E+01 -9.495986011E+00  1.663944091E+02  1.250000000E+02  0.00000E+00  9.000E+00
      25     1     1     2     0     0 -1.705100543E+02  3.817122299E+01  7.040461022E+00  2.149541555E+02  1.250000000E+02  0.00000E+00  9.000E+00
      21     1     1     2   512   502  6.185986388E+01 -2.524598606E+01  1.527590973E+02  1.667313539E+02  2.697398305E-06  0.00000E+00  9.000E+00
#rwgt            2          11   1.2590746323809039E-003           7      156608           0
</event>
<event>
      5   9999  3.79277E-02  2.51999E+01 -1.00000E+00  1.58492E-01
      21    -1     0     0   502   501  0.000000000E+00  0.000000000E+00  1.081820479E+02  1.081820479E+02  0.000000000E+00  0.00000E+00  9.000E+00
      21    -1     0     0   511   502  0.000000000E+00  0.000000000E+00 -1.149224576E+03  1.149224576E+03  0.000000000E+00  0.00000E+00  9.000E+00
      25     1     1     2     0     0  3.917566698E+01  1.742436931E+00  4.807208647E+01  1.395481797E+02  1.250000000E+02  0.00000E+00  9.000E+00
      25     1     1     2     0     0 -4.017363286E+01 -2.692258117E+01 -3.027609801E+02  3.311011284E+02  1.250000000E+02  0.00000E+00  9.000E+00
      21     1     1     2   511   501  9.979658766E-01  2.518014424E+01 -7.863536344E+02  7.867573158E+02  1.078959322E-05  0.00000E+00  9.000E+00
#rwgt            1           1   4.9719265639620584E-002           7      156703           0
</event>
<event>
      5   9999  3.79277E-02  3.75589E+01 -1.00000E+00  1.46557E-01
      21    -1     0     0   502   512  0.000000000E+00  0.000000000E+00  7.745059621E+02  7.745059621E+02  0.000000000E+00  0.00000E+00  9.000E+00
      21    -1     0     0   501   502  0.000000000E+00  0.000000000E+00 -5.137278283E+02  5.137278283E+02  0.000000000E+00  0.00000E+00  9.000E+00
      25     1     1     2     0     0  1.218396648E+02  2.577738597E+02 -1.735759277E+02  3.564349441E+02  1.250000000E+02  0.00000E+00  9.000E+00
      25     1     1     2     0     0 -8.498722003E+01 -2.650241018E+02 -1.543345033E+02  3.419133531E+02  1.250000000E+02  0.00000E+00  9.000E+00
      21     1     1     2   501   512 -3.685244479E+01  7.250242113E+00  5.886885649E+02  5.898854933E+02  0.000000000E+00  0.00000E+00  9.000E+00
#rwgt            1           1   3.7685855920984938E-002           7      156901           0
</event>
<event>
      5   9999  3.79277E-02  1.95280E+01 -1.00000E+00  1.67229E-01
      21    -1     0     0   502   501  0.000000000E+00  0.000000000E+00  1.411291185E+02  1.411291185E+02  0.000000000E+00  0.00000E+00  9.000E+00
      21    -1     0     0   501   511  0.000000000E+00  0.000000000E+00 -3.535849011E+02  3.535849011E+02  0.000000000E+00  0.00000E+00  9.000E+00
      25     1     1     2     0     0  1.101670920E+02 -2.307000031E+01  3.754525951E+01  1.723474966E+02  1.250000000E+02  0.00000E+00  9.000E+00
      25     1     1     2     0     0 -9.614677140E+01  3.666317300E+01 -1.507796484E+02  2.212417056E+02  1.250000000E+02  0.00000E+00  9.000E+00
      21     1     1     2   502   511 -1.402032063E+01 -1.359317270E+01 -9.922139372E+01  1.011248175E+02  1.907348633E-06  0.00000E+00  9.000E+00
#rwgt            1           1   3.3156227141410526E-002           7      157092           0
</event>
<event>
      5   9999  3.79277E-02  9.83801E+01 -1.00000E+00  1.24148E-01
      21    -1     0     0   502   501  0.000000000E+00  0.000000000E+00  8.233433625E+02  8.233433625E+02  0.000000000E+00  0.00000E+00  9.000E+00
      21    -1     0     0   501   512  0.000000000E+00  0.000000000E+00 -2.600234999E+02  2.600234999E+02  0.000000000E+00  0.00000E+00  9.000E+00
      25     1     1     2     0     0 -1.278075051E+02  5.789100076E+01  2.892065355E+02  3.448935292E+02  1.250000000E+02  0.00000E+00  9.000E+00
      25     1     1     2     0     0  1.119086366E+02  3.919589314E+01  4.801649649E+02  5.101404263E+02  1.250000000E+02  0.00000E+00  9.000E+00
      21     1     1     2   502   512  1.589886842E+01 -9.708689390E+01 -2.060516377E+02  2.283329070E+02  4.672030912E-06  0.00000E+00  9.000E+00
#rwgt            1           1   3.9270859302755035E-002           7      157218           0
</event>
<event>
      5   9999  3.79277E-02  1.26013E+01 -1.00000E+00  1.84823E-01
      21    -1     0     0   502   501  0.000000000E+00  0.000000000E+00  7.175184082E+01  7.175184082E+01  0.000000000E+00  0.00000E+00  9.000E+00
      21    -1     0     0   501   511  0.000000000E+00  0.000000000E+00 -1.377894597E+03  1.377894597E+03  0.000000000E+00  0.00000E+00  9.000E+00
      25     1     1     2     0     0 -5.609399933E+01 -1.757535601E+01 -4.005607449E+00  1.381899953E+02  1.250000000E+02  0.00000E+00  9.000E+00
      25     1     1     2     0     0  6.858563314E+01  1.591620180E+01 -1.197374472E+03  1.205938614E+03  1.250000000E+02  0.00000E+00  9.000E+00
      21     1     1     2   502   511 -1.249163380E+01  1.659154211E+00 -1.047626771E+02  1.055178289E+02  0.000000000E+00  0.00000E+00  9.000E+00
#rwgt            1           1   4.3356274519476753E-002           7      157356           0
</event>
<event>
      5   9999  3.79277E-02  1.94671E+01 -1.00000E+00  1.67343E-01
      21    -1     0     0   502   501  0.000000000E+00  0.000000000E+00  1.485995208E+03  1.485995208E+03  0.000000000E+00  0.00000E+00  9.000E+00
       2    -1     0     0   501     0  0.000000000E+00  0.000000000E+00 -7.501732135E+02  7.501732135E+02  0.000000000E+00  0.00000E+00  9.000E+00
      25     1     1     2     0     0 -9.057925778E+01  2.684633776E+01  1.167121649E+03  1.177592149E+03  1.250000000E+02  0.00000E+00  9.000E+00
      25     1     1     2     0     0  9.614820364E+01 -4.549993189E+01  2.920248232E+02  3.349898778E+02  1.250000000E+02  0.00000E+00  9.000E+00
       2     1     1     2   502     0 -5.568945854E+00  1.865359412E+01 -7.233244775E+02  7.235863940E+02  1.078959322E-05  0.00000E+00  9.000E+00
#rwgt            1           1   4.2849669779091062E-002           7      157623           0
</event>
<event>
      5   9999  3.79277E-02  3.55834E+01 -1.00000E+00  1.48064E-01
      21    -1     0     0   502   511  0.000000000E+00  0.000000000E+00  1.756074096E+02  1.756074096E+02  0.000000000E+00  0.00000E+00  9.000E+00
      21    -1     0     0   501   502  0.000000000E+00  0.000000000E+00 -5.023145948E+02  5.023145948E+02  0.000000000E+00  0.00000E+00  9.000E+00
      25     1     1     2     0     0 -2.194922613E+02  5.317148300E+01 -4.267530645E+01  2.616299699E+02  1.250000000E+02  0.00000E+00  9.000E+00
      25     1     1     2     0     0  2.153720097E+02 -1.782739017E+01 -2.872313258E+02  3.805650443E+02  1.250000000E+02  0.00000E+00  9.000E+00
      21     1     1     2   501   511  4.120251626E+00 -3.534409283E+01  3.199447123E+00  3.572699026E+01  1.150385086E-06  0.00000E+00  9.000E+00
#rwgt            1           1   3.6685361931545611E-002           7      157770           0
</event>
<event>
      5   9999 -3.79277E-02  1.48166E+01 -1.00000E+00  1.77888E-01
      21    -1     0     0   502   501  0.000000000E+00  0.000000000E+00  1.409348976E+02  1.409348976E+02  0.000000000E+00  0.00000E+00  9.000E+00
      21    -1     0     0   501   512  0.000000000E+00  0.000000000E+00 -4.245182503E+02  4.245182503E+02  0.000000000E+00  0.00000E+00  9.000E+00
      25     1     1     2     0     0 -2.002179643E+01  2.064241103E+02 -1.412068325E+02  2.803143864E+02  1.250000000E+02  0.00000E+00  9.000E+00
      25     1     1     2     0     0  2.287987948E+01 -1.918857432E+02 -1.236585068E+02  2.612662505E+02  1.250000000E+02  0.00000E+00  9.000E+00
      21     1     1     2   502   512 -2.858083044E+00 -1.453836713E+01 -1.871801333E+01  2.387251098E+01  4.768371582E-07  0.00000E+00  9.000E+00
#rwgt            1           1 -0.15710670135506999                7      158018           0
</event>
<event>
      5   9999  3.79277E-02  1.90669E+01 -1.00000E+00  1.68100E-01
      21    -1     0     0   502   501  0.000000000E+00  0.000000000E+00  2.698975388E+02  2.698975388E+02  0.000000000E+00  0.00000E+00  9.000E+00
      21    -1     0     0   501   511  0.000000000E+00  0.000000000E+00 -1.758430872E+02  1.758430872E+02  0.000000000E+00  0.00000E+00  9.000E+00
      25     1     1     2     0     0 -1.070026097E+02 -7.353558391E+01 -6.577676887E+01  1.918557372E+02  1.250000000E+02  0.00000E+00  9.000E+00
      25     1     1     2     0     0  9.601077616E+01  5.795592410E+01  1.635987133E+02  2.344493490E+02  1.250000000E+02  0.00000E+00  9.000E+00
      21     1     1     2   502   511  1.099183351E+01  1.557965981E+01 -3.767492829E+00  1.943553976E+01  1.264405455E-07  0.00000E+00  9.000E+00
#rwgt            1           1   6.5574117361826861E-002           7      158319           0
</event>
<event>
      5   9999  3.79277E-02  3.65164E+01 -1.00000E+00  1.47338E-01
      21    -1     0     0   502   512  0.000000000E+00  0.000000000E+00  5.163212296E+02  5.163212296E+02  0.000000000E+00  0.00000E+00  9.000E+00
      21    -1     0     0   501   502  0.000000000E+00  0.000000000E+00 -7.954328054E+01  7.954328054E+01  0.000000000E+00  0.00000E+00  9.000E+00
      25     1     1     2     0     0  8.597396834E+00  1.167462233E+02  1.177397467E+02  2.078250318E+02  1.250000000E+02  0.00000E+00  9.000E+00
      25     1     1     2     0     0  2.512786583E+01 -1.307482559E+02  2.459627002E+02  3.063481123E+02  1.250000000E+02  0.00000E+00  9.000E+00
      21     1     1     2   501   512 -3.372526267E+01  1.400203260E+01  7.307550218E+01  8.169136599E+01  1.348699152E-06  0.00000E+00  9.000E+00
#rwgt            1           1   4.4318441383543801E-002           7      158501           0
</event>
<event>
      5   9999  3.79277E-02  7.18897E+01 -1.00000E+00  1.30637E-01
      21    -1     0     0   502   511  0.000000000E+00  0.000000000E+00  3.147820355E+02  3.147820355E+02  0.000000000E+00  0.00000E+00  9.000E+00
      21    -1     0     0   501   502  0.000000000E+00  0.000000000E+00 -2.074845050E+02  2.074845050E+02  0.000000000E+00  0.00000E+00  9.000E+00
      25     1     1     2     0     0  2.758095335E+01  1.029202222E+02  3.721913965E+01  1.684148019E+02  1.250000000E+02  0.00000E+00  9.000E+00
      25     1     1     2     0     0  9.257136175E+00 -4.118628369E+01 -1.023868326E+02  1.670031976E+02  1.250000000E+02  0.00000E+00  9.000E+00
      21     1     1     2   501   511 -3.683808952E+01 -6.173393855E+01  1.724652233E+02  1.868485410E+02  2.697398305E-06  0.00000E+00  9.000E+00
#rwgt            1           1   3.6434686952481601E-002           7      158678           0
</event>
<event>
      5   9999  3.79277E-02  2.03088E+01 -1.00000E+00  1.65822E-01
      21    -1     0     0   502   501  0.000000000E+00  0.000000000E+00  1.173061925E+02  1.173061925E+02  0.000000000E+00  0.00000E+00  9.000E+00
      21    -1     0     0   512   502  0.000000000E+00  0.000000000E+00 -6.839545078E+02  6.839545078E+02  0.000000000E+00  0.00000E+00  9.000E+00
      25     1     1     2     0     0 -7.504402207E+01  1.059735882E+02  1.069961251E+01  1.805588224E+02  1.250000000E+02  0.00000E+00  9.000E+00
      25     1     1     2     0     0  8.115434585E+01 -8.660575999E+01 -3.280531700E+02  3.705812568E+02  1.250000000E+02  0.00000E+00  9.000E+00
      21     1     1     2   512   501 -6.110323778E+00 -1.936782816E+01 -2.492947579E+02  2.501206212E+02  3.814697266E-06  0.00000E+00  9.000E+00
#rwgt            1           1   3.6363664305226445E-002           7      159046           0
</event>
<event>
      5   9999  3.79277E-02  3.97704E+01 -1.00000E+00  1.44995E-01
      21    -1     0     0   502   501  0.000000000E+00  0.000000000E+00  1.651071640E+03  1.651071640E+03  0.000000000E+00  0.00000E+00  9.000E+00
      21    -1     0     0   501   511  0.000000000E+00  0.000000000E+00 -1.490926235E+02  1.490926235E+02  0.000000000E+00  0.00000E+00  9.000E+00
      25     1     1     2     0     0 -1.281862658E+02  8.073887659E+01  1.020444718E+03  1.039174147E+03  1.250000000E+02  0.00000E+00  9.000E+00
      25     1     1     2     0     0  1.548353483E+02 -5.121756539E+01  6.009590693E+02  6.351173332E+02  1.250000000E+02  0.00000E+00  9.000E+00
      21     1     1     2   502   511 -2.664908247E+01 -2.952131120E+01 -1.194247715E+02  1.258727828E+02  2.336015456E-06  0.00000E+00  9.000E+00
#rwgt            1           1   3.6920615185023015E-002           7      159255           0
</event>
<event>
      5   9999  3.79277E-02  1.48250E+01 -1.00000E+00  1.77865E-01
      21    -1     0     0   502   501  0.000000000E+00  0.000000000E+00  1.026492116E+03  1.026492116E+03  0.000000000E+00  0.00000E+00  9.000E+00
      21    -1     0     0   512   502  0.000000000E+00  0.000000000E+00 -2.763013857E+01  2.763013857E+01  0.000000000E+00  0.00000E+00  9.000E+00
      25     1     1     2     0     0 -6.531428659E+01  6.655898560E+01  5.092742879E+02  5.326174564E+02  1.250000000E+02  0.00000E+00  9.000E+00
      25     1     1     2     0     0  7.976602750E+01 -6.986453315E+01  4.614831178E+02  4.897298645E+02  1.250000000E+02  0.00000E+00  9.000E+00
      21     1     1     2   512   501 -1.445174091E+01  3.305547550E+00  2.810457222E+01  3.177493414E+01  3.371747881E-07  0.00000E+00  9.000E+00
#rwgt            1           1   4.6363232322520737E-002           7      159393           0
</event>
<event>
      5   9999  3.79277E-02  4.28149E+01 -1.00000E+00  1.43032E-01
      21    -1     0     0   502   511  0.000000000E+00  0.000000000E+00  2.285253982E+03  2.285253982E+03  0.000000000E+00  0.00000E+00  9.000E+00
      21    -1     0     0   501   502  0.000000000E+00  0.000000000E+00 -2.882040629E+01  2.882040629E+01  0.000000000E+00  0.00000E+00  9.000E+00
      25     1     1     2     0     0 -9.778144014E+01  2.687494335E+01  1.668679443E+03  1.676424635E+03  1.250000000E+02  0.00000E+00  9.000E+00
      25     1     1     2     0     0  6.648259555E+01 -5.608966164E+01  2.208986589E+02  2.683043108E+02  1.250000000E+02  0.00000E+00  9.000E+00
      21     1     1     2   501   511  3.129884459E+01  2.921471829E+01  3.668554734E+02  3.693454424E+02  5.394796609E-06  0.00000E+00  9.000E+00
#rwgt            1           1  0.17090601862540769                7      159533           0
</event>
<event>
      5   9999  3.79277E-02  4.44042E+01 -1.00000E+00  1.42082E-01
      21    -1     0     0   502   501  0.000000000E+00  0.000000000E+00  4.826360124E+02  4.826360124E+02  0.000000000E+00  0.00000E+00  9.000E+00
      21    -1     0     0   512   502  0.000000000E+00  0.000000000E+00 -9.065216062E+01  9.065216062E+01  0.000000000E+00  0.00000E+00  9.000E+00
      25     1     1     2     0     0  4.878619924E+01 -1.126490677E+02  7.411891560E+01  1.902328030E+02  1.250000000E+02  0.00000E+00  9.000E+00
      25     1     1     2     0     0 -7.160316931E+01  7.455547645E+01  2.845795065E+02  3.275607248E+02  1.250000000E+02  0.00000E+00  9.000E+00
      21     1     1     2   512   501  2.281697007E+01  3.809359122E+01  3.328542962E+01  5.549464515E+01  8.259061849E-07  0.00000E+00  9.000E+00
#rwgt            1           1   4.4733896280639909E-002           7      159940           0
</event>
<event>
      5   9999  3.79277E-02  2.64601E+01 -1.00000E+00  1.56926E-01
      21    -1     0     0   502   501  0.000000000E+00  0.000000000E+00  8.265141115E+02  8.265141115E+02  0.000000000E+00  0.00000E+00  9.000E+00
      21    -1     0     0   511   502  0.000000000E+00  0.000000000E+00 -1.118884578E+02  1.118884578E+02  0.000000000E+00  0.00000E+00  9.000E+00
      25     1     1     2     0     0  1.320943194E+02  1.129668547E+02  3.981170101E+02  4.520316064E+02  1.250000000E+02  0.00000E+00  9.000E+00
      25     1     1     2     0     0 -1.077459468E+02 -1.233250731E+02  3.718064438E+02  4.250685761E+02  1.250000000E+02  0.00000E+00  9.000E+00
      21     1     1     2   511   501 -2.434837262E+01  1.035821839E+01 -5.529780014E+01  6.130238689E+01  2.132480600E-06  0.00000E+00  9.000E+00
#rwgt            1           1   3.1801903308594143E-002           7      160064           0
</event>
<event>
      5   9999  3.79277E-02  3.23353E+01 -1.00000E+00  1.50812E-01
      21    -1     0     0   502   501  0.000000000E+00  0.000000000E+00  1.972546727E+02  1.972546727E+02  0.000000000E+00  0.00000E+00  9.000E+00
      21    -1     0     0   501   512  0.000000000E+00  0.000000000E+00 -4.728407338E+02  4.728407338E+02  0.000000000E+00  0.00000E+00  9.000E+00
      25     1     1     2     0     0 -1.471189478E+01  2.103827703E+02 -1.017643933E+02  2.654399021E+02  1.250000000E+02  0.00000E+00  9.000E+00
      25     1     1     2     0     0  4.446102285E+01 -2.230541509E+02 -3.471461344E+01  2.618397242E+02  1.250000000E+02  0.00000E+00  9.000E+00
      21     1     1     2   502   512 -2.974912807E+01  1.267138063E+01 -1.391070544E+02  1.428157802E+02  3.303624740E-06  0.00000E+00  9.000E+00
#rwgt            1           1   3.6788523085743569E-002           7      160231           0
</event>
<event>
      5   9999  3.79277E-02  4.91113E+01 -1.00000E+00  1.39521E-01
      21    -1     0     0   502   501  0.000000000E+00  0.000000000E+00  5.801460839E+02  5.801460839E+02  0.000000000E+00  0.00000E+00  9.000E+00
      -4    -1     0     0     0   502  0.000000000E+00  0.000000000E+00 -1.405141205E+02  1.405141205E+02  0.000000000E+00  0.00000E+00  9.000E+00
      25     1     1     2     0     0  6.960094186E+01 -1.283907887E+02  3.848352749E+02  4.301763295E+02  1.250000000E+02  0.00000E+00  9.000E+00
      25     1     1     2     0     0 -5.967455676E+01  1.764884759E+02  7.615983274E+01  2.369273200E+02  1.250000000E+02  0.00000E+00  9.000E+00
      -4     1     1     2     0   501 -9.926385102E+00 -4.809768718E+01 -2.136314418E+01  5.355655480E+01  7.907449699E-07  0.00000E+00  9.000E+00
#rwgt            1           1   4.6484308207469571E-002           7      160343           0
</event>
<event>
      5   9999  3.79277E-02  1.40383E+02 -1.00000E+00  1.17546E-01
       3    -1     0     0   502     0  0.000000000E+00  0.000000000E+00  2.096373462E+02  2.096373462E+02  0.000000000E+00  0.00000E+00  9.000E+00
      21    -1     0     0   501   502  0.000000000E+00  0.000000000E+00 -5.952661921E+02  5.952661921E+02  0.000000000E+00  0.00000E+00  9.000E+00
      25     1     1     2     0     0  1.117982224E+02 -4.518738277E+01 -8.221181100E+01  1.921575498E+02  1.250000000E+02  0.00000E+00  9.000E+00
      25     1     1     2     0     0 -9.597907431E+01  1.846758218E+02 -3.814319814E+02  4.521421218E+02  1.250000000E+02  0.00000E+00  9.000E+00
       3     1     1     2   501     0 -1.581914807E+01 -1.394884391E+02  7.801494657E+01  1.606038666E+02  1.348699152E-06  0.00000E+00  9.000E+00
#rwgt            1           1   2.6711329395277067E-002           7      160520           0
</event>
<event>
      5   9999  3.79277E-02  2.17986E+01 -1.00000E+00  1.63341E-01
       3    -1     0     0   502     0  0.000000000E+00  0.000000000E+00  2.759188019E+02  2.759188019E+02  0.000000000E+00  0.00000E+00  9.000E+00
      21    -1     0     0   501   502  0.000000000E+00  0.000000000E+00 -5.594709263E+02  5.594709263E+02  0.000000000E+00  0.00000E+00  9.000E+00
      25     1     1     2     0     0  1.131810231E+02  2.565529177E+01 -6.565945654E+01  1.827684388E+02  1.250000000E+02  0.00000E+00  9.000E+00
      25     1     1     2     0     0 -1.030463883E+02 -4.495474334E+01 -4.184098464E+02  4.509227059E+02  1.250000000E+02  0.00000E+00  9.000E+00
       3     1     1     2   501     0 -1.013463477E+01  1.929945157E+01  2.005171786E+02  2.016985835E+02  0.000000000E+00  0.00000E+00  9.000E+00
#rwgt            1           1   1.7266377441172064E-002           7      160725           0
</event>
<event>
      5   9999  3.79277E-02  5.32037E+01 -1.00000E+00  1.37554E-01
      21    -1     0     0   502   511  0.000000000E+00  0.000000000E+00  2.233366690E+02  2.233366690E+02  0.000000000E+00  0.00000E+00  9.000E+00
      21    -1     0     0   501   502  0.000000000E+00  0.000000000E+00 -5.171456724E+02  5.171456724E+02  0.000000000E+00  0.00000E+00  9.000E+00
      25     1     1     2     0     0 -2.083606121E+02  2.225723621E+02 -7.138085444E+01  3.371540114E+02  1.250000000E+02  0.00000E+00  9.000E+00
      25     1     1     2     0     0  1.787122723E+02 -1.783953632E+02 -2.003358213E+02  3.457201515E+02  1.250000000E+02  0.00000E+00  9.000E+00
      21     1     1     2   501   511  2.964833980E+01 -4.417699888E+01 -2.209232774E+01  5.760817848E+01  8.596304120E-07  0.00000E+00  9.000E+00
#rwgt            1           1   3.5153735807693376E-002           7      160830           0
</event>
<event>
      5   9999  3.79277E-02  2.35018E+01 -1.00000E+00  1.60788E-01
      21    -1     0     0   502   501  0.000000000E+00  0.000000000E+00  1.476656170E+03  1.476656170E+03  0.000000000E+00  0.00000E+00  9.000E+00
      21    -1     0     0   512   502  0.000000000E+00  0.000000000E+00 -1.331028540E+02  1.331028540E+02  0.000000000E+00  0.00000E+00  9.000E+00
      25     1     1     2     0     0 -3.394208667E+01 -3.595360751E+02  8.212534682E+02  9.058148340E+02  1.250000000E+02  0.00000E+00  9.000E+00
      25     1     1     2     0     0  5.647524194E+01  3.662136908E+02  5.453212422E+02  6.710455852E+02  1.250000000E+02  0.00000E+00  9.000E+00
      21     1     1     2   512   501 -2.253315527E+01 -6.677615678E+00 -2.302139403E+01  3.289860515E+01  1.261592536E-06  0.00000E+00  9.000E+00
#rwgt            1           1   5.4146357492471993E-002           7      160926           0
</event>
<event>
      5   9999  3.79277E-02  2.05998E+01 -1.00000E+00  1.65317E-01
      21    -1     0     0   511   501  0.000000000E+00  0.000000000E+00  1.431342562E+03  1.431342562E+03  0.000000000E+00  0.00000E+00  9.000E+00
      21    -1     0     0   501   502  0.000000000E+00  0.000000000E+00 -7.392958490E+01  7.392958490E+01  0.000000000E+00  0.00000E+00  9.000E+00
      25     1     1     2     0     0 -1.628358962E+02  2.304379640E+02  6.184328246E+02  6.911594193E+02  1.250000000E+02  0.00000E+00  9.000E+00
      25     1     1     2     0     0  1.828292933E+02 -2.254764895E+02  6.498291018E+02  7.226126621E+02  1.250000000E+02  0.00000E+00  9.000E+00
      21     1     1     2   511   502 -1.999339709E+01 -4.961474452E+00  8.915105104E+01  9.150006589E+01  2.132480600E-06  0.00000E+00  9.000E+00
#rwgt            1           1   3.2236227331059415E-002           7      161164           0
</event>
<event>
      5   9999  3.79277E-02  8.27804E+01 -1.00000E+00  1.27635E-01
      21    -1     0     0   512   501  0.000000000E+00  0.000000000E+00  4.791289472E+01  4.791289472E+01  0.000000000E+00  0.00000E+00  9.000E+00
      21    -1     0     0   501   502  0.000000000E+00  0.000000000E+00 -1.123225054E+03  1.123225054E+03  0.000000000E+00  0.00000E+00  9.000E+00
      25     1     1     2     0     0  1.005052089E+02 -2.045797541E+01 -5.580827273E+02  5.810345568E+02  1.250000000E+02  0.00000E+00  9.000E+00
      25     1     1     2     0     0 -1.216054812E+02  1.005040381E+02 -3.643878221E+02  4.162840853E+02  1.250000000E+02  0.00000E+00  9.000E+00
      21     1     1     2   512   502  2.110027236E+01 -8.004606271E+01 -1.528416103E+02  1.738193070E+02  0.000000000E+00  0.00000E+00  9.000E+00
#rwgt            1           1   4.2188000664934500E-002           7      161425           0
</event>
<event>
      5   9999  3.79277E-02  5.57726E+01 -1.00000E+00  1.36421E-01
      21    -1     0     0   502   511  0.000000000E+00  0.000000000E+00  7.746451665E+02  7.746451665E+02  0.000000000E+00  0.00000E+00  9.000E+00
      21    -1     0     0   501   502  0.000000000E+00  0.000000000E+00 -1.414638387E+02  1.414638387E+02  0.000000000E+00  0.00000E+00  9.000E+00
      25     1     1     2     0     0  3.367176779E+01 -9.794956371E+01 -3.906817183E+01  1.669707370E+02  1.250000000E+02  0.00000E+00  9.000E+00
      25     1     1     2     0     0 -5.900012577E+01  1.476392236E+02  2.424261213E+02  3.157115448E+02  1.250000000E+02  0.00000E+00  9.000E+00
      21     1     1     2   501   511  2.532835799E+01 -4.968965993E+01  4.298233783E+02  4.334267234E+02  5.394796609E-06  0.00000E+00  9.000E+00
#rwgt            1           1   2.9413880734324577E-002           7      161508           0
</event>
<event>
      5   9999  3.79277E-02  3.65898E+01 -1.00000E+00  1.47282E-01
      -2    -1     0     0     0   501  0.000000000E+00  0.000000000E+00  2.786190294E+02  2.786190294E+02  0.000000000E+00  0.00000E+00  9.000E+00
      21    -1     0     0   501   502  0.000000000E+00  0.000000000E+00 -2.386825550E+02  2.386825550E+02  0.000000000E+00  0.00000E+00  9.000E+00
      25     1     1     2     0     0  1.470672041E+01  1.228728457E+02 -6.766960429E+01  1.884627262E+02  1.250000000E+02  0.00000E+00  9.000E+00
      25     1     1     2     0     0  2.090833921E+01 -1.144836909E+02 -4.112760824E+01  1.756705846E+02  1.250000000E+02  0.00000E+00  9.000E+00
      -2     1     1     2     0   502 -3.561505962E+01 -8.389154825E+00  1.487336869E+02  1.531682735E+02  1.907348633E-06  0.00000E+00  9.000E+00
#rwgt            1           1   3.5848879971468725E-002           7      161665           0
</event>
<event>
      5   9999  3.79277E-02  8.70419E+01 -1.00000E+00  1.26601E-01
      21    -1     0     0   502   501  0.000000000E+00  0.000000000E+00  3.141849938E+02  3.141849938E+02  0.000000000E+00  0.00000E+00  9.000E+00
      21    -1     0     0   501   511  0.000000000E+00  0.000000000E+00 -2.559221963E+02  2.559221963E+02  0.000000000E+00  0.00000E+00  9.000E+00
      25     1     1     2     0     0 -7.941733358E+01  1.328596792E+02  9.578643598E+01  2.208140587E+02  1.250000000E+02  0.00000E+00  9.000E+00
      25     1     1     2     0     0  6.472392058E+01 -2.186524298E+02 -3.305225658E+01  2.621364580E+02  1.250000000E+02  0.00000E+00  9.000E+00
      21     1     1     2   502   511  1.469341300E+01  8.579275066E+01 -4.471381821E+00  8.715667334E+01  1.202478469E-06  0.00000E+00  9.000E+00
#rwgt            1           1  0.32488494280377389                7      161843           0
</event>
<event>
      5   9999  3.79277E-02  3.83888E+01 -1.00000E+00  1.45956E-01
      21    -1     0     0   512   501  0.000000000E+00  0.000000000E+00  8.266385710E+02  8.266385710E+02  0.000000000E+00  0.00000E+00  9.000E+00
      21    -1     0     0   501   502  0.000000000E+00  0.000000000E+00 -5.252859184E+01  5.252859184E+01  0.000000000E+00  0.00000E+00  9.000E+00
      25     1     1     2     0     0 -1.149410457E+02 -1.108583711E+02  3.906429365E+02  4.401453468E+02  1.250000000E+02  0.00000E+00  9.000E+00
      25     1     1     2     0     0  8.277290049E+01  8.990816128E+01  3.015890584E+02  3.485911512E+02  1.250000000E+02  0.00000E+00  9.000E+00
      21     1     1     2   512   502  3.216814518E+01  2.095020982E+01  8.187798422E+01  9.043066491E+01  1.907348633E-06  0.00000E+00  9.000E+00
#rwgt            1           1   3.8199790835152049E-002           7      161953           0
</event>
<event>
      5   9999  3.79277E-02  4.14416E+01 -1.00000E+00  1.43893E-01
      21    -1     0     0   502   511  0.000000000E+00  0.000000000E+00  4.878333402E+02  4.878333402E+02  0.000000000E+00  0.00000E+00  9.000E+00
      21    -1     0     0   501   502  0.000000000E+00  0.000000000E+00 -1.616456897E+02  1.616456897E+02  0.000000000E+00  0.00000E+00  9.000E+00
      25     1     1     2     0     0  1.896617864E+02 -3.755857111E+00  3.663221168E+01  2.301143599E+02  1.250000000E+02  0.00000E+00  9.000E+00
      25     1     1     2     0     0 -2.051938344E+02 -3.466500715E+01  1.799333851E+02  3.021708051E+02  1.250000000E+02  0.00000E+00  9.000E+00
      21     1     1     2   501   511  1.553204796E+01  3.842086426E+01  1.096220537E+02  1.171938649E+02  1.907348633E-06  0.00000E+00  9.000E+00
#rwgt            1           1   3.2288665996913747E-002           7      162044           0
</event>
<event>
      5   9999  3.79277E-02  9.03495E+01 -1.00000E+00  1.25843E-01
      21    -1     0     0   512   501  0.000000000E+00  0.000000000E+00  3.861018622E+02  3.861018622E+02  0.000000000E+00  0.00000E+00  9.000E+00
      21    -1     0     0   501   502  0.000000000E+00  0.000000000E+00 -2.456952071E+02  2.456952071E+02  0.000000000E+00  0.00000E+00  9.000E+00
      25     1     1     2     0     0 -5.664465405E+01  7.374166847E+00  8.959403516E+01  1.640581796E+02  1.250000000E+02  0.00000E+00  9.000E+00
      25     1     1     2     0     0  1.388433676E+02 -4.487619360E+01 -1.524700541E+02  2.452824309E+02  1.250000000E+02  0.00000E+00  9.000E+00
      21     1     1     2   512   502 -8.219871356E+01  3.750202675E+01  2.032826740E+02  2.224564588E+02  0.000000000E+00  0.00000E+00  9.000E+00
#rwgt            2          11   1.5274021018778497E-003           7      162181           0
</event>
<event>
      5   9999  3.79277E-02  2.03449E+02 -1.00000E+00  1.11378E-01
      21    -1     0     0   502   501  0.000000000E+00  0.000000000E+00  3.464477923E+02  3.464477923E+02  0.000000000E+00  0.00000E+00  9.000E+00
       1    -1     0     0   501     0  0.000000000E+00  0.000000000E+00 -6.836404646E+02  6.836404646E+02  0.000000000E+00  0.00000E+00  9.000E+00
      25     1     1     2     0     0  1.299940679E+02  1.570509971E+02  2.567713432E+02  3.508845908E+02  1.250000000E+02  0.00000E+00  9.000E+00
      25     1     1     2     0     0  7.440387673E+00 -7.040172934E+00 -2.460292962E+02  2.761527440E+02  1.250000000E+02  0.00000E+00  9.000E+00
       1     1     1     2   502     0 -1.374344556E+02 -1.500108241E+02 -3.479347193E+02  4.030509221E+02  5.394796609E-06  0.00000E+00  9.000E+00
#rwgt            2          12   1.4560547308174550E-004           7      162201           0
</event>
<event>
      5   9999  3.79277E-02  7.49211E+01 -1.00000E+00  1.29744E-01
      21    -1     0     0   502   501  0.000000000E+00  0.000000000E+00  8.959958346E+01  8.959958346E+01  0.000000000E+00  0.00000E+00  9.000E+00
      21    -1     0     0   511   502  0.000000000E+00  0.000000000E+00 -9.707460961E+02  9.707460961E+02  0.000000000E+00  0.00000E+00  9.000E+00
      25     1     1     2     0     0 -1.034051819E+02 -2.128916226E+01 -4.576745946E+01  1.698985592E+02  1.250000000E+02  0.00000E+00  9.000E+00
      25     1     1     2     0     0  1.759697783E+02  3.993187064E+01 -7.213303976E+02  7.539910209E+02  1.250000000E+02  0.00000E+00  9.000E+00
      21     1     1     2   511   501 -7.256459635E+01 -1.864270839E+01 -1.140486556E+02  1.364560994E+02  2.336015456E-06  0.00000E+00  9.000E+00
#rwgt            1           1   3.4344359004609047E-002           7      162220           0
</event>
<event>
      5   9999  3.79277E-02  2.89573E+01 -1.00000E+00  1.54115E-01
      21    -1     0     0   502   512  0.000000000E+00  0.000000000E+00  2.630670724E+02  2.630670724E+02  0.000000000E+00  0.00000E+00  9.000E+00
      21    -1     0     0   501   502  0.000000000E+00  0.000000000E+00 -1.962898985E+02  1.962898985E+02  0.000000000E+00  0.00000E+00  9.000E+00
      25     1     1     2     0     0 -1.069970095E+02 -9.201314815E+01  6.787882090E+00  1.886421342E+02  1.250000000E+02  0.00000E+00  9.000E+00
      25     1     1     2     0     0  1.328850865E+02  1.049873678E+02  7.327770142E+00  2.106169267E+02  1.250000000E+02  0.00000E+00  9.000E+00
      21     1     1     2   501   512 -2.588807701E+01 -1.297421966E+01  5.266152164E+01  6.009790985E+01  6.743495762E-07  0.00000E+00  9.000E+00
#rwgt            1           1   4.2938244953530394E-002           7      162293           0
</event>
<event>
      5   9999  3.79277E-02  8.13802E+01 -1.00000E+00  1.27991E-01
      21    -1     0     0   502   511  0.000000000E+00  0.000000000E+00  3.929607358E+01  3.929607358E+01  0.000000000E+00  0.00000E+00  9.000E+00
      21    -1     0     0   501   502  0.000000000E+00  0.000000000E+00 -3.693326894E+03  3.693326894E+03  0.000000000E+00  0.00000E+00  9.000E+00
      25     1     1     2     0     0 -1.048012678E+02  1.581130899E+02 -1.350000359E+03  1.368981017E+03  1.250000000E+02  0.00000E+00  9.000E+00
      25     1     1     2     0     0  2.704238446E+01 -1.821193485E+02 -2.260352967E+03  2.271281419E+03  1.250000000E+02  0.00000E+00  9.000E+00
      21     1     1     2   501   511  7.775888332E+01  2.400625862E+01 -4.367749460E+01  9.236053228E+01  4.573661350E-06  0.00000E+00  9.000E+00
#rwgt            1           1   2.0057714570600314E-002           7      162415           0
</event>
<event>
      5   9999  3.79277E-02  9.25462E+00 -1.00000E+00  1.99728E-01
      21    -1     0     0   502   512  0.000000000E+00  0.000000000E+00  3.993110117E+01  3.993110117E+01  0.000000000E+00  0.00000E+00  9.000E+00
      21    -1     0     0   501   502  0.000000000E+00  0.000000000E+00 -8.988497362E+02  8.988497362E+02  0.000000000E+00  0.00000E+00  9.000E+00
      25     1     1     2     0     0 -1.368652522E+01 -3.399368152E+01 -1.145645043E+02  1.734731017E+02  1.250000000E+02  0.00000E+00  9.000E+00
      25     1     1     2     0     0  2.293751119E+01  3.425295809E+01 -7.445065635E+02  7.560518618E+02  1.250000000E+02  0.00000E+00  9.000E+00
      21     1     1     2   501   512 -9.250985967E+00 -2.592765695E-01  1.524328317E-01  9.255873890E+00  1.181128536E-07  0.00000E+00  9.000E+00
#rwgt            1           1   3.6526350273131648E-002           7      162506           0
</event>
<event>
      5   9999  3.79277E-02  2.89972E+01 -1.00000E+00  1.54073E-01
      21    -1     0     0   502   501  0.000000000E+00  0.000000000E+00  2.136968918E+02  2.136968918E+02  0.000000000E+00  0.00000E+00  9.000E+00
      21    -1     0     0   501   511  0.000000000E+00  0.000000000E+00 -1.856584612E+02  1.856584612E+02  0.000000000E+00  0.00000E+00  9.000E+00
      25     1     1     2     0     0 -2.714914172E+01  4.410029663E+01  1.358514981E+02  1.917356033E+02  1.250000000E+02  0.00000E+00  9.000E+00
      25     1     1     2     0     0  5.609615308E+01 -4.239578211E+01 -1.064184102E+02  1.785890779E+02  1.250000000E+02  0.00000E+00  9.000E+00
      21     1     1     2   502   511 -2.894701136E+01 -1.704514523E+00 -1.394657251E+00  2.903067180E+01  4.619359970E-07  0.00000E+00  9.000E+00
#rwgt            1           1   4.6246416924326121E-002           7      162814           0
</event>
<event>
      5   9999  3.79277E-02  1.70174E+01 -1.00000E+00  1.72372E-01
      21    -1     0     0   512   501  0.000000000E+00  0.000000000E+00  4.393006658E+02  4.393006658E+02  0.000000000E+00  0.00000E+00  9.000E+00
      21    -1     0     0   501   502  0.000000000E+00  0.000000000E+00 -1.457698674E+02  1.457698674E+02  0.000000000E+00  0.00000E+00  9.000E+00
      25     1     1     2     0     0  1.809154295E+02 -2.047824142E+00  2.223183713E+02  3.127060032E+02  1.250000000E+02  0.00000E+00  9.000E+00
      25     1     1     2     0     0 -1.679319387E+02 -8.953184446E+00  1.103659076E+01  2.098287442E+02  1.250000000E+02  0.00000E+00  9.000E+00
      21     1     1     2   512   502 -1.298349082E+01  1.100100859E+01  6.017583631E+01  6.253578575E+01  9.536743164E-07  0.00000E+00  9.000E+00
#rwgt            1           1   4.0479043634877303E-002           7      163040           0
</event>
<event>
      5   9999  3.79277E-02  4.32460E+01 -1.00000E+00  1.42769E-01
      21    -1     0     0   502   501  0.000000000E+00  0.000000000E+00  7.087143206E+02  7.087143206E+02  0.000000000E+00  0.00000E+00  9.000E+00
      21    -1     0     0   501   511  0.000000000E+00  0.000000000E+00 -9.033772466E+01  9.033772466E+01  0.000000000E+00  0.00000E+00  9.000E+00
      25     1     1     2     0     0  1.892350304E+02  4.104952870E+01  4.378972762E+02  4.948474361E+02  1.250000000E+02  0.00000E+00  9.000E+00
      25     1     1     2     0     0 -1.479963466E+02 -5.407195111E+01  1.558041496E+02  2.544142833E+02  1.250000000E+02  0.00000E+00  9.000E+00
      21     1     1     2   502   511 -4.123868380E+01  1.302242241E+01  2.467517011E+01  4.979032584E+01  5.840038640E-07  0.00000E+00  9.000E+00
#rwgt            1           1   2.9461903411330335E-002           7      163271           0
</event>
<event>
      5   9999  3.79277E-02  1.71349E+01 -1.00000E+00  1.72107E-01
      21    -1     0     0   502   512  0.000000000E+00  0.000000000E+00  1.640682306E+02  1.640682306E+02  0.000000000E+00  0.00000E+00  9.000E+00
      21    -1     0     0   501   502  0.000000000E+00  0.000000000E+00 -4.688678640E+02  4.688678640E+02  0.000000000E+00  0.00000E+00  9.000E+00
      25     1     1     2     0     0  1.103318490E+02  1.287336565E+02 -3.532078626E+02  4.112496388E+02  1.250000000E+02  0.00000E+00  9.000E+00
      25     1     1     2     0     0 -9.430737768E+01 -1.226655885E+02  4.762692271E+01  2.045337426E+02  1.250000000E+02  0.00000E+00  9.000E+00
      21     1     1     2   501   512 -1.602447135E+01 -6.068068060E+00  7.813064150E-01  1.715271325E+01  2.741570695E-07  0.00000E+00  9.000E+00
#rwgt            1           1   4.1737503858866695E-002           7      163410           0
</event>
<event>
      5   9999  3.79277E-02  1.11794E+02 -1.00000E+00  1.21689E-01
      21    -1     0     0   511   501  0.000000000E+00  0.000000000E+00  1.516765989E+03  1.516765989E+03  0.000000000E+00  0.00000E+00  9.000E+00
      21    -1     0     0   501   502  0.000000000E+00  0.000000000E+00 -9.001254838E+01  9.001254838E+01  0.000000000E+00  0.00000E+00  9.000E+00
      25     1     1     2     0     0  1.212657107E+02  1.557869153E+02  9.560247765E+02  9.841663014E+02  1.250000000E+02  0.00000E+00  9.000E+00
      25     1     1     2     0     0 -1.501715351E+02 -4.779404625E+01  8.045443371E+01  2.166418167E+02  1.250000000E+02  0.00000E+00  9.000E+00
      21     1     1     2   511   502  2.890582446E+01 -1.079928690E+02  3.902742308E+02  4.059704197E+02  5.394796609E-06  0.00000E+00  9.000E+00
#rwgt            1           1   4.2536760028753576E-002           7      163703           0
</event>
<event>
      5   9999  3.79277E-02  2.84249E+01 -1.00000E+00  1.54685E-01
      21    -1     0     0   502   501  0.000000000E+00  0.000000000E+00  2.272409231E+02  2.272409231E+02  0.000000000E+00  0.00000E+00  9.000E+00
      21    -1     0     0   501   512  0.000000000E+00  0.000000000E+00 -3.582258366E+02  3.582258366E+02  0.000000000E+00  0.00000E+00  9.000E+00
      25     1     1     2     0     0 -7.058906768E+01 -1.555580705E+02  6.652481697E+01  2.218821332E+02  1.250000000E+02  0.00000E+00  9.000E+00
      25     1     1     2     0     0  4.718753601E+01  1.716933080E+02 -6.355664849E+01  2.266488542E+02  1.250000000E+02  0.00000E+00  9.000E+00
      21     1     1     2   502   512  2.340153167E+01 -1.613523750E+01 -1.339530819E+02  1.369357723E+02  2.697398305E-06  0.00000E+00  9.000E+00
#rwgt            1           1   2.0324109256743068E-002           7      163789           0
</event>
<event>
      5   9999  3.79277E-02  1.98237E+01 -1.00000E+00  1.66687E-01
      21    -1     0     0   502   501  0.000000000E+00  0.000000000E+00  3.559224065E+02  3.559224065E+02  0.000000000E+00  0.00000E+00  9.000E+00
      21    -1     0     0   511   502  0.000000000E+00  0.000000000E+00 -2.243386201E+02  2.243386201E+02  0.000000000E+00  0.00000E+00  9.000E+00
      25     1     1     2     0     0  2.444994805E+02 -3.230297678E+01  5.025212715E+01  2.810226940E+02  1.250000000E+02  0.00000E+00  9.000E+00
      25     1     1     2     0     0 -2.351159549E+02  1.484077032E+01  8.309157480E+01  2.793366616E+02  1.250000000E+02  0.00000E+00  9.000E+00
      21     1     1     2   511   501 -9.383525540E+00  1.746220645E+01 -1.759915499E+00  1.990167099E+01  2.043144286E-07  0.00000E+00  9.000E+00
#rwgt            1           1   3.6017841878341401E-002           7      163919           0
</event>
<event>
      5   9999  3.79277E-02  4.30691E+00 -1.00000E+00  2.56128E-01
      21    -1     0     0   502   501  0.000000000E+00  0.000000000E+00  7.252318769E+01  7.252318769E+01  0.000000000E+00  0.00000E+00  9.000E+00
      21    -1     0     0   512   502  0.000000000E+00  0.000000000E+00 -4.534042452E+02  4.534042452E+02  0.000000000E+00  0.00000E+00  9.000E+00
      25     1     1     2     0     0 -7.977715385E+01 -9.092895072E+01 -1.395134180E+02  2.229830984E+02  1.250000000E+02  0.00000E+00  9.000E+00
      25     1     1     2     0     0  8.305108745E+01  8.813059208E+01 -2.168578224E+02  2.780589857E+02  1.250000000E+02  0.00000E+00  9.000E+00
      21     1     1     2   512   501 -3.273933597E+00  2.798358637E+00 -2.450981707E+01  2.488534880E+01  3.371747881E-07  0.00000E+00  9.000E+00
#rwgt            1           1   3.6817452540847694E-002           7      164152           0
</event>
<event>
      5   9999  3.79277E-02  1.14218E+02 -1.00000E+00  1.21286E-01
      21    -1     0     0   502   511  0.000000000E+00  0.000000000E+00  3.630444090E+02  3.630444090E+02  0.000000000E+00  0.00000E+00  9.000E+00
      21    -1     0     0   501   502  0.000000000E+00  0.000000000E+00 -1.514194092E+02  1.514194092E+02  0.000000000E+00  0.00000E+00  9.000E+00
      25     1     1     2     0     0 -4.961899128E+01  2.866800819E+01 -2.884606303E+01  1.405026489E+02  1.250000000E+02  0.00000E+00  9.000E+00
      25     1     1     2     0     0  8.408391460E+01  8.022646544E+01  1.625204877E+02  2.356783812E+02  1.250000000E+02  0.00000E+00  9.000E+00
      21     1     1     2   501   511 -3.446492332E+01 -1.088944736E+02  7.795057504E+01  1.382827881E+02  3.162979880E-06  0.00000E+00  9.000E+00
#rwgt            1           1   4.8536551842780447E-002           7      164467           0
</event>
<event>
      5   9999  3.79277E-02  1.52573E+01 -1.00000E+00  1.76691E-01
       2    -1     0     0   502     0  0.000000000E+00  0.000000000E+00  1.744381392E+03  1.744381392E+03  0.000000000E+00  0.00000E+00  9.000E+00
      21    -1     0     0   501   502  0.000000000E+00  0.000000000E+00 -1.146014001E+02  1.146014001E+02  0.000000000E+00  0.00000E+00  9.000E+00
      25     1     1     2     0     0  5.663566440E+01 -1.956777984E+02  2.374326596E+02  3.368926641E+02  1.250000000E+02  0.00000E+00  9.000E+00
      25     1     1     2     0     0 -4.137918959E+01  1.955194424E+02  1.494656406E+02  2.791147925E+02  1.250000000E+02  0.00000E+00  9.000E+00
       2     1     1     2   501     0 -1.525647481E+01  1.583560400E-01  1.242881691E+03  1.242975335E+03  0.000000000E+00  0.00000E+00  9.000E+00
#rwgt            1           1   2.6787312637049299E-002           7      164541           0
</event>
<event>
      5   9999  3.79277E-02  1.96015E+02 -1.00000E+00  1.11967E-01
      21    -1     0     0   511   501  0.000000000E+00  0.000000000E+00  5.257804537E+02  5.257804537E+02  0.000000000E+00  0.00000E+00  9.000E+00
      21    -1     0     0   501   502  0.000000000E+00  0.000000000E+00 -1.509155153E+03  1.509155153E+03  0.000000000E+00  0.00000E+00  9.000E+00
      25     1     1     2     0     0 -1.956204657E+02  5.372398100E+02 -3.101682798E+02  6.623619417E+02  1.250000000E+02  0.00000E+00  9.000E+00
      25     1     1     2     0     0  9.982631644E+00 -4.743063871E+02 -9.288365326E+02  1.050442053E+03  1.250000000E+02  0.00000E+00  9.000E+00
      21     1     1     2   511   502  1.856378341E+02 -6.293342282E+01  2.556301129E+02  3.221316125E+02  6.607249480E-06  0.00000E+00  9.000E+00
#rwgt            1           1   5.1102028138568761E-002           7      164714           0
</event>
<event>
      5   9999  3.79277E-02  1.35307E+02 -1.00000E+00  1.18196E-01
      21    -1     0     0   512   501  0.000000000E+00  0.000000000E+00  7.626505379E+02  7.626505379E+02  0.000000000E+00  0.00000E+00  9.000E+00
      21    -1     0     0   501   502  0.000000000E+00  0.000000000E+00 -2.098055024E+02  2.098055024E+02  0.000000000E+00  0.00000E+00  9.000E+00
      25     1     1     2     0     0  2.831684024E+02 -6.727299583E+01  1.916267296E+02  3.702104855E+02  1.250000000E+02  0.00000E+00  9.000E+00
      25     1     1     2     0     0 -2.760299725E+02 -6.784538803E+01  1.348772108E+02  3.385445382E+02  1.250000000E+02  0.00000E+00  9.000E+00
      21     1     1     2   512   502 -7.138429904E+00  1.351183839E+02  2.263410951E+02  2.637010166E+02  4.672030912E-06  0.00000E+00  9.000E+00
#rwgt            1           1   3.0901033952947330E-002           7      164854           0
</event>
<event>
      5   9999  3.79277E-02  6.26418E+01 -1.00000E+00  1.33711E-01
      21    -1     0     0   502   501  0.000000000E+00  0.000000000E+00  7.699872606E+01  7.699872606E+01  0.000000000E+00  0.00000E+00  9.000E+00
      21    -1     0     0   501   511  0.000000000E+00  0.000000000E+00 -7.775536104E+02  7.775536104E+02  0.000000000E+00  0.00000E+00  9.000E+00
      25     1     1     2     0     0 -3.324933459E+01  2.717963598E+01 -5.526717290E+02  5.682563602E+02  1.250000000E+02  0.00000E+00  9.000E+00
      25     1     1     2     0     0  4.464512734E+01  3.441686141E+01 -1.319863327E+01  1.377567119E+02  1.250000000E+02  0.00000E+00  9.000E+00
      21     1     1     2   502   511 -1.139579275E+01 -6.159649739E+01 -1.346845220E+02  1.485392644E+02  0.000000000E+00  0.00000E+00  9.000E+00
#rwgt            1           1   3.7322327178903103E-002           7      164953           0
</event>
<event>
      5   9999  3.79277E-02  2.85432E+01 -1.00000E+00  1.54557E-01
      21    -1     0     0   502   501  0.000000000E+00  0.000000000E+00  6.268011039E+01  6.268011039E+01  0.000000000E+00  0.00000E+00  9.000E+00
      21    -1     0     0   512   502  0.000000000E+00  0.000000000E+00 -8.960930621E+02  8.960930621E+02  0.000000000E+00  0.00000E+00  9.000E+00
      25     1     1     2     0     0  1.179948228E+02 -1.536641925E+01 -9.398489611E+01  1.965122534E+02  1.250000000E+02  0.00000E+00  9.000E+00
      25     1     1     2     0     0 -8.945216217E+01  1.554705687E+01 -5.760147733E+02  5.963735569E+02  1.250000000E+02  0.00000E+00  9.000E+00
      21     1     1     2   512   501 -2.854266059E+01 -1.806376192E-01 -1.634132824E+02  1.658873623E+02  1.907348633E-06  0.00000E+00  9.000E+00
#rwgt            1           1   3.1031156192220757E-002           7      165007           0
</event>
<event>
      5   9999  3.79277E-02  6.51204E+01 -1.00000E+00  1.32830E-01
      21    -1     0     0   502   501  0.000000000E+00  0.000000000E+00  6.757170546E+02  6.757170546E+02  0.000000000E+00  0.00000E+00  9.000E+00
      21    -1     0     0   501   511  0.000000000E+00  0.000000000E+00 -7.110174833E+01  7.110174833E+01  0.000000000E+00  0.00000E+00  9.000E+00
      25     1     1     2     0     0  1.497948284E+02  2.200191081E+01  3.569565546E+02  4.073887045E+02  1.250000000E+02  0.00000E+00  9.000E+00
      25     1     1     2     0     0 -1.069165910E+02  2.700956656E+01  1.701174316E+02  2.381713977E+02  1.250000000E+02  0.00000E+00  9.000E+00
      21     1     1     2   502   511 -4.287823743E+01 -4.901147737E+01  7.754131997E+01  1.012587007E+02  1.907348633E-06  0.00000E+00  9.000E+00
#rwgt            1           1   4.7552394328146758E-002           7      165136           0
</event>
<event>
      5   9999  3.79277E-02  1.21715E+02 -1.00000E+00  1.20107E-01
      21    -1     0     0   502   501  0.000000000E+00  0.000000000E+00  7.227998431E+02  7.227998431E+02  0.000000000E+00  0.00000E+00  9.000E+00
      21    -1     0     0   512   502  0.000000000E+00  0.000000000E+00 -1.636182582E+02  1.636182582E+02  0.000000000E+00  0.00000E+00  9.000E+00
      25     1     1     2     0     0  6.910677629E+01 -2.044744596E+02  5.516130856E+02  6.053821499E+02  1.250000000E+02  0.00000E+00  9.000E+00
      25     1     1     2     0     0 -4.900363468E+01  8.443161644E+01  1.350033757E+01  1.591769870E+02  1.250000000E+02  0.00000E+00  9.000E+00
      21     1     1     2   512   501 -2.010314161E+01  1.200428432E+02 -5.931838310E+00  1.218589644E+02  1.841002132E-06  0.00000E+00  9.000E+00
#rwgt            1           1   4.6106230004393088E-002           7      165230           0
</event>
<event>
      5   9999  3.79277E-02  2.23168E+01 -1.00000E+00  1.62535E-01
      21    -1     0     0   502   501  0.000000000E+00  0.000000000E+00  7.808366857E+02  7.808366857E+02  0.000000000E+00  0.00000E+00  9.000E+00
      21    -1     0     0   501   511  0.000000000E+00  0.000000000E+00 -4.809957298E+01  4.809957298E+01  0.000000000E+00  0.00000E+00  9.000E+00
      25     1     1     2     0     0 -1.297186831E+02  6.083425131E+00  3.176496277E+02  3.652262734E+02  1.250000000E+02  0.00000E+00  9.000E+00
      25     1     1     2     0     0  1.327804737E+02  1.602232212E+01  3.844099402E+02  4.257738498E+02  1.250000000E+02  0.00000E+00  9.000E+00
      21     1     1     2   502   511 -3.061790646E+00 -2.210574725E+01  3.067754479E+01  3.793613552E+01  6.743495762E-07  0.00000E+00  9.000E+00
#rwgt            1           1   4.1270469654327034E-002           7      165282           0
</event>
<event>
      5   9999  3.79277E-02  2.19131E+01 -1.00000E+00  1.63161E-01
      21    -1     0     0   502   512  0.000000000E+00  0.000000000E+00  1.308542457E+03  1.308542457E+03  0.000000000E+00  0.00000E+00  9.000E+00
      21    -1     0     0   501   502  0.000000000E+00  0.000000000E+00 -7.505414071E+01  7.505414071E+01  0.000000000E+00  0.00000E+00  9.000E+00
      25     1     1     2     0     0 -2.214484984E+02 -1.105864855E+02  4.615163150E+02  5.384153761E+02  1.250000000E+02  0.00000E+00  9.000E+00
      25     1     1     2     0     0  2.433580871E+02  1.109763687E+02  5.690420605E+02  6.410715869E+02  1.250000000E+02  0.00000E+00  9.000E+00
      21     1     1     2   501   512 -2.190958868E+01 -3.898831232E-01  2.029299405E+02  2.041096344E+02  2.697398305E-06  0.00000E+00  9.000E+00
#rwgt            1           1   3.7807159354567625E-002           7      165485           0
</event>
<event>
      5   9999  3.79277E-02  7.70414E+01 -1.00000E+00  1.29147E-01
      21    -1     0     0   511   501  0.000000000E+00  0.000000000E+00  2.154478973E+02  2.154478973E+02  0.000000000E+00  0.00000E+00  9.000E+00
      21    -1     0     0   501   502  0.000000000E+00  0.000000000E+00 -3.489959938E+02  3.489959938E+02  0.000000000E+00  0.00000E+00  9.000E+00
      25     1     1     2     0     0 -1.791202756E+02 -1.491920744E+02 -4.612723202E+01  2.685052508E+02  1.250000000E+02  0.00000E+00  9.000E+00
      25     1     1     2     0     0  1.283163479E+02  9.127546523E+01 -8.655988162E+01  2.188924594E+02  1.250000000E+02  0.00000E+00  9.000E+00
      21     1     1     2   511   502  5.080392774E+01  5.791660912E+01 -8.609829257E-01  7.704618081E+01  6.877979578E-07  0.00000E+00  9.000E+00
#rwgt            1           1   3.2725981138780606E-002           7      165673           0
</event>
<event>
      5   9999  3.79277E-02  1.45168E+02 -1.00000E+00  1.16960E-01
      21    -1     0     0   512   501  0.000000000E+00  0.000000000E+00  1.334572588E+03  1.334572588E+03  0.000000000E+00  0.00000E+00  9.000E+00
      21    -1     0     0   501   502  0.000000000E+00  0.000000000E+00 -1.444328236E+02  1.444328236E+02  0.000000000E+00  0.00000E+00  9.000E+00
      25     1     1     2     0     0 -1.854021672E+02  1.147334468E+02  5.418317961E+01  2.570963718E+02  1.250000000E+02  0.00000E+00  9.000E+00
      25     1     1     2     0     0  1.227336147E+02 -2.456773603E+02  8.330658165E+02  8.860274037E+02  1.250000000E+02  0.00000E+00  9.000E+00
      21     1     1     2   512   502  6.266855252E+01  1.309439135E+02  3.028907682E+02  3.358816360E+02  5.394796609E-06  0.00000E+00  9.000E+00
#rwgt            1           1   3.6532002628043278E-002           7      165813           0
</event>
<event>
      5   9999 -3.79277E-02  1.40548E+02 -1.00000E+00  1.17525E-01
      21    -1     0     0   502   501  0.000000000E+00  0.000000000E+00  3.418887428E+02  3.418887428E+02  0.000000000E+00  0.00000E+00  9.000E+00
      21    -1     0     0   511   502  0.000000000E+00  0.000000000E+00 -2.850137432E+02  2.850137432E+02  0.000000000E+00  0.00000E+00  9.000E+00
      25     1     1     2     0     0  5.889805089E+01  8.823980773E+01 -6.184455362E+00  1.640685575E+02  1.250000000E+02  0.00000E+00  9.000E+00
      25     1     1     2     0     0 -7.352781049E+01 -2.280238315E+02  1.381345321E+02  3.034919366E+02  1.250000000E+02  0.00000E+00  9.000E+00
      21     1     1     2   511   501  1.462975960E+01  1.397840237E+02 -7.507507717E+01  1.593419919E+02  2.132480600E-06  0.00000E+00  9.000E+00
#rwgt            1           1 -0.11714855639438322                7      165874           0
</event>
<event>
      5   9999  3.79277E-02  2.08267E+01 -1.00000E+00  1.64931E-01
      21    -1     0     0   502   512  0.000000000E+00  0.000000000E+00  1.232004733E+03  1.232004733E+03  0.000000000E+00  0.00000E+00  9.000E+00
      21    -1     0     0   501   502  0.000000000E+00  0.000000000E+00 -8.356498456E+01  8.356498456E+01  0.000000000E+00  0.00000E+00  9.000E+00
      25     1     1     2     0     0 -7.000536546E+01  2.284281801E+01 -1.041159402E+01  1.454508399E+02  1.250000000E+02  0.00000E+00  9.000E+00
      25     1     1     2     0     0  5.062987239E+01 -1.520459529E+01  8.704960934E+02  8.810124927E+02  1.250000000E+02  0.00000E+00  9.000E+00
      21     1     1     2   501   512  1.937549306E+01 -7.638222714E+00  2.883552491E+02  2.891063850E+02  5.394796609E-06  0.00000E+00  9.000E+00
#rwgt            1           1   4.3315254509693708E-002           7      165922           0
</event>
<event>
      5   9999  3.79277E-02  3.88757E+01 -1.00000E+00  1.45612E-01
      21    -1     0     0   502   501  0.000000000E+00  0.000000000E+00  2.548860829E+02  2.548860829E+02  0.000000000E+00  0.00000E+00  9.000E+00
      21    -1     0     0   511   502  0.000000000E+00  0.000000000E+00 -1.868113220E+02  1.868113220E+02  0.000000000E+00  0.00000E+00  9.000E+00
      25     1     1     2     0     0 -1.176177122E+02  2.510619939E+01 -7.804121117E+01  1.902095637E+02  1.250000000E+02  0.00000E+00  9.000E+00
      25     1     1     2     0     0  7.919803454E+01 -3.104343663E+01  1.492911790E+02  2.124826576E+02  1.250000000E+02  0.00000E+00  9.000E+00
      21     1     1     2   511   501  3.841967766E+01  5.937237242E+00 -3.175206889E+00  3.900518371E+01  8.860867469E-07  0.00000E+00  9.000E+00
#rwgt            1           1   3.0430956033091400E-002           7      166094           0
</event>
<event>
      5   9999  3.79277E-02  3.86727E+00 -1.00000E+00  2.66972E-01
      21    -1     0     0   502   501  0.000000000E+00  0.000000000E+00  1.185165963E+03  1.185165963E+03  0.000000000E+00  0.00000E+00  9.000E+00
      21    -1     0     0   512   502  0.000000000E+00  0.000000000E+00 -2.918612664E+01  2.918612664E+01  0.000000000E+00  0.00000E+00  9.000E+00
      25     1     1     2     0     0 -7.578071237E+01  1.780306658E+01  8.463113743E+02  8.590271287E+02  1.250000000E+02  0.00000E+00  9.000E+00
      25     1     1     2     0     0  7.614712493E+01 -1.395319253E+01  3.156432004E+02  3.482078491E+02  1.250000000E+02  0.00000E+00  9.000E+00
      21     1     1     2   512   501 -3.664125603E-01 -3.849874057E+00 -5.974738130E+00  7.117112064E+00  3.153981341E-07  0.00000E+00  9.000E+00
#rwgt            1           1   5.3076784278475078E-002           7      166254           0
</event>
<event>
      5   9999  3.79277E-02  1.96680E+01 -1.00000E+00  1.66971E-01
      21    -1     0     0   502   501  0.000000000E+00  0.000000000E+00  5.192303061E+01  5.192303061E+01  0.000000000E+00  0.00000E+00  9.000E+00
       1    -1     0     0   501     0  0.000000000E+00  0.000000000E+00 -3.067897397E+03  3.067897397E+03  0.000000000E+00  0.00000E+00  9.000E+00
      25     1     1     2     0     0 -2.745303001E+02 -2.376133270E+02 -1.335689231E+03  1.389790524E+03  1.250000000E+02  0.00000E+00  9.000E+00
      25     1     1     2     0     0  2.704397133E+02  2.183753982E+02 -1.363991539E+03  1.413125391E+03  1.250000000E+02  0.00000E+00  9.000E+00
       1     1     1     2   502     0  4.090586787E+00  1.923792879E+01 -3.162935962E+02  3.169045121E+02  3.814697266E-06  0.00000E+00  9.000E+00
#rwgt            1           1   4.0514001352184324E-002           7      166600           0
</event>
<event>
      5   9999  3.79277E-02  2.59775E+01 -1.00000E+00  1.57513E-01
      21    -1     0     0   502   501  0.000000000E+00  0.000000000E+00  2.807785198E+02  2.807785198E+02  0.000000000E+00  0.00000E+00  9.000E+00
       2    -1     0     0   501     0  0.000000000E+00  0.000000000E+00 -1.768715446E+03  1.768715446E+03  0.000000000E+00  0.00000E+00  9.000E+00
      25     1     1     2     0     0 -1.183693901E+02  2.061573189E+02 -2.200046391E+01  2.694831591E+02  1.250000000E+02  0.00000E+00  9.000E+00
      25     1     1     2     0     0  9.492896319E+01 -1.949601135E+02  5.712492909E+01  2.567278937E+02  1.250000000E+02  0.00000E+00  9.000E+00
       2     1     1     2   502     0  2.344042690E+01 -1.119720542E+01 -1.523061391E+03  1.523282913E+03  2.157918644E-05  0.00000E+00  9.000E+00
#rwgt            1           1  0.26773164365935959                7      166780           0
</event>
<event>
      5   9999  3.79277E-02  3.03402E+01 -1.00000E+00  1.52700E-01
      21    -1     0     0   502   511  0.000000000E+00  0.000000000E+00  1.237296148E+03  1.237296148E+03  0.000000000E+00  0.00000E+00  9.000E+00
      21    -1     0     0   501   502  0.000000000E+00  0.000000000E+00 -5.586034430E+01  5.586034430E+01  0.000000000E+00  0.00000E+00  9.000E+00
      25     1     1     2     0     0 -1.164386072E+02 -4.276978614E+01  1.193799816E+02  2.127528704E+02  1.250000000E+02  0.00000E+00  9.000E+00
      25     1     1     2     0     0  8.690814496E+01  4.973267046E+01  7.519654866E+02  7.688325287E+02  1.250000000E+02  0.00000E+00  9.000E+00
      21     1     1     2   501   511  2.953046221E+01 -6.962884317E+00  3.100903354E+02  3.115710931E+02  3.814697266E-06  0.00000E+00  9.000E+00
#rwgt            1           1   3.9367446476038126E-002           7      166943           0
</event>
<event>
      5   9999  3.79277E-02  1.30640E+01 -1.00000E+00  1.83231E-01
      21    -1     0     0   502   512  0.000000000E+00  0.000000000E+00  2.584897572E+02  2.584897572E+02  0.000000000E+00  0.00000E+00  9.000E+00
      21    -1     0     0   501   502  0.000000000E+00  0.000000000E+00 -4.849457832E+02  4.849457832E+02  0.000000000E+00  0.00000E+00  9.000E+00
      25     1     1     2     0     0 -4.852255934E+01 -2.048997140E+02 -4.972925692E+01  2.498726286E+02  1.250000000E+02  0.00000E+00  9.000E+00
      25     1     1     2     0     0  6.079921207E+01  2.093665557E+02 -2.875964551E+02  3.819261968E+02  1.250000000E+02  0.00000E+00  9.000E+00
      21     1     1     2   501   512 -1.227665272E+01 -4.466841723E+00  1.108696859E+02  1.116367150E+02  1.348699152E-06  0.00000E+00  9.000E+00
#rwgt            1           1   3.6169994081545039E-002           7      167091           0
</event>
<event>
      5   9999  3.79277E-02  3.71355E+01 -1.00000E+00  1.46870E-01
      21    -1     0     0   502   501  0.000000000E+00  0.000000000E+00  2.736827046E+02  2.736827046E+02  0.000000000E+00  0.00000E+00  9.000E+00
      21    -1     0     0   511   502  0.000000000E+00  0.000000000E+00 -3.384316464E+02  3.384316464E+02  0.000000000E+00  0.00000E+00  9.000E+00
      25     1     1     2     0     0 -4.067282951E+01 -1.368723188E+02  1.603050518E+02  2.484170291E+02  1.250000000E+02  0.00000E+00  9.000E+00
      25     1     1     2     0     0  6.893235116E+01  1.127799710E+02 -5.561133929E+01  1.902330464E+02  1.250000000E+02  0.00000E+00  9.000E+00
      21     1     1     2   511   501 -2.825952165E+01  2.409234783E+01 -1.694426543E+02  1.734642755E+02  1.907348633E-06  0.00000E+00  9.000E+00
#rwgt            1           1   4.0506218822858660E-002           7      167441           0
</event>
<event>
      5   9999  3.79277E-02  5.97092E+01 -1.00000E+00  1.34816E-01
       1    -1     0     0   502     0  0.000000000E+00  0.000000000E+00  1.206382924E+02  1.206382924E+02  0.000000000E+00  0.00000E+00  9.000E+00
      21    -1     0     0   501   502  0.000000000E+00  0.000000000E+00 -9.055935039E+02  9.055935039E+02  0.000000000E+00  0.00000E+00  9.000E+00
      25     1     1     2     0     0 -1.303085571E+01  1.202274474E+02 -3.120262038E+02  3.572251309E+02  1.250000000E+02  0.00000E+00  9.000E+00
      25     1     1     2     0     0 -3.060236496E+01 -7.946806930E+01 -5.506232850E+02  5.710189846E+02  1.250000000E+02  0.00000E+00  9.000E+00
       1     1     1     2   501     0  4.363322066E+01 -4.075937808E+01  7.769427734E+01  9.798768074E+01  2.523185073E-06  0.00000E+00  9.000E+00
#rwgt            1           1   4.4902325873275840E-002           7      167583           0
</event>
<event>
      5   9999  3.79277E-02  3.52967E+01 -1.00000E+00  1.48292E-01
      21    -1     0     0   502   511  0.000000000E+00  0.000000000E+00  5.201683327E+02  5.201683327E+02  0.000000000E+00  0.00000E+00  9.000E+00
      21    -1     0     0   501   502  0.000000000E+00  0.000000000E+00 -2.864130824E+03  2.864130824E+03  0.000000000E+00  0.00000E+00  9.000E+00
      25     1     1     2     0     0  1.426049901E+01 -5.295050261E+01 -4.188549687E+02  4.405355858E+02  1.250000000E+02  0.00000E+00  9.000E+00
      25     1     1     2     0     0 -4.631778336E+00  1.899248076E+01 -2.432177803E+03  2.435466287E+03  1.250000000E+02  0.00000E+00  9.000E+00
      21     1     1     2   501   511 -9.628720678E+00  3.395802186E+01  5.070702807E+02  5.082972841E+02  1.945121580E-05  0.00000E+00  9.000E+00
#rwgt            1           1   4.3452274674310572E-002           7      167693           0
</event>
<event>
      5   9999  3.79277E-02  5.95027E+01 -1.00000E+00  1.34897E-01
      21    -1     0     0   502   512  0.000000000E+00  0.000000000E+00  1.852418004E+02  1.852418004E+02  0.000000000E+00  0.00000E+00  9.000E+00
      21    -1     0     0   501   502  0.000000000E+00  0.000000000E+00 -5.503609237E+02  5.503609237E+02  0.000000000E+00  0.00000E+00  9.000E+00
      25     1     1     2     0     0  1.910758587E+02  3.362284313E+01 -3.993317807E+02  4.612280894E+02  1.250000000E+02  0.00000E+00  9.000E+00
      25     1     1     2     0     0 -1.484856478E+02  7.930103400E+00  6.816136628E+01  2.058685163E+02  1.250000000E+02  0.00000E+00  9.000E+00
      21     1     1     2   501   512 -4.259021084E+01 -4.155294653E+01 -3.394870887E+01  6.850611840E+01  4.768371582E-07  0.00000E+00  9.000E+00
#rwgt            1           1   3.6402363282237796E-002           7      167811           0
</event>
<event>
      5   9999  3.79277E-02  1.81298E+02 -1.00000E+00  1.13223E-01
       1    -1     0     0   502     0  0.000000000E+00  0.000000000E+00  5.567155297E+02  5.567155297E+02  0.000000000E+00  0.00000E+00  9.000E+00
      21    -1     0     0   501   502  0.000000000E+00  0.000000000E+00 -5.319425293E+02  5.319425293E+02  0.000000000E+00  0.00000E+00  9.000E+00
      25     1     1     2     0     0 -2.268085715E+02 -6.232705355E+01 -1.729947742E+02  3.176145173E+02  1.250000000E+02  0.00000E+00  9.000E+00
      25     1     1     2     0     0  1.531008203E+02 -1.033110082E+02 -2.214578035E+02  3.142953775E+02  1.250000000E+02  0.00000E+00  9.000E+00
       1     1     1     2   501     0  7.370775116E+01  1.656380618E+02  4.192255781E+02  4.567481641E+02  0.000000000E+00  0.00000E+00  9.000E+00
#rwgt            1           1   4.4532040428632673E-002           7      167935           0
</event>
<event>
      5   9999  3.79277E-02  6.57180E+01 -1.00000E+00  1.32624E-01
      21    -1     0     0   502   511  0.000000000E+00  0.000000000E+00  6.748131860E+02  6.748131860E+02  0.000000000E+00  0.00000E+00  9.000E+00
      21    -1     0     0   501   502  0.000000000E+00  0.000000000E+00 -1.425329605E+02  1.425329605E+02  0.000000000E+00  0.00000E+00  9.000E+00
      25     1     1     2     0     0  7.129285626E+01  1.118011722E+02  3.375867146E+02  3.836299823E+02  1.250000000E+02  0.00000E+00  9.000E+00
      25     1     1     2     0     0 -1.333507217E+02 -9.017530597E+01 -2.413248471E+01  2.052349327E+02  1.250000000E+02  0.00000E+00  9.000E+00
      21     1     1     2   501   511  6.205786549E+01 -2.162586624E+01  2.188259956E+02  2.284812314E+02  2.697398305E-06  0.00000E+00  9.000E+00
#rwgt            1           1   3.6085524848125120E-002           7      167997           0
</event>
<event>
      5   9999  3.79277E-02  1.77210E+01 -1.00000E+00  1.70824E-01
      21    -1     0     0   502   512  0.000000000E+00  0.000000000E+00  4.165378124E+02  4.165378124E+02  0.000000000E+00  0.00000E+00  9.000E+00
      21    -1     0     0   501   502  0.000000000E+00  0.000000000E+00 -3.600335607E+02  3.600335607E+02  0.000000000E+00  0.00000E+00  9.000E+00
      25     1     1     2     0     0 -1.240628695E+02  3.047933528E+02 -1.168063418E+02  3.708898825E+02  1.250000000E+02  0.00000E+00  9.000E+00
      25     1     1     2     0     0  1.108940709E+02 -2.929351961E+02  1.346092427E+02  3.631159213E+02  1.250000000E+02  0.00000E+00  9.000E+00
      21     1     1     2   501   512  1.316879855E+01 -1.185815663E+01  3.870135076E+01  4.256556924E+01  4.768371582E-07  0.00000E+00  9.000E+00
#rwgt            1           1   3.7515065018368661E-002           7      168109           0
</event>
<event>
      5   9999  3.79277E-02  4.67289E+01 -1.00000E+00  1.40773E-01
      -1    -1     0     0     0   501  0.000000000E+00  0.000000000E+00  4.156330107E+02  4.156330107E+02  0.000000000E+00  0.00000E+00  9.000E+00
      21    -1     0     0   501   502  0.000000000E+00  0.000000000E+00 -1.706943679E+02  1.706943679E+02  0.000000000E+00  0.00000E+00  9.000E+00
      25     1     1     2     0     0  6.887432603E+01  1.181252280E+01  8.689710083E+01  1.675091478E+02  1.250000000E+02  0.00000E+00  9.000E+00
      25     1     1     2     0     0 -3.810679697E+01  2.335775679E+01 -9.388477014E+01  1.625947811E+02  1.250000000E+02  0.00000E+00  9.000E+00
      -1     1     1     2     0   502 -3.076752906E+01 -3.517027959E+01  2.519263121E+02  2.562234496E+02  0.000000000E+00  0.00000E+00  9.000E+00
#rwgt            1           1   4.2336480513301376E-002           7      168447           0
</event>
<event>
      5   9999  3.79277E-02  3.42412E+01 -1.00000E+00  1.49155E-01
      21    -1     0     0   502   501  0.000000000E+00  0.000000000E+00  1.061515233E+03  1.061515233E+03  0.000000000E+00  0.00000E+00  9.000E+00
      21    -1     0     0   501   511  0.000000000E+00  0.000000000E+00 -1.271886775E+02  1.271886775E+02  0.000000000E+00  0.00000E+00  9.000E+00
      25     1     1     2     0     0  4.928165627E+00 -3.348044852E+02  3.917602207E+02  5.303012357E+02  1.250000000E+02  0.00000E+00  9.000E+00
      25     1     1     2     0     0 -1.966833270E+01  3.038984131E+02  5.256248983E+02  6.201996634E+02  1.250000000E+02  0.00000E+00  9.000E+00
      21     1     1     2   502   511  1.474016708E+01  3.090607207E+01  1.694143693E+01  3.820301168E+01  7.539457465E-07  0.00000E+00  9.000E+00
#rwgt            1           1   3.4447238589534086E-002           7      168541           0
</event>
<event>
      5   9999  3.79277E-02  1.23306E+02 -1.00000E+00  1.19869E-01
      21    -1     0     0   502   501  0.000000000E+00  0.000000000E+00  2.954175212E+02  2.954175212E+02  0.000000000E+00  0.00000E+00  9.000E+00
      21    -1     0     0   512   502  0.000000000E+00  0.000000000E+00 -4.505683375E+02  4.505683375E+02  0.000000000E+00  0.00000E+00  9.000E+00
      25     1     1     2     0     0  1.419058593E+02 -2.635787710E+02  5.318763843E+01  3.287323628E+02  1.250000000E+02  0.00000E+00  9.000E+00
      25     1     1     2     0     0 -1.443559079E+02  1.402973724E+02 -1.533172149E+02  2.822288951E+02  1.250000000E+02  0.00000E+00  9.000E+00
      21     1     1     2   512   501  2.450048584E+00  1.232813987E+02 -5.502123985E+01  1.350246008E+02  1.907348633E-06  0.00000E+00  9.000E+00
#rwgt            1           1   3.1972920939925247E-003           7      168729           0
</event>
<event>
      5   9999  3.79277E-02  5.87386E+01 -1.00000E+00  1.35198E-01
      21    -1     0     0   502   501  0.000000000E+00  0.000000000E+00  5.119458004E+02  5.119458004E+02  0.000000000E+00  0.00000E+00  9.000E+00
      21    -1     0     0   501   511  0.000000000E+00  0.000000000E+00 -1.220079958E+02  1.220079958E+02  0.000000000E+00  0.00000E+00  9.000E+00
      25     1     1     2     0     0  6.099727457E+01  9.741475793E+01  1.217235335E+02  2.089304218E+02  1.250000000E+02  0.00000E+00  9.000E+00
      25     1     1     2     0     0 -1.050993916E+02 -1.362119620E+02  2.923537025E+02  3.615180052E+02  1.250000000E+02  0.00000E+00  9.000E+00
      21     1     1     2   502   511  4.410211698E+01  3.879720405E+01 -2.413943146E+01  6.350536919E+01  1.118282261E-06  0.00000E+00  9.000E+00
#rwgt            1           1   3.4112233551299824E-002           7      168819           0
</event>
<event>
      5   9999 -3.79277E-02  3.11759E+01 -1.00000E+00  1.51889E-01
      21    -1     0     0   512   501  0.000000000E+00  0.000000000E+00  9.687406007E+02  9.687406007E+02  0.000000000E+00  0.00000E+00  9.000E+00
      21    -1     0     0   501   502  0.000000000E+00  0.000000000E+00 -6.029860012E+01  6.029860012E+01  0.000000000E+00  0.00000E+00  9.000E+00
      25     1     1     2     0     0  1.623972679E+02 -7.534505430E+01  3.472086641E+02  4.101568069E+02  1.250000000E+02  0.00000E+00  9.000E+00
      25     1     1     2     0     0 -1.843465269E+02  5.320531316E+01  4.785903431E+02  5.305545814E+02  1.250000000E+02  0.00000E+00  9.000E+00
      21     1     1     2   512   502  2.194925900E+01  2.213974114E+01  8.264299334E+01  8.832781248E+01  0.000000000E+00  0.00000E+00  9.000E+00
#rwgt            1           1 -0.11851512912320826                7      168881           0
</event>
<event>
      5   9999  3.79277E-02  4.50048E+01 -1.00000E+00  1.41735E-01
       2    -1     0     0   502     0  0.000000000E+00  0.000000000E+00  1.978241527E+03  1.978241527E+03  0.000000000E+00  0.00000E+00  9.000E+00
      21    -1     0     0   501   502  0.000000000E+00  0.000000000E+00 -6.304031352E+01  6.304031352E+01  0.000000000E+00  0.00000E+00  9.000E+00
      25     1     1     2     0     0  2.862296376E+02  2.410190704E+01  1.258813868E+03  1.297206869E+03  1.250000000E+02  0.00000E+00  9.000E+00
      25     1     1     2     0     0 -2.593076059E+02 -6.016626058E+01  4.878672746E+02  5.696489191E+02  1.250000000E+02  0.00000E+00  9.000E+00
       2     1     1     2   501     0 -2.692203172E+01  3.606435354E+01  1.685200714E+02  1.744260526E+02  1.907348633E-06  0.00000E+00  9.000E+00
#rwgt            1           1   5.1752137423924587E-002           7      169048           0
</event>
<event>
      5   9999 -3.79277E-02  3.29000E+00 -1.00000E+00  2.85215E-01
      21    -1     0     0   502   511  0.000000000E+00  0.000000000E+00  1.205497980E+02  1.205497980E+02  0.000000000E+00  0.00000E+00  9.000E+00
      21    -1     0     0   501   502  0.000000000E+00  0.000000000E+00 -1.538556494E+03  1.538556494E+03  0.000000000E+00  0.00000E+00  9.000E+00
      25     1     1     2     0     0 -2.519452997E+02  2.412326063E+02 -1.123648208E+03  1.183165204E+03  1.250000000E+02  0.00000E+00  9.000E+00
      25     1     1     2     0     0  2.543326450E+02 -2.389688328E+02 -2.920719191E+02  4.719345329E+02  1.250000000E+02  0.00000E+00  9.000E+00
      21     1     1     2   501   511 -2.387345351E+00 -2.263773510E+00 -2.286569182E+00  4.006555497E+00  7.300048300E-08  0.00000E+00  9.000E+00
#rwgt            1           1  -5.3616786650889821E-002           7      169170           0
</event>
<event>
      5   9999  3.79277E-02  4.62866E+01 -1.00000E+00  1.41015E-01
      21    -1     0     0   502   501  0.000000000E+00  0.000000000E+00  1.032593396E+02  1.032593396E+02  0.000000000E+00  0.00000E+00  9.000E+00
      21    -1     0     0   512   502  0.000000000E+00  0.000000000E+00 -8.048961326E+02  8.048961326E+02  0.000000000E+00  0.00000E+00  9.000E+00
      25     1     1     2     0     0  1.487064643E+02 -1.066591310E+02 -1.808238841E+02  2.860280752E+02  1.250000000E+02  0.00000E+00  9.000E+00
      25     1     1     2     0     0 -1.943486396E+02  1.143556811E+02 -2.957495553E+02  3.923536861E+02  1.250000000E+02  0.00000E+00  9.000E+00
      21     1     1     2   512   501  4.564217540E+01 -7.696550144E+00 -2.250633537E+02  2.297737109E+02  2.697398305E-06  0.00000E+00  9.000E+00
#rwgt            1           1   3.2137745209504416E-002           7      169784           0
</event>
<event>
      5   9999  3.79277E-02  1.30391E+02 -1.00000E+00  1.18857E-01
      21    -1     0     0   502   501  0.000000000E+00  0.000000000E+00  3.502400446E+02  3.502400446E+02  0.000000000E+00  0.00000E+00  9.000E+00
      21    -1     0     0   501   511  0.000000000E+00  0.000000000E+00 -6.214954086E+02  6.214954086E+02  0.000000000E+00  0.00000E+00  9.000E+00
      25     1     1     2     0     0 -7.763133864E+01  9.983966178E+01 -2.200255105E+02  2.828971688E+02  1.250000000E+02  0.00000E+00  9.000E+00
      25     1     1     2     0     0 -4.999357114E+01 -1.265524804E+02  2.785252570E+02  3.342397437E+02  1.250000000E+02  0.00000E+00  9.000E+00
      21     1     1     2   502   511  1.276249098E+02  2.671281866E+01 -3.297551105E+02  3.545985408E+02  5.394796609E-06  0.00000E+00  9.000E+00
#rwgt            1           1   3.3917213128278723E-002           7      169975           0
</event>
<event>
      5   9999  3.79277E-02  3.01605E+01 -1.00000E+00  1.52879E-01
      21    -1     0     0   502   501  0.000000000E+00  0.000000000E+00  3.988211806E+02  3.988211806E+02  0.000000000E+00  0.00000E+00  9.000E+00
      21    -1     0     0   512   502  0.000000000E+00  0.000000000E+00 -1.689306500E+02  1.689306500E+02  0.000000000E+00  0.00000E+00  9.000E+00
      25     1     1     2     0     0 -1.855813538E+02  1.595188792E+01  1.722597195E+02  2.828308904E+02  1.250000000E+02  0.00000E+00  9.000E+00
      25     1     1     2     0     0  1.982303563E+02  1.142803988E+01  7.942745801E+01  2.477086905E+02  1.250000000E+02  0.00000E+00  9.000E+00
      21     1     1     2   512   501 -1.264900242E+01 -2.737992780E+01 -2.179664688E+01  3.721224964E+01  2.384185791E-07  0.00000E+00  9.000E+00
#rwgt            1           1   4.0416419902751868E-002           7      170051           0
</event>
<event>
      5   9999  3.79277E-02  3.24768E+01 -1.00000E+00  1.50685E-01
      21    -1     0     0   502   501  0.000000000E+00  0.000000000E+00  4.026587467E+02  4.026587467E+02  0.000000000E+00  0.00000E+00  9.000E+00
      21    -1     0     0   511   502  0.000000000E+00  0.000000000E+00 -3.149179236E+02  3.149179236E+02  0.000000000E+00  0.00000E+00  9.000E+00
      25     1     1     2     0     0  8.741907339E+01  2.346946233E+02  9.499369845E+00  2.800694532E+02  1.250000000E+02  0.00000E+00  9.000E+00
      25     1     1     2     0     0 -5.516254257E+01 -2.384704957E+02  1.814344255E+02  3.293243601E+02  1.250000000E+02  0.00000E+00  9.000E+00
      21     1     1     2   511   501 -3.225653082E+01  3.775872408E+00 -1.031929723E+02  1.081828569E+02  1.348699152E-06  0.00000E+00  9.000E+00
#rwgt            1           1   7.1817530676462682E-002           7      170287           0
</event>
<event>
      5   9999  3.79277E-02  1.67883E+01 -1.00000E+00  1.72896E-01
      21    -1     0     0   502   501  0.000000000E+00  0.000000000E+00  5.633426613E+01  5.633426613E+01  0.000000000E+00  0.00000E+00  9.000E+00
       2    -1     0     0   501     0  0.000000000E+00  0.000000000E+00 -4.637412634E+02  4.637412634E+02  0.000000000E+00  0.00000E+00  9.000E+00
      25     1     1     2     0     0 -9.062585436E+01 -1.877995879E+01 -2.197114673E+02  2.691911239E+02  1.250000000E+02  0.00000E+00  9.000E+00
      25     1     1     2     0     0  7.542581797E+01  2.590786996E+01 -1.573489102E+02  2.162034950E+02  1.250000000E+02  0.00000E+00  9.000E+00
       2     1     1     2   502     0  1.520003639E+01 -7.127911168E+00 -3.034661978E+01  3.468091054E+01  4.768371582E-07  0.00000E+00  9.000E+00
#rwgt            1           1   3.4667276868472388E-002           7      170494           0
</event>
<event>
      5   9999  3.79277E-02  4.08895E+01 -1.00000E+00  1.44250E-01
      21    -1     0     0   502   501  0.000000000E+00  0.000000000E+00  2.059685282E+02  2.059685282E+02  0.000000000E+00  0.00000E+00  9.000E+00
      21    -1     0     0   511   502  0.000000000E+00  0.000000000E+00 -1.937080140E+02  1.937080140E+02  0.000000000E+00  0.00000E+00  9.000E+00
      25     1     1     2     0     0 -4.661159351E+01 -7.182770757E+01 -2.760727353E+01  1.540098106E+02  1.250000000E+02  0.00000E+00  9.000E+00
      25     1     1     2     0     0  8.723471290E+01  7.648745739E+01  7.999822287E+01  1.883744726E+02  1.250000000E+02  0.00000E+00  9.000E+00
      21     1     1     2   511   501 -4.062311940E+01 -4.659749817E+00 -4.013043516E+01  5.729225885E+01  4.768371582E-07  0.00000E+00  9.000E+00
#rwgt            1           1   3.5479625337481058E-002           7      170674           0
</event>
<event>
      5   9999 -3.79277E-02  3.56606E+01 -1.00000E+00  1.48002E-01
      21    -1     0     0   502   512  0.000000000E+00  0.000000000E+00  6.475635648E+01  6.475635648E+01  0.000000000E+00  0.00000E+00  9.000E+00
      21    -1     0     0   501   502  0.000000000E+00  0.000000000E+00 -2.260164595E+03  2.260164595E+03  0.000000000E+00  0.00000E+00  9.000E+00
      25     1     1     2     0     0  4.017793885E+01 -2.198001468E+02 -2.587743471E+02  3.640268314E+02  1.250000000E+02  0.00000E+00  9.000E+00
      25     1     1     2     0     0 -6.687209559E+01  1.961547749E+02 -1.867380964E+03  1.882999001E+03  1.250000000E+02  0.00000E+00  9.000E+00
      21     1     1     2   501   512  2.669415673E+01  2.364537195E+01 -6.925292754E+01  7.789511917E+01  1.348699152E-06  0.00000E+00  9.000E+00
#rwgt            1           1  -5.8636741661899694E-002           7      170768           0
</event>
<event>
      5   9999  3.79277E-02  1.26518E+01 -1.00000E+00  1.84645E-01
      21    -1     0     0   502   511  0.000000000E+00  0.000000000E+00  4.125299438E+02  4.125299438E+02  0.000000000E+00  0.00000E+00  9.000E+00
      21    -1     0     0   501   502  0.000000000E+00  0.000000000E+00 -1.188623125E+02  1.188623125E+02  0.000000000E+00  0.00000E+00  9.000E+00
      25     1     1     2     0     0  1.180678323E+02 -1.222170364E+02  8.486669260E+01  2.273859550E+02  1.250000000E+02  0.00000E+00  9.000E+00
      25     1     1     2     0     0 -1.194901330E+02  1.096454511E+02  1.803034795E+02  2.728266144E+02  1.250000000E+02  0.00000E+00  9.000E+00
      21     1     1     2   501   511  1.422300684E+00  1.257158531E+01  2.849745921E+01  3.117968694E+01  0.000000000E+00  0.00000E+00  9.000E+00
#rwgt            1           1   4.2106976785312569E-002           7      171107           0
</event>
<event>
      5   9999  3.79277E-02  6.83482E+01 -1.00000E+00  1.31748E-01
      21    -1     0     0   502   501  0.000000000E+00  0.000000000E+00  1.168913027E+02  1.168913027E+02  0.000000000E+00  0.00000E+00  9.000E+00
      21    -1     0     0   501   512  0.000000000E+00  0.000000000E+00 -1.186133136E+03  1.186133136E+03  0.000000000E+00  0.00000E+00  9.000E+00
      25     1     1     2     0     0  6.000191425E+01  3.065268603E+02 -6.553880254E+02  7.366935656E+02  1.250000000E+02  0.00000E+00  9.000E+00
      25     1     1     2     0     0 -1.142385418E+02 -2.649352481E+02 -3.067299785E+02  4.392600708E+02  1.250000000E+02  0.00000E+00  9.000E+00
      21     1     1     2   502   512  5.423662751E+01 -4.159161224E+01 -1.071238293E+02  1.270708022E+02  2.336015456E-06  0.00000E+00  9.000E+00
#rwgt            1           1   4.2936423854411793E-002           7      171305           0
</event>
<event>
      5   9999  3.79277E-02  2.28275E+01 -1.00000E+00  1.61766E-01
      21    -1     0     0   511   501  0.000000000E+00  0.000000000E+00  4.761827653E+02  4.761827653E+02  0.000000000E+00  0.00000E+00  9.000E+00
      21    -1     0     0   501   502  0.000000000E+00  0.000000000E+00 -1.427143074E+02  1.427143074E+02  0.000000000E+00  0.00000E+00  9.000E+00
      25     1     1     2     0     0 -9.327540530E+00 -1.904749201E+02  7.994019477E+01  2.416260188E+02  1.250000000E+02  0.00000E+00  9.000E+00
      25     1     1     2     0     0  2.299654866E+01  2.087575013E+02  1.894030479E+02  3.092038973E+02  1.250000000E+02  0.00000E+00  9.000E+00
      21     1     1     2   511   502 -1.366900813E+01 -1.828258115E+01  6.412521527E+01  6.806715647E+01  0.000000000E+00  0.00000E+00  9.000E+00
#rwgt            1           1   3.6899832461107798E-002           7      171401           0
</event>
<event>
      5   9999  3.79277E-02  4.18547E+01 -1.00000E+00  1.43630E-01
      21    -1     0     0   502   501  0.000000000E+00  0.000000000E+00  6.591153493E+02  6.591153493E+02  0.000000000E+00  0.00000E+00  9.000E+00
      21    -1     0     0   501   512  0.000000000E+00  0.000000000E+00 -1.590724125E+03  1.590724125E+03  0.000000000E+00  0.00000E+00  9.000E+00
      25     1     1     2     0     0 -4.385598524E+01  1.399442341E+02  3.281033942E+02  3.805056811E+02  1.250000000E+02  0.00000E+00  9.000E+00
      25     1     1     2     0     0  2.579741694E+00 -1.330094998E+02  2.771692938E+02  3.318825086E+02  1.250000000E+02  0.00000E+00  9.000E+00
      21     1     1     2   502   512  4.127624354E+01 -6.934734203E+00 -1.536881464E+03  1.537451284E+03  2.157918644E-05  0.00000E+00  9.000E+00
#rwgt            1           1   3.4853046005959669E-002           7      171524           0
</event>
<event>
      5   9999  3.79277E-02  2.76527E+01 -1.00000E+00  1.55539E-01
      21    -1     0     0   502   501  0.000000000E+00  0.000000000E+00  2.404940405E+02  2.404940405E+02  0.000000000E+00  0.00000E+00  9.000E+00
      21    -1     0     0   511   502  0.000000000E+00  0.000000000E+00 -1.499693171E+02  1.499693171E+02  0.000000000E+00  0.00000E+00  9.000E+00
      25     1     1     2     0     0 -4.722691956E+01 -6.419448046E+01 -5.085405843E+01  1.567241159E+02  1.250000000E+02  0.00000E+00  9.000E+00
      25     1     1     2     0     0  6.618521270E+01  4.406358830E+01  1.431797876E+02  2.060279927E+02  1.250000000E+02  0.00000E+00  9.000E+00
      21     1     1     2   511   501 -1.895829313E+01  2.013089217E+01 -1.801005724E+00  2.771124897E+01  6.563280685E-07  0.00000E+00  9.000E+00
#rwgt            1           1   4.8328283900248487E-002           7      171574           0
</event>
<event>
      5   9999  3.79277E-02  1.12427E+01 -1.00000E+00  1.90055E-01
      21    -1     0     0   502   512  0.000000000E+00  0.000000000E+00  5.439739081E+02  5.439739081E+02  0.000000000E+00  0.00000E+00  9.000E+00
      21    -1     0     0   501   502  0.000000000E+00  0.000000000E+00 -7.141940893E+01  7.141940893E+01  0.000000000E+00  0.00000E+00  9.000E+00
      25     1     1     2     0     0  8.699098899E+00  1.357091607E+02  1.784989358E+02  2.568647907E+02  1.250000000E+02  0.00000E+00  9.000E+00
      25     1     1     2     0     0 -1.958140093E+01 -1.328852766E+02  2.336447425E+02  2.970804499E+02  1.250000000E+02  0.00000E+00  9.000E+00
      21     1     1     2   501   512  1.088230203E+01 -2.823884121E+00  6.041082088E+01  6.144807644E+01  9.536743164E-07  0.00000E+00  9.000E+00
#rwgt            1           1   4.5348522168942314E-002           7      171676           0
</event>
<event>
      5   9999  3.79277E-02  4.75697E+01 -1.00000E+00  1.40322E-01
      21    -1     0     0   502   501  0.000000000E+00  0.000000000E+00  1.726038304E+02  1.726038304E+02  0.000000000E+00  0.00000E+00  9.000E+00
      21    -1     0     0   501   511  0.000000000E+00  0.000000000E+00 -6.128469330E+02  6.128469330E+02  0.000000000E+00  0.00000E+00  9.000E+00
      25     1     1     2     0     0  1.415549255E+02 -7.241273495E+00 -1.767703652E+02  2.587720908E+02  1.250000000E+02  0.00000E+00  9.000E+00
      25     1     1     2     0     0 -1.886345208E+02  1.405214446E+01  3.059998950E+01  2.287833136E+02  1.250000000E+02  0.00000E+00  9.000E+00
      21     1     1     2   502   511  4.707959536E+01 -6.810870962E+00 -2.940727268E+02  2.978953590E+02  3.814697266E-06  0.00000E+00  9.000E+00
#rwgt            1           1   4.3920771222527598E-002           7      171928           0
</event>
<event>
      5   9999  3.79277E-02  1.47793E+01 -1.00000E+00  1.77992E-01
      21    -1     0     0   502   501  0.000000000E+00  0.000000000E+00  7.005736602E+02  7.005736602E+02  0.000000000E+00  0.00000E+00  9.000E+00
      21    -1     0     0   501   512  0.000000000E+00  0.000000000E+00 -8.353579982E+01  8.353579982E+01  0.000000000E+00  0.00000E+00  9.000E+00
      25     1     1     2     0     0 -3.503850161E+00 -1.224254958E+02  4.341028228E+01  1.803045523E+02  1.250000000E+02  0.00000E+00  9.000E+00
      25     1     1     2     0     0  5.948497487E+00  1.078497438E+02  5.594230806E+02  5.833062103E+02  1.250000000E+02  0.00000E+00  9.000E+00
      21     1     1     2   502   512 -2.444647326E+00  1.457575199E+01  1.420449751E+01  2.049869743E+01  1.685873940E-07  0.00000E+00  9.000E+00
#rwgt            1           1   3.2156080395247484E-002           7      172027           0
</event>
<event>
      5   9999  3.79277E-02  2.59418E+02 -1.00000E+00  1.07684E-01
       4    -1     0     0   502     0  0.000000000E+00  0.000000000E+00  9.291268040E+02  9.291268040E+02  0.000000000E+00  0.00000E+00  9.000E+00
      21    -1     0     0   501   502  0.000000000E+00  0.000000000E+00 -4.573910697E+02  4.573910697E+02  0.000000000E+00  0.00000E+00  9.000E+00
      25     1     1     2     0     0 -2.728895636E+02 -1.477449306E+02 -8.091444655E+01  3.441938787E+02  1.250000000E+02  0.00000E+00  9.000E+00
      25     1     1     2     0     0  5.730045850E+01  2.920327365E+02 -1.016977082E+02  3.384285532E+02  1.250000000E+02  0.00000E+00  9.000E+00
       4     1     1     2   501     0  2.155891051E+02 -1.442878059E+02  6.543478890E+02  7.038954418E+02  0.000000000E+00  0.00000E+00  9.000E+00
#rwgt            2          20   3.6048063407421401E-005           7      172219           0
</event>
<event>
      5   9999  3.79277E-02  3.93323E+01 -1.00000E+00  1.45295E-01
      21    -1     0     0   502   501  0.000000000E+00  0.000000000E+00  3.416622951E+02  3.416622951E+02  0.000000000E+00  0.00000E+00  9.000E+00
      21    -1     0     0   511   502  0.000000000E+00  0.000000000E+00 -4.093659456E+02  4.093659456E+02  0.000000000E+00  0.00000E+00  9.000E+00
      25     1     1     2     0     0 -1.667498680E+02  1.439712964E+02  1.266593099E+02  2.831975167E+02  1.250000000E+02  0.00000E+00  9.000E+00
      25     1     1     2     0     0  1.676697168E+02 -1.832928886E+02 -8.889585953E+00  2.782327114E+02  1.250000000E+02  0.00000E+00  9.000E+00
      21     1     1     2   511   501 -9.198487591E-01  3.932159221E+01 -1.854733745E+02  1.895980126E+02  0.000000000E+00  0.00000E+00  9.000E+00
#rwgt            1           1  0.37986879517054578                7      172298           0
</event>
<event>
      5   9999  3.79277E-02  5.94018E+01 -1.00000E+00  1.34936E-01
      21    -1     0     0   502   501  0.000000000E+00  0.000000000E+00  7.657316954E+02  7.657316954E+02  0.000000000E+00  0.00000E+00  9.000E+00
      21    -1     0     0   512   502  0.000000000E+00  0.000000000E+00 -1.309530797E+02  1.309530797E+02  0.000000000E+00  0.00000E+00  9.000E+00
      25     1     1     2     0     0 -5.249822889E+01  2.759064503E+02  2.409319285E+02  3.905811407E+02  1.250000000E+02  0.00000E+00  9.000E+00
      25     1     1     2     0     0  5.587403521E+01 -2.166006718E+02  3.413532524E+02  4.268311162E+02  1.250000000E+02  0.00000E+00  9.000E+00
      21     1     1     2   512   501 -3.375806318E+00 -5.930577847E+01  5.249343480E+01  7.927251810E+01  9.536743164E-07  0.00000E+00  9.000E+00
#rwgt            1           1   3.1372098218768837E-002           7      172469           0
</event>
<event>
      5   9999  3.79277E-02  7.17707E+01 -1.00000E+00  1.30674E-01
      21    -1     0     0   502   501  0.000000000E+00  0.000000000E+00  2.245568302E+02  2.245568302E+02  0.000000000E+00  0.00000E+00  9.000E+00
      21    -1     0     0   511   502  0.000000000E+00  0.000000000E+00 -3.345585081E+02  3.345585081E+02  0.000000000E+00  0.00000E+00  9.000E+00
      25     1     1     2     0     0 -9.957630600E+01 -6.557796845E+00 -1.315976652E+02  2.071265094E+02  1.250000000E+02  0.00000E+00  9.000E+00
      25     1     1     2     0     0  1.688112104E+02 -1.235162129E+01  1.105520492E+02  2.376900143E+02  1.250000000E+02  0.00000E+00  9.000E+00
      21     1     1     2   511   501 -6.923490439E+01  1.890941813E+01 -8.895606191E+01  1.142988146E+02  9.536743164E-07  0.00000E+00  9.000E+00
#rwgt            1           1   3.7123599700035537E-002           7      172567           0
</event>
<event>
      5   9999  3.79277E-02  1.79406E+01 -1.00000E+00  1.70360E-01
      21    -1     0     0   502   512  0.000000000E+00  0.000000000E+00  1.038413928E+02  1.038413928E+02  0.000000000E+00  0.00000E+00  9.000E+00
      21    -1     0     0   501   502  0.000000000E+00  0.000000000E+00 -4.907044029E+02  4.907044029E+02  0.000000000E+00  0.00000E+00  9.000E+00
      25     1     1     2     0     0 -7.380532186E+01 -1.326700336E+02 -8.101130660E+01  2.126884932E+02  1.250000000E+02  0.00000E+00  9.000E+00
      25     1     1     2     0     0  6.310830252E+01  1.470727172E+02 -3.013053951E+02  3.633496706E+02  1.250000000E+02  0.00000E+00  9.000E+00
      21     1     1     2   501   512  1.069701934E+01 -1.440268363E+01 -4.546308330E+00  1.850763188E+01  3.318646170E-07  0.00000E+00  9.000E+00
#rwgt            1           1   5.1889021092110278E-002           7      172727           0
</event>
<event>
      5   9999  3.79277E-02  1.08208E+01 -1.00000E+00  1.91879E-01
      21    -1     0     0   502   501  0.000000000E+00  0.000000000E+00  2.677431712E+02  2.677431712E+02  0.000000000E+00  0.00000E+00  9.000E+00
      21    -1     0     0   511   502  0.000000000E+00  0.000000000E+00 -1.506932691E+02  1.506932691E+02  0.000000000E+00  0.00000E+00  9.000E+00
      25     1     1     2     0     0  8.656241702E+01  9.482742870E+01 -2.791959306E+01  1.813554437E+02  1.250000000E+02  0.00000E+00  9.000E+00
      25     1     1     2     0     0 -7.600455878E+01 -9.245667878E+01  1.457128190E+02  2.262347366E+02  1.250000000E+02  0.00000E+00  9.000E+00
      21     1     1     2   511   501 -1.055785824E+01 -2.370749923E+00 -7.433238191E-01  1.084626000E+01  2.289159819E-07  0.00000E+00  9.000E+00
#rwgt            1           1   4.2249469539920273E-002           7      172879           0
</event>
<event>
      5   9999  3.79277E-02  1.09962E+02 -1.00000E+00  1.22001E-01
      21    -1     0     0   502   501  0.000000000E+00  0.000000000E+00  5.902845881E+01  5.902845881E+01  0.000000000E+00  0.00000E+00  9.000E+00
      21    -1     0     0   501   512  0.000000000E+00  0.000000000E+00 -1.215047662E+03  1.215047662E+03  0.000000000E+00  0.00000E+00  9.000E+00
      25     1     1     2     0     0  8.394553638E+01 -7.711275640E+01 -5.120134991E+02  5.392365469E+02  1.250000000E+02  0.00000E+00  9.000E+00
      25     1     1     2     0     0 -5.959739313E+01  1.843450394E+02 -3.335226863E+02  4.054594001E+02  1.250000000E+02  0.00000E+00  9.000E+00
      21     1     1     2   502   512 -2.434814325E+01 -1.072322830E+02 -3.104830178E+02  3.293801738E+02  3.814697266E-06  0.00000E+00  9.000E+00
#rwgt            1           1   3.1217535416839883E-002           7      173181           0
</event>
<event>
      5   9999  3.79277E-02  1.05061E+01 -1.00000E+00  1.93311E-01
      21    -1     0     0   502   501  0.000000000E+00  0.000000000E+00  2.465782887E+02  2.465782887E+02  0.000000000E+00  0.00000E+00  9.000E+00
      21    -1     0     0   501   511  0.000000000E+00  0.000000000E+00 -3.246578874E+02  3.246578874E+02  0.000000000E+00  0.00000E+00  9.000E+00
      25     1     1     2     0     0  2.277734897E+02  9.574634436E+01 -2.880007711E+01  2.783928331E+02  1.250000000E+02  0.00000E+00  9.000E+00
      25     1     1     2     0     0 -2.217688598E+02 -8.712526796E+01 -2.980169793E+01  2.707127272E+02  1.250000000E+02  0.00000E+00  9.000E+00
      21     1     1     2   502   511 -6.004629951E+00 -8.621076407E+00 -1.947782364E+01  2.213061574E+01  2.384185791E-07  0.00000E+00  9.000E+00
#rwgt            1           1  0.15192703102810387                7      173241           0
</event>
<event>
      5   9999  3.79277E-02  8.93383E+00 -1.00000E+00  2.01593E-01
      21    -1     0     0   502   512  0.000000000E+00  0.000000000E+00  9.103329861E+02  9.103329861E+02  0.000000000E+00  0.00000E+00  9.000E+00
      21    -1     0     0   501   502  0.000000000E+00  0.000000000E+00 -1.608069174E+02  1.608069174E+02  0.000000000E+00  0.00000E+00  9.000E+00
      25     1     1     2     0     0 -4.485313947E+01 -3.225015280E+02  3.194401826E+02  4.729546172E+02  1.250000000E+02  0.00000E+00  9.000E+00
      25     1     1     2     0     0  4.934844058E+01  3.302219906E+02  2.948321500E+02  4.626368212E+02  1.250000000E+02  0.00000E+00  9.000E+00
      21     1     1     2   501   512 -4.495301103E+00 -7.720462579E+00  1.352537361E+02  1.355484651E+02  2.697398305E-06  0.00000E+00  9.000E+00
#rwgt            1           1   2.9481556861450531E-002           7      173488           0
</event>
<event>
      5   9999  3.79277E-02  6.06063E+01 -1.00000E+00  1.34470E-01
      -1    -1     0     0     0   501  0.000000000E+00  0.000000000E+00  9.939509342E+02  9.939509342E+02  0.000000000E+00  0.00000E+00  9.000E+00
      21    -1     0     0   501   502  0.000000000E+00  0.000000000E+00 -2.122658520E+02  2.122658520E+02  0.000000000E+00  0.00000E+00  9.000E+00
      25     1     1     2     0     0  8.020025572E+01  1.976026196E+02  1.593628477E+02  2.941094924E+02  1.250000000E+02  0.00000E+00  9.000E+00
      25     1     1     2     0     0 -6.598053750E+01 -1.386881036E+02 -7.530113466E+01  2.118562775E+02  1.250000000E+02  0.00000E+00  9.000E+00
      -1     1     1     2     0   502 -1.421971822E+01 -5.891451596E+01  6.976233692E+02  7.002510163E+02  1.078959322E-05  0.00000E+00  9.000E+00
#rwgt            1           1   3.3376464504125354E-002           7      173865           0
</event>
<event>
      5   9999  3.79277E-02  1.04724E+01 -1.00000E+00  1.93468E-01
      21    -1     0     0   511   501  0.000000000E+00  0.000000000E+00  3.883051801E+02  3.883051801E+02  0.000000000E+00  0.00000E+00  9.000E+00
      21    -1     0     0   501   502  0.000000000E+00  0.000000000E+00 -3.780718013E+02  3.780718013E+02  0.000000000E+00  0.00000E+00  9.000E+00
      25     1     1     2     0     0  1.242995346E+02  1.719257960E+02 -1.467101403E+02  2.866316781E+02  1.250000000E+02  0.00000E+00  9.000E+00
      25     1     1     2     0     0 -1.213496829E+02 -1.618774879E+02 -7.361717968E+01  2.489468935E+02  1.250000000E+02  0.00000E+00  9.000E+00
      21     1     1     2   511   502 -2.949851692E+00 -1.004830810E+01  2.305606988E+02  2.307984097E+02  0.000000000E+00  0.00000E+00  9.000E+00
#rwgt            1           1   4.2392274696418375E-002           7      173987           0
</event>
<event>
      5   9999  3.79277E-02  4.24781E+01 -1.00000E+00  1.43240E-01
      21    -1     0     0   502   501  0.000000000E+00  0.000000000E+00  1.393810147E+03  1.393810147E+03  0.000000000E+00  0.00000E+00  9.000E+00
      21    -1     0     0   501   512  0.000000000E+00  0.000000000E+00 -5.019142048E+01  5.019142048E+01  0.000000000E+00  0.00000E+00  9.000E+00
      25     1     1     2     0     0  7.879566013E+00  1.079414015E+02  8.302996525E+02  8.466025907E+02  1.250000000E+02  0.00000E+00  9.000E+00
      25     1     1     2     0     0  1.913194463E+01 -1.407250237E+02  5.209496131E+02  5.542409792E+02  1.250000000E+02  0.00000E+00  9.000E+00
      21     1     1     2   502   512 -2.701151065E+01  3.278362214E+01 -7.630539480E+00  4.315799718E+01  1.794089907E-06  0.00000E+00  9.000E+00
#rwgt            1           1   5.7664537232772151E-002           7      174270           0
</event>
<event>
      5   9999  3.79277E-02  5.08868E+01 -1.00000E+00  1.38641E-01
       2    -1     0     0   502     0  0.000000000E+00  0.000000000E+00  8.109240855E+02  8.109240855E+02  0.000000000E+00  0.00000E+00  9.000E+00
      21    -1     0     0   501   502  0.000000000E+00  0.000000000E+00 -9.349739192E+01  9.349739192E+01  0.000000000E+00  0.00000E+00  9.000E+00
      25     1     1     2     0     0 -1.728424367E+02  7.357486535E+01  5.114681099E+02  5.590280818E+02  1.250000000E+02  0.00000E+00  9.000E+00
      25     1     1     2     0     0  1.260848521E+02 -5.349510146E+01  2.245505774E+02  2.912165476E+02  1.250000000E+02  0.00000E+00  9.000E+00
       2     1     1     2   501     0  4.675758464E+01 -2.007976389E+01 -1.859199367E+01  5.417684808E+01  1.599360450E-06  0.00000E+00  9.000E+00
#rwgt            1           1   4.5786150918090934E-002           7      174401           0
</event>
<event>
      5   9999  3.79277E-02  9.91347E+01 -1.00000E+00  1.23998E-01
      -1    -1     0     0     0   501  0.000000000E+00  0.000000000E+00  3.677255537E+02  3.677255537E+02  0.000000000E+00  0.00000E+00  9.000E+00
      21    -1     0     0   501   502  0.000000000E+00  0.000000000E+00 -2.277402823E+02  2.277402823E+02  0.000000000E+00  0.00000E+00  9.000E+00
      25     1     1     2     0     0  1.444338523E+01  1.298481533E+02 -5.610043350E+00  1.809022578E+02  1.250000000E+02  0.00000E+00  9.000E+00
      25     1     1     2     0     0  8.107387499E+01 -1.033123845E+02 -5.613053435E+01  1.897947810E+02  1.250000000E+02  0.00000E+00  9.000E+00
      -1     1     1     2     0   502 -9.551726021E+01 -2.653576884E+01  2.017258491E+02  2.247687973E+02  0.000000000E+00  0.00000E+00  9.000E+00
#rwgt            1           1  0.10360456247399014                7      174638           0
</event>
<event>
      5   9999  3.79277E-02  1.92356E+01 -1.00000E+00  1.67778E-01
      21    -1     0     0   502   501  0.000000000E+00  0.000000000E+00  3.101134527E+02  3.101134527E+02  0.000000000E+00  0.00000E+00  9.000E+00
       2    -1     0     0   501     0  0.000000000E+00  0.000000000E+00 -1.659684872E+03  1.659684872E+03  0.000000000E+00  0.00000E+00  9.000E+00
      25     1     1     2     0     0  3.686790431E+01  1.100633891E+02  4.458541760E+01  1.763123690E+02  1.250000000E+02  0.00000E+00  9.000E+00
      25     1     1     2     0     0 -5.125975133E+01 -9.730082567E+01  1.648866837E+02  2.343237744E+02  1.250000000E+02  0.00000E+00  9.000E+00
       2     1     1     2   502     0  1.439184702E+01 -1.276256346E+01 -1.559043521E+03  1.559162181E+03  0.000000000E+00  0.00000E+00  9.000E+00
#rwgt            1           1   4.4186139934068024E-002           7      174781           0
</event>
<event>
      5   9999  3.79277E-02  2.75404E+01 -1.00000E+00  1.55666E-01
      21    -1     0     0   502   501  0.000000000E+00  0.000000000E+00  1.701645270E+02  1.701645270E+02  0.000000000E+00  0.00000E+00  9.000E+00
      21    -1     0     0   501   511  0.000000000E+00  0.000000000E+00 -5.437165712E+02  5.437165712E+02  0.000000000E+00  0.00000E+00  9.000E+00
      25     1     1     2     0     0  1.639883273E+02 -1.486741338E+02 -3.858532124E+01  2.571186429E+02  1.250000000E+02  0.00000E+00  9.000E+00
      25     1     1     2     0     0 -1.850549951E+02  1.664130409E+02 -2.780984047E+02  3.935763892E+02  1.250000000E+02  0.00000E+00  9.000E+00
      21     1     1     2   502   511  2.106666780E+01 -1.773890716E+01 -5.686831823E+01  6.318606601E+01  6.743495762E-07  0.00000E+00  9.000E+00
#rwgt            1           1   1.7797907351230133E-002           7      175005           0
</event>
<event>
      5   9999  3.79277E-02  5.06943E+01 -1.00000E+00  1.38735E-01
      21    -1     0     0   502   501  0.000000000E+00  0.000000000E+00  9.179706860E+02  9.179706860E+02  0.000000000E+00  0.00000E+00  9.000E+00
      21    -1     0     0   512   502  0.000000000E+00  0.000000000E+00 -6.069646078E+01  6.069646078E+01  0.000000000E+00  0.00000E+00  9.000E+00
      25     1     1     2     0     0 -1.230043122E+02 -6.565371198E+01  5.587516783E+02  5.892952644E+02  1.250000000E+02  0.00000E+00  9.000E+00
      25     1     1     2     0     0  7.540185122E+01  4.822039722E+01  3.016637114E+02  3.385803312E+02  1.250000000E+02  0.00000E+00  9.000E+00
      21     1     1     2   512   501  4.760246099E+01  1.743331476E+01 -3.141164469E+00  5.079155117E+01  1.476944887E-06  0.00000E+00  9.000E+00
#rwgt            1           1   3.9170736822919605E-002           7      175294           0
</event>
<event>
      5   9999  3.79277E-02  8.00644E+01 -1.00000E+00  1.28333E-01
      21    -1     0     0   502   511  0.000000000E+00  0.000000000E+00  1.221248720E+03  1.221248720E+03  0.000000000E+00  0.00000E+00  9.000E+00
      21    -1     0     0   501   502  0.000000000E+00  0.000000000E+00 -1.304695715E+02  1.304695715E+02  0.000000000E+00  0.00000E+00  9.000E+00
      25     1     1     2     0     0 -2.384413261E+02 -3.638128405E+01  3.058077841E+02  4.090492203E+02  1.250000000E+02  0.00000E+00  9.000E+00
      25     1     1     2     0     0  1.726973659E+02 -9.313832457E+00  7.199257529E+01  2.252089221E+02  1.250000000E+02  0.00000E+00  9.000E+00
      21     1     1     2   501   511  6.574396015E+01  4.569511651E+01  7.129787891E+02  7.174601492E+02  0.000000000E+00  0.00000E+00  9.000E+00
#rwgt            1           1   4.1917934339428226E-002           7      175380           0
</event>
<event>
      5   9999 -3.79277E-02  1.65477E+02 -1.00000E+00  1.14728E-01
      21    -1     0     0   502   501  0.000000000E+00  0.000000000E+00  1.514108593E+03  1.514108593E+03  0.000000000E+00  0.00000E+00  9.000E+00
      21    -1     0     0   512   502  0.000000000E+00  0.000000000E+00 -3.761837151E+02  3.761837151E+02  0.000000000E+00  0.00000E+00  9.000E+00
      25     1     1     2     0     0 -3.333731897E+02  1.194975683E+02  6.188641974E+02  7.239027885E+02  1.250000000E+02  0.00000E+00  9.000E+00
      25     1     1     2     0     0  3.834874157E+02  3.820810279E+01  7.675072661E+02  8.678795197E+02  1.250000000E+02  0.00000E+00  9.000E+00
      21     1     1     2   512   501 -5.011422607E+01 -1.577056711E+02 -2.484465854E+02  2.985100001E+02  9.344061824E-06  0.00000E+00  9.000E+00
#rwgt            1           1  -8.5733851971393799E-002           7      175519           0
</event>
<event>
      5   9999  3.79277E-02  2.53402E+01 -1.00000E+00  1.58312E-01
      21    -1     0     0   511   501  0.000000000E+00  0.000000000E+00  6.913425968E+02  6.913425968E+02  0.000000000E+00  0.00000E+00  9.000E+00
      21    -1     0     0   501   502  0.000000000E+00  0.000000000E+00 -7.449348746E+01  7.449348746E+01  0.000000000E+00  0.00000E+00  9.000E+00
      25     1     1     2     0     0  1.344677301E+02  9.969387130E+00  1.016234905E+02  2.100792540E+02  1.250000000E+02  0.00000E+00  9.000E+00
      25     1     1     2     0     0 -1.281993365E+02  1.458329163E+01  4.787266190E+02  5.113236920E+02  1.250000000E+02  0.00000E+00  9.000E+00
      21     1     1     2   511   502 -6.268393613E+00 -2.455267876E+01  3.649899980E+01  4.443313830E+01  4.768371582E-07  0.00000E+00  9.000E+00
#rwgt            1           1   4.0478750490886076E-002           7      175602           0
</event>
<event>
      5   9999  3.79277E-02  1.89666E+01 -1.00000E+00  1.68293E-01
      21    -1     0     0   512   501  0.000000000E+00  0.000000000E+00  1.875464542E+02  1.875464542E+02  0.000000000E+00  0.00000E+00  9.000E+00
      21    -1     0     0   501   502  0.000000000E+00  0.000000000E+00 -4.667076967E+02  4.667076967E+02  0.000000000E+00  0.00000E+00  9.000E+00
      25     1     1     2     0     0 -1.034153818E+02 -1.570839198E+01 -3.370977434E+02  3.744347518E+02  1.250000000E+02  0.00000E+00  9.000E+00
      25     1     1     2     0     0  9.034922337E+01  1.960435071E+00 -5.616416800E+01  1.641530969E+02  1.250000000E+02  0.00000E+00  9.000E+00
      21     1     1     2   512   502  1.306615839E+01  1.374795691E+01  1.141006689E+02  1.156663021E+02  1.907348633E-06  0.00000E+00  9.000E+00
#rwgt            1           1   4.1573555614769782E-002           7      175798           0
</event>
<event>
      5   9999  3.79277E-02  2.90175E+01 -1.00000E+00  1.54051E-01
      21    -1     0     0   502   501  0.000000000E+00  0.000000000E+00  4.538735901E+01  4.538735901E+01  0.000000000E+00  0.00000E+00  9.000E+00
      21    -1     0     0   501   511  0.000000000E+00  0.000000000E+00 -7.669974322E+02  7.669974322E+02  0.000000000E+00  0.00000E+00  9.000E+00
      25     1     1     2     0     0  7.965812780E+00 -1.396131729E+01 -5.540106685E+02  5.681647590E+02  1.250000000E+02  0.00000E+00  9.000E+00
      25     1     1     2     0     0 -3.409768008E+01  1.346180303E+00 -8.080943956E+01  1.527076603E+02  1.250000000E+02  0.00000E+00  9.000E+00
      21     1     1     2   502   511  2.613186730E+01  1.261513699E+01 -8.678996512E+01  9.151237192E+01  9.536743164E-07  0.00000E+00  9.000E+00
#rwgt            1           1   5.4743013666125856E-002           7      176140           0
</event>
<event>
      5   9999  3.79277E-02  1.02154E+02 -1.00000E+00  1.23413E-01
      21    -1     0     0   502   512  0.000000000E+00  0.000000000E+00  2.268615295E+02  2.268615295E+02  0.000000000E+00  0.00000E+00  9.000E+00
      21    -1     0     0   501   502  0.000000000E+00  0.000000000E+00 -3.166968164E+02  3.166968164E+02  0.000000000E+00  0.00000E+00  9.000E+00
      25     1     1     2     0     0 -9.864826910E+00  9.680483881E+01 -1.455584130E+02  2.151295964E+02  1.250000000E+02  0.00000E+00  9.000E+00
      25     1     1     2     0     0 -8.792421552E+01 -1.263470089E+02 -2.277977680E+01  1.995949713E+02  1.250000000E+02  0.00000E+00  9.000E+00
      21     1     1     2   501   512  9.778904243E+01  2.954217010E+01  7.850290291E+01  1.288337782E+02  1.907348633E-06  0.00000E+00  9.000E+00
#rwgt            1           1   6.0959788853109459E-002           7      176280           0
</event>
<event>
      5   9999  3.79277E-02  1.53700E+01 -1.00000E+00  1.76392E-01
      21    -1     0     0   502   511  0.000000000E+00  0.000000000E+00  1.983823170E+02  1.983823170E+02  0.000000000E+00  0.00000E+00  9.000E+00
      21    -1     0     0   501   502  0.000000000E+00  0.000000000E+00 -3.475809234E+02  3.475809234E+02  0.000000000E+00  0.00000E+00  9.000E+00
      25     1     1     2     0     0  1.512203231E+02 -1.272892175E+02 -1.447905162E+01  2.343176774E+02  1.250000000E+02  0.00000E+00  9.000E+00
      25     1     1     2     0     0 -1.361105053E+02  1.244730646E+02 -1.652915983E+02  2.774273345E+02  1.250000000E+02  0.00000E+00  9.000E+00
      21     1     1     2   501   511 -1.510981781E+01  2.816152853E+00  3.057204362E+01  3.421822851E+01  0.000000000E+00  0.00000E+00  9.000E+00
#rwgt            1           1   3.8486703313387528E-002           7      176549           0
</event>
<event>
      5   9999  3.79277E-02  2.82706E+01 -1.00000E+00  1.54853E-01
      21    -1     0     0   502   501  0.000000000E+00  0.000000000E+00  2.795182692E+03  2.795182692E+03  0.000000000E+00  0.00000E+00  9.000E+00
      21    -1     0     0   501   512  0.000000000E+00  0.000000000E+00 -1.979003892E+01  1.979003892E+01  0.000000000E+00  0.00000E+00  9.000E+00
      25     1     1     2     0     0 -2.937198429E+01  1.163938306E+02  1.075169534E+03  1.089047641E+03  1.250000000E+02  0.00000E+00  9.000E+00
      25     1     1     2     0     0  2.472250274E+01 -8.850820389E+01  1.688017569E+03  1.695132212E+03  1.250000000E+02  0.00000E+00  9.000E+00
      21     1     1     2   502   512  4.649481552E+00 -2.788562670E+01  1.220554996E+01  3.079287751E+01  1.914784718E-06  0.00000E+00  9.000E+00
#rwgt            1           1   3.8782464811264225E-002           7      176771           0
</event>
<event>
      5   9999  3.79277E-02  2.64521E+01 -1.00000E+00  1.56936E-01
      21    -1     0     0   502   501  0.000000000E+00  0.000000000E+00  1.295761270E+03  1.295761270E+03  0.000000000E+00  0.00000E+00  9.000E+00
       2    -1     0     0   501     0  0.000000000E+00  0.000000000E+00 -8.746484181E+02  8.746484181E+02  0.000000000E+00  0.00000E+00  9.000E+00
      25     1     1     2     0     0 -2.636369731E+02 -1.208356848E+02  7.131905696E+02  7.799817337E+02  1.250000000E+02  0.00000E+00  9.000E+00
      25     1     1     2     0     0  2.651712177E+02  9.442811032E+01  5.057568992E+02  5.921549491E+02  1.250000000E+02  0.00000E+00  9.000E+00
       2     1     1     2   502     0 -1.534244571E+00  2.640757451E+01 -7.978346173E+02  7.982730049E+02  1.078959322E-05  0.00000E+00  9.000E+00
#rwgt            1           1   3.9110620588028729E-002           7      177003           0
</event>
<event>
      5   9999  3.79277E-02  1.43635E+02 -1.00000E+00  1.17145E-01
      21    -1     0     0   511   501  0.000000000E+00  0.000000000E+00  1.535440528E+02  1.535440528E+02  0.000000000E+00  0.00000E+00  9.000E+00
      21    -1     0     0   501   502  0.000000000E+00  0.000000000E+00 -1.053210593E+03  1.053210593E+03  0.000000000E+00  0.00000E+00  9.000E+00
      25     1     1     2     0     0  9.583004548E+01  1.466716196E+02 -4.261771676E+02  4.774389383E+02  1.250000000E+02  0.00000E+00  9.000E+00
      25     1     1     2     0     0 -9.926647485E+01 -2.902653412E+02 -4.826466483E+02  5.853892623E+02  1.250000000E+02  0.00000E+00  9.000E+00
      21     1     1     2   511   502  3.436429371E+00  1.435937215E+02  9.157275703E+00  1.439264451E+02  4.493731695E-06  0.00000E+00  9.000E+00
#rwgt            1           1   4.6754499803203259E-002           7      177162           0
</event>
<event>
      5   9999  3.79277E-02  2.02048E+01 -1.00000E+00  1.66005E-01
      21    -1     0     0   512   501  0.000000000E+00  0.000000000E+00  2.065581950E+02  2.065581950E+02  0.000000000E+00  0.00000E+00  9.000E+00
      21    -1     0     0   501   502  0.000000000E+00  0.000000000E+00 -3.247987273E+02  3.247987273E+02  0.000000000E+00  0.00000E+00  9.000E+00
      25     1     1     2     0     0 -6.872041558E+01  3.757992974E+01 -2.332870040E+02  2.760119072E+02  1.250000000E+02  0.00000E+00  9.000E+00
      25     1     1     2     0     0  7.337516714E+01 -5.724122297E+01  1.876185630E+01  1.569633078E+02  1.250000000E+02  0.00000E+00  9.000E+00
      21     1     1     2   512   502 -4.654751560E+00  1.966129322E+01  9.628461539E+01  9.838170726E+01  1.348699152E-06  0.00000E+00  9.000E+00
#rwgt            1           1   3.3393080664972520E-002           7      177335           0
</event>
<event>
      5   9999  3.79277E-02  1.09602E+02 -1.00000E+00  1.22063E-01
      21    -1     0     0   502   501  0.000000000E+00  0.000000000E+00  7.692820832E+02  7.692820832E+02  0.000000000E+00  0.00000E+00  9.000E+00
      21    -1     0     0   501   511  0.000000000E+00  0.000000000E+00 -1.333004721E+02  1.333004721E+02  0.000000000E+00  0.00000E+00  9.000E+00
      25     1     1     2     0     0 -9.610795188E+00  2.537195129E+02  3.969765167E+02  4.875257054E+02  1.250000000E+02  0.00000E+00  9.000E+00
      25     1     1     2     0     0  4.508201696E+01 -1.500163115E+02  2.300365793E+02  3.050886917E+02  1.250000000E+02  0.00000E+00  9.000E+00
      21     1     1     2   502   511 -3.547122177E+01 -1.037032014E+02  8.968515080E+00  1.099681582E+02  1.032382731E-06  0.00000E+00  9.000E+00
#rwgt            1           1   3.1001049320834761E-002           7      177544           0
</event>
<event>
      5   9999  3.79277E-02  1.88887E+01 -1.00000E+00  1.68444E-01
      21    -1     0     0   502   501  0.000000000E+00  0.000000000E+00  7.172121945E+02  7.172121945E+02  0.000000000E+00  0.00000E+00  9.000E+00
      21    -1     0     0   512   502  0.000000000E+00  0.000000000E+00 -7.538693036E+01  7.538693036E+01  0.000000000E+00  0.00000E+00  9.000E+00
      25     1     1     2     0     0 -6.623747608E+01  2.778508206E+00  5.846097989E+02  6.014887699E+02  1.250000000E+02  0.00000E+00  9.000E+00
      25     1     1     2     0     0  7.041719998E+01 -2.119893264E+01  7.662619684E+01  1.640260676E+02  1.250000000E+02  0.00000E+00  9.000E+00
      21     1     1     2   512   501 -4.179723901E+00  1.842042444E+01 -1.941073153E+01  2.708428745E+01  4.768371582E-07  0.00000E+00  9.000E+00
#rwgt            1           1   3.9463097389984686E-002           7      177627           0
</event>
<event>
      5   9999  3.79277E-02  1.68857E+02 -1.00000E+00  1.14391E-01
      21    -1     0     0   502   501  0.000000000E+00  0.000000000E+00  5.574869090E+02  5.574869090E+02  0.000000000E+00  0.00000E+00  9.000E+00
      21    -1     0     0   501   511  0.000000000E+00  0.000000000E+00 -1.887945302E+02  1.887945302E+02  0.000000000E+00  0.00000E+00  9.000E+00
      25     1     1     2     0     0  2.221031764E+02  2.971263737E+01  1.265452308E+02  2.860967620E+02  1.250000000E+02  0.00000E+00  9.000E+00
      25     1     1     2     0     0 -5.445930021E+01 -4.991594167E+01  2.522195161E+02  2.910276635E+02  1.250000000E+02  0.00000E+00  9.000E+00
      21     1     1     2   502   511 -1.676438762E+02  2.020330430E+01 -1.007236808E+01  1.691570138E+02  3.554356460E-06  0.00000E+00  9.000E+00
#rwgt            2          11   1.9722188314052337E-003           7      177795           0
</event>
<event>
      5   9999  3.79277E-02  2.94820E+01 -1.00000E+00  1.53567E-01
      21    -1     0     0   502   512  0.000000000E+00  0.000000000E+00  2.108379208E+02  2.108379208E+02  0.000000000E+00  0.00000E+00  9.000E+00
      21    -1     0     0   501   502  0.000000000E+00  0.000000000E+00 -7.553321219E+02  7.553321219E+02  0.000000000E+00  0.00000E+00  9.000E+00
      25     1     1     2     0     0  1.431536400E+02  6.163944274E+01  1.220099935E+02  2.341021659E+02  1.250000000E+02  0.00000E+00  9.000E+00
      25     1     1     2     0     0 -1.140616318E+02 -6.641886451E+01 -6.768394672E+02  7.008267873E+02  1.250000000E+02  0.00000E+00  9.000E+00
      21     1     1     2   501   512 -2.909200823E+01  4.779421765E+00  1.033527259E+01  3.124108953E+01  4.129530925E-07  0.00000E+00  9.000E+00
#rwgt            1           1   3.8755172046469923E-002           7      177965           0
</event>
<event>
      5   9999  3.79277E-02  3.45388E+01 -1.00000E+00  1.48908E-01
      21    -1     0     0   511   501  0.000000000E+00  0.000000000E+00  5.440838424E+02  5.440838424E+02  0.000000000E+00  0.00000E+00  9.000E+00
      21    -1     0     0   501   502  0.000000000E+00  0.000000000E+00 -1.444487060E+02  1.444487060E+02  0.000000000E+00  0.00000E+00  9.000E+00
      25     1     1     2     0     0  2.368570744E+01  7.056047838E+01 -4.117805187E+01  1.511966461E+02  1.250000000E+02  0.00000E+00  9.000E+00
      25     1     1     2     0     0 -3.394033344E+01 -3.757912195E+01  4.822273958E+01  1.432290796E+02  1.250000000E+02  0.00000E+00  9.000E+00
      21     1     1     2   511   502  1.025462601E+01 -3.298135642E+01  3.925904487E+02  3.941068226E+02  7.629394531E-06  0.00000E+00  9.000E+00
#rwgt            1           1   7.5677986293013158E-002           7      178180           0
</event>
<event>
      5   9999  3.79277E-02  1.71620E+02 -1.00000E+00  1.14122E-01
      21    -1     0     0   512   501  0.000000000E+00  0.000000000E+00  2.523676703E+02  2.523676703E+02  0.000000000E+00  0.00000E+00  9.000E+00
      21    -1     0     0   501   502  0.000000000E+00  0.000000000E+00 -3.501223183E+02  3.501223183E+02  0.000000000E+00  0.00000E+00  9.000E+00
      25     1     1     2     0     0  1.960144131E+02 -5.670708201E+01 -1.314423895E+02  2.730191295E+02  1.250000000E+02  0.00000E+00  9.000E+00
      25     1     1     2     0     0 -2.753490681E+01  8.939060369E+01  1.541421283E+01  1.568803655E+02  1.250000000E+02  0.00000E+00  9.000E+00
      21     1     1     2   512   502 -1.684795063E+02 -3.268352168E+01  1.827352872E+01  1.725904936E+02  2.810913592E-06  0.00000E+00  9.000E+00
#rwgt            1           1   5.0671350484744547E-002           7      178320           0
</event>
<event>
      5   9999  3.79277E-02  3.27123E+01 -1.00000E+00  1.50474E-01
      21    -1     0     0   502   511  0.000000000E+00  0.000000000E+00  8.693651426E+02  8.693651426E+02  0.000000000E+00  0.00000E+00  9.000E+00
      21    -1     0     0   501   502  0.000000000E+00  0.000000000E+00 -2.082759130E+02  2.082759130E+02  0.000000000E+00  0.00000E+00  9.000E+00
      25     1     1     2     0     0 -1.313295767E+02  2.859582079E+02  4.153095557E+02  5.358419370E+02  1.250000000E+02  0.00000E+00  9.000E+00
      25     1     1     2     0     0  1.543903709E+02 -3.091593167E+02  8.428015279E+01  3.770199118E+02  1.250000000E+02  0.00000E+00  9.000E+00
      21     1     1     2   501   511 -2.306079421E+01  2.320110882E+01  1.614995211E+02  1.647792068E+02  1.907348633E-06  0.00000E+00  9.000E+00
#rwgt            1           1   3.0704721960258353E-002           7      178425           0
</event>
<event>
      5   9999  3.79277E-02  1.49994E+01 -1.00000E+00  1.77385E-01
      21    -1     0     0   502   501  0.000000000E+00  0.000000000E+00  2.282998430E+02  2.282998430E+02  0.000000000E+00  0.00000E+00  9.000E+00
      21    -1     0     0   512   502  0.000000000E+00  0.000000000E+00 -1.654017928E+02  1.654017928E+02  0.000000000E+00  0.00000E+00  9.000E+00
      25     1     1     2     0     0 -2.580366712E+01  1.289872145E+02  4.736190369E+01  1.875411439E+02  1.250000000E+02  0.00000E+00  9.000E+00
      25     1     1     2     0     0  1.931690926E+01 -1.425114320E+02  1.530425899E+01  1.911592833E+02  1.250000000E+02  0.00000E+00  9.000E+00
      21     1     1     2   512   501  6.486757859E+00  1.352421752E+01  2.318874539E-01  1.500120858E+01  1.395368636E-07  0.00000E+00  9.000E+00
#rwgt            1           1   4.2792482072544748E-002           7      178572           0
</event>
<event>
      5   9999  3.79277E-02  2.44693E+01 -1.00000E+00  1.59452E-01
      21    -1     0     0   502   501  0.000000000E+00  0.000000000E+00  9.536032773E+02  9.536032773E+02  0.000000000E+00  0.00000E+00  9.000E+00
      21    -1     0     0   501   511  0.000000000E+00  0.000000000E+00 -2.090355057E+02  2.090355057E+02  0.000000000E+00  0.00000E+00  9.000E+00
      25     1     1     2     0     0 -4.489538804E+01 -1.725340652E+01  1.277790696E+01  1.345420039E+02  1.250000000E+02  0.00000E+00  9.000E+00
      25     1     1     2     0     0  4.420037936E+01  4.171288364E+01  8.733988949E+02  8.843892061E+02  1.250000000E+02  0.00000E+00  9.000E+00
      21     1     1     2   502   511  6.950086827E-01 -2.445947712E+01 -1.416090304E+02  1.437075730E+02  3.303624740E-06  0.00000E+00  9.000E+00
#rwgt            1           1   3.5934084132007778E-002           7      178740           0
</event>
<event>
      5   9999  3.79277E-02  3.69854E+01 -1.00000E+00  1.46983E-01
       2    -1     0     0   502     0  0.000000000E+00  0.000000000E+00  2.524015490E+03  2.524015490E+03  0.000000000E+00  0.00000E+00  9.000E+00
      21    -1     0     0   501   502  0.000000000E+00  0.000000000E+00 -4.449355033E+01  4.449355033E+01  0.000000000E+00  0.00000E+00  9.000E+00
      25     1     1     2     0     0  6.804120526E+01  1.899157268E+02  3.533171398E+02  4.256237660E+02  1.250000000E+02  0.00000E+00  9.000E+00
      25     1     1     2     0     0 -3.330251739E+01 -1.772214568E+02  1.978133992E+03  1.990265207E+03  1.250000000E+02  0.00000E+00  9.000E+00
       2     1     1     2   501     0 -3.473868787E+01 -1.269426995E+01  1.480708073E+02  1.526200671E+02  2.697398305E-06  0.00000E+00  9.000E+00
#rwgt            1           1   9.0731888345223027E-002           7      179001           0
</event>
<event>
      5   9999  3.79277E-02  1.03707E+02 -1.00000E+00  1.23121E-01
      21    -1     0     0   502   501  0.000000000E+00  0.000000000E+00  2.451783309E+01  2.451783309E+01  0.000000000E+00  0.00000E+00  9.000E+00
       2    -1     0     0   501     0  0.000000000E+00  0.000000000E+00 -2.895958095E+03  2.895958095E+03  0.000000000E+00  0.00000E+00  9.000E+00
      25     1     1     2     0     0  3.810144841E+01  4.607954241E+01 -1.317863019E+03  1.325127534E+03  1.250000000E+02  0.00000E+00  9.000E+00
      25     1     1     2     0     0 -4.924905004E+01  5.702675876E+01 -2.644263107E+02  3.020327697E+02  1.250000000E+02  0.00000E+00  9.000E+00
       2     1     1     2   502     0  1.114760162E+01 -1.031063012E+02 -1.289150932E+03  1.293315624E+03  2.157918644E-05  0.00000E+00  9.000E+00
#rwgt            1           1   4.4188740833476507E-002           7      179131           0
</event>
<event>
      5   9999  3.79277E-02  6.09132E+00 -1.00000E+00  2.24458E-01
      21    -1     0     0   511   501  0.000000000E+00  0.000000000E+00  7.620607225E+02  7.620607225E+02  0.000000000E+00  0.00000E+00  9.000E+00
      21    -1     0     0   501   502  0.000000000E+00  0.000000000E+00 -6.639439402E+02  6.639439402E+02  0.000000000E+00  0.00000E+00  9.000E+00
      25     1     1     2     0     0 -2.989447857E+02  1.136540468E+02 -5.084564735E+02  6.135456077E+02  1.250000000E+02  0.00000E+00  9.000E+00
      25     1     1     2     0     0  3.042053897E+02 -1.167249190E+02  1.929162468E+02  3.987571995E+02  1.250000000E+02  0.00000E+00  9.000E+00
      21     1     1     2   511   502 -5.260604059E+00  3.070872183E+00  4.136570090E+02  4.137018555E+02  0.000000000E+00  0.00000E+00  9.000E+00
#rwgt            1           1  0.10905374672719191                7      179249           0
</event>
<event>
      5   9999  3.79277E-02  1.02741E+02 -1.00000E+00  1.23302E-01
      21    -1     0     0   502   512  0.000000000E+00  0.000000000E+00  5.637631632E+02  5.637631632E+02  0.000000000E+00  0.00000E+00  9.000E+00
      21    -1     0     0   501   502  0.000000000E+00  0.000000000E+00 -6.913629629E+02  6.913629629E+02  0.000000000E+00  0.00000E+00  9.000E+00
      25     1     1     2     0     0 -1.864560113E+02 -2.973197992E+02  3.676894226E+02  5.234361648E+02  1.250000000E+02  0.00000E+00  9.000E+00
      25     1     1     2     0     0  1.449411919E+02  2.033402889E+02 -5.488652959E+02  6.158192391E+02  1.250000000E+02  0.00000E+00  9.000E+00
      21     1     1     2   501   512  4.151481947E+01  9.397951032E+01  5.357607365E+01  1.158707222E+02  1.651812370E-06  0.00000E+00  9.000E+00
#rwgt            1           1   3.7481276871468377E-002           7      179817           0
</event>
<event>
      5   9999  3.79277E-02  2.01476E+01 -1.00000E+00  1.66106E-01
      21    -1     0     0   511   501  0.000000000E+00  0.000000000E+00  1.049159706E+02  1.049159706E+02  0.000000000E+00  0.00000E+00  9.000E+00
      21    -1     0     0   501   502  0.000000000E+00  0.000000000E+00 -5.007605664E+02  5.007605664E+02  0.000000000E+00  0.00000E+00  9.000E+00
      25     1     1     2     0     0  6.303390012E+01  1.713132825E+02 -2.618052304E+02  3.427659435E+02  1.250000000E+02  0.00000E+00  9.000E+00
      25     1     1     2     0     0 -5.545522798E+01 -1.526454223E+02 -1.289356163E+02  2.421266206E+02  1.250000000E+02  0.00000E+00  9.000E+00
      21     1     1     2   511   502 -7.578672144E+00 -1.866786029E+01 -5.103749105E+00  2.078397301E+01  1.884864366E-07  0.00000E+00  9.000E+00
#rwgt            1           1   3.1437796170769035E-002           7      179972           0
</event>
<event>
      5   9999  3.79277E-02  1.42696E+01 -1.00000E+00  1.79451E-01
      21    -1     0     0   502   501  0.000000000E+00  0.000000000E+00  7.640713789E+01  7.640713789E+01  0.000000000E+00  0.00000E+00  9.000E+00
       1    -1     0     0   501     0  0.000000000E+00  0.000000000E+00 -1.823651182E+03  1.823651182E+03  0.000000000E+00  0.00000E+00  9.000E+00
      25     1     1     2     0     0  8.526914299E+01 -2.294522393E+02 -4.013720026E+02  4.864603184E+02  1.250000000E+02  0.00000E+00  9.000E+00
      25     1     1     2     0     0 -9.940613725E+01  2.275114048E+02 -5.377090923E+02  6.053090842E+02  1.250000000E+02  0.00000E+00  9.000E+00
       1     1     1     2   502     0  1.413699426E+01  1.940834591E+00 -8.081629495E+02  8.082889177E+02  1.078959322E-05  0.00000E+00  9.000E+00
#rwgt            1           1   3.7857697781433837E-002           7      180116           0
</event>
<event>
      5   9999  3.79277E-02  1.28392E+02 -1.00000E+00  1.19135E-01
      21    -1     0     0   502   501  0.000000000E+00  0.000000000E+00  1.891653580E+02  1.891653580E+02  0.000000000E+00  0.00000E+00  9.000E+00
      21    -1     0     0   511   502  0.000000000E+00  0.000000000E+00 -6.656575461E+02  6.656575461E+02  0.000000000E+00  0.00000E+00  9.000E+00
      25     1     1     2     0     0 -2.010981584E+02  1.278594581E+02 -9.327025241E+01  2.848031782E+02  1.250000000E+02  0.00000E+00  9.000E+00
      25     1     1     2     0     0  2.347360976E+02 -3.952516722E+00 -1.541349273E+02  3.074072766E+02  1.250000000E+02  0.00000E+00  9.000E+00
      21     1     1     2   511   501 -3.363793917E+01 -1.239069414E+02 -2.290870084E+02  2.626124493E+02  2.697398305E-06  0.00000E+00  9.000E+00
#rwgt            1           1   3.6189481492689239E-002           7      180330           0
</event>
<event>
      5   9999  3.79277E-02  1.81733E+01 -1.00000E+00  1.69876E-01
      21    -1     0     0   502   512  0.000000000E+00  0.000000000E+00  1.152960587E+02  1.152960587E+02  0.000000000E+00  0.00000E+00  9.000E+00
      21    -1     0     0   501   502  0.000000000E+00  0.000000000E+00 -1.330264110E+03  1.330264110E+03  0.000000000E+00  0.00000E+00  9.000E+00
      25     1     1     2     0     0  6.753781550E+01  4.478455802E+01 -1.999305037E+02  2.493275345E+02  1.250000000E+02  0.00000E+00  9.000E+00
      25     1     1     2     0     0 -7.631452164E+01 -2.887108442E+01 -1.099627226E+03  1.109712792E+03  1.250000000E+02  0.00000E+00  9.000E+00
      21     1     1     2   501   512  8.776706140E+00 -1.591347360E+01  8.458967864E+01  8.651984134E+01  3.693564745E-06  0.00000E+00  9.000E+00
#rwgt            1           1   4.0572310497930808E-002           7      180546           0
</event>
<event>
      5   9999  3.79277E-02  2.07731E+02 -1.00000E+00  1.11052E-01
      -2    -1     0     0     0   501  0.000000000E+00  0.000000000E+00  6.960455961E+02  6.960455961E+02  0.000000000E+00  0.00000E+00  9.000E+00
      21    -1     0     0   501   502  0.000000000E+00  0.000000000E+00 -1.068883949E+03  1.068883949E+03  0.000000000E+00  0.00000E+00  9.000E+00
      25     1     1     2     0     0  1.470663647E+01  2.696145074E+02 -7.103558782E+02  7.701550113E+02  1.250000000E+02  0.00000E+00  9.000E+00
      25     1     1     2     0     0  1.652493958E+02 -1.658450095E+02 -2.542947166E+02  3.675632366E+02  1.250000000E+02  0.00000E+00  9.000E+00
      -2     1     1     2     0   502 -1.799560323E+02 -1.037694979E+02  5.918122416E+02  6.272112974E+02  1.321449896E-05  0.00000E+00  9.000E+00
#rwgt            1           1   4.1294372793602506E-002           7      180670           0
</event>
<event>
      5   9999  3.79277E-02  1.96308E+02 -1.00000E+00  1.11943E-01
      21    -1     0     0   502   501  0.000000000E+00  0.000000000E+00  1.017046984E+02  1.017046984E+02  0.000000000E+00  0.00000E+00  9.000E+00
       2    -1     0     0   501     0  0.000000000E+00  0.000000000E+00 -2.251397490E+03  2.251397490E+03  0.000000000E+00  0.00000E+00  9.000E+00
      25     1     1     2     0     0 -1.770386234E+02  3.176991146E+02 -7.731569224E+02  8.635230328E+02  1.250000000E+02  0.00000E+00  9.000E+00
      25     1     1     2     0     0 -1.406189745E+01 -2.727843208E+02 -4.404610687E+02  5.331416094E+02  1.250000000E+02  0.00000E+00  9.000E+00
       2     1     1     2   502     0  1.911005208E+02 -4.491479376E+01 -9.360748009E+02  9.564375467E+02  1.868812365E-05  0.00000E+00  9.000E+00
#rwgt            1           1   2.4473757932801404E-002           7      180961           0
</event>
<event>
      5   9999  3.79277E-02  1.62367E+01 -1.00000E+00  1.74202E-01
      21    -1     0     0   502   501  0.000000000E+00  0.000000000E+00  8.382545905E+01  8.382545905E+01  0.000000000E+00  0.00000E+00  9.000E+00
      21    -1     0     0   511   502  0.000000000E+00  0.000000000E+00 -6.578485871E+02  6.578485871E+02  0.000000000E+00  0.00000E+00  9.000E+00
      25     1     1     2     0     0  2.026384437E+00 -9.540057086E+01 -2.118566726E+01  1.586795754E+02  1.250000000E+02  0.00000E+00  9.000E+00
      25     1     1     2     0     0 -2.116967210E+00  1.116370162E+02 -5.203133637E+02  5.466427548E+02  1.250000000E+02  0.00000E+00  9.000E+00
      21     1     1     2   511   501  9.058277264E-02 -1.623644529E+01 -3.252409713E+01  3.635171598E+01  4.768371582E-07  0.00000E+00  9.000E+00
#rwgt            1           1   3.0178174120434512E-002           7      181013           0
</event>
<event>
      5   9999  4.05979E-02  5.57948E+01 -1.00000E+00  1.36412E-01
      21    -1     0     0   502   512  0.000000000E+00  0.000000000E+00  6.238646802E+02  6.238646802E+02  0.000000000E+00  0.00000E+00  9.000E+00
      21    -1     0     0   501   502  0.000000000E+00  0.000000000E+00 -4.415611756E+02  4.415611756E+02  0.000000000E+00  0.00000E+00  9.000E+00
      25     1     1     2     0     0 -4.118254355E+02  1.543216631E+02 -1.109284965E+02  4.704736936E+02  1.250000000E+02  0.00000E+00  9.000E+00
      25     1     1     2     0     0  4.254471346E+02 -1.002151865E+02  2.263286070E+02  5.078365744E+02  1.250000000E+02  0.00000E+00  9.000E+00
      21     1     1     2   501   512 -1.362169912E+01 -5.410647661E+01  6.690339411E+01  8.711558782E+01  1.651812370E-06  0.00000E+00  9.000E+00
#rwgt            1           1  0.58535519618806187                7      181202           0
</event>
<event>
      5   9999 -3.79277E-02  8.88194E+01 -1.00000E+00  1.26189E-01
      21    -1     0     0   502   511  0.000000000E+00  0.000000000E+00  1.440074707E+03  1.440074707E+03  0.000000000E+00  0.00000E+00  9.000E+00
      21    -1     0     0   501   502  0.000000000E+00  0.000000000E+00 -2.082546268E+02  2.082546268E+02  0.000000000E+00  0.00000E+00  9.000E+00
      25     1     1     2     0     0 -9.992540885E+01 -2.040749836E+02 -6.369641432E+01  2.670466616E+02  1.250000000E+02  0.00000E+00  9.000E+00
      25     1     1     2     0     0  2.054114670E+01  2.439125460E+02  4.242337943E+02  5.054845013E+02  1.250000000E+02  0.00000E+00  9.000E+00
      21     1     1     2   501   511  7.938426214E+01 -3.983756243E+01  8.712827003E+02  8.757981710E+02  1.078959322E-05  0.00000E+00  9.000E+00
#rwgt            1           1 -0.21166324609701995                7      181382           0
</event>
<event>
      5   9999  3.79277E-02  4.99576E+01 -1.00000E+00  1.39097E-01
      21    -1     0     0   502   512  0.000000000E+00  0.000000000E+00  2.147543055E+02  2.147543055E+02  0.000000000E+00  0.00000E+00  9.000E+00
      21    -1     0     0   501   502  0.000000000E+00  0.000000000E+00 -3.447760592E+02  3.447760592E+02  0.000000000E+00  0.00000E+00  9.000E+00
      25     1     1     2     0     0  2.142079684E+01 -2.015116934E+01 -2.820227259E+02  3.098818131E+02  1.250000000E+02  0.00000E+00  9.000E+00
      25     1     1     2     0     0  2.385434540E+01  4.126817466E+01  6.364663993E+01  1.481485296E+02  1.250000000E+02  0.00000E+00  9.000E+00
      21     1     1     2   501   512 -4.527514225E+01 -2.111700532E+01  8.835433230E+01  1.015000219E+02  1.651812370E-06  0.00000E+00  9.000E+00
#rwgt            2          11   1.0495217110415267E-003           7      181570           0
</event>
<event>
      5   9999  3.79277E-02  3.89472E+01 -1.00000E+00  1.45562E-01
      21    -1     0     0   502   501  0.000000000E+00  0.000000000E+00  1.981687296E+02  1.981687296E+02  0.000000000E+00  0.00000E+00  9.000E+00
      21    -1     0     0   511   502  0.000000000E+00  0.000000000E+00 -1.438655079E+03  1.438655079E+03  0.000000000E+00  0.00000E+00  9.000E+00
      25     1     1     2     0     0  2.641720123E+01  1.529315449E+02  7.293520495E+01  2.122038408E+02  1.250000000E+02  0.00000E+00  9.000E+00
      25     1     1     2     0     0 -4.787787838E+00 -1.853206700E+02 -1.708680718E+02  2.814028635E+02  1.250000000E+02  0.00000E+00  9.000E+00
      21     1     1     2   511   501 -2.162941339E+01  3.238912507E+01 -1.142553482E+03  1.143217104E+03  2.157918644E-05  0.00000E+00  9.000E+00
#rwgt            1           1   3.5775633365123856E-002           7      181665           0
</event>
<event>
      5   9999  3.79277E-02  7.42802E+01 -1.00000E+00  1.29928E-01
      21    -1     0     0   502   501  0.000000000E+00  0.000000000E+00  1.694227651E+02  1.694227651E+02  0.000000000E+00  0.00000E+00  9.000E+00
      -4    -1     0     0     0   502  0.000000000E+00  0.000000000E+00 -7.527901508E+02  7.527901508E+02  0.000000000E+00  0.00000E+00  9.000E+00
      25     1     1     2     0     0 -7.614000361E+01 -3.293186735E+01  8.218453745E+01  1.710587801E+02  1.250000000E+02  0.00000E+00  9.000E+00
      25     1     1     2     0     0  1.265374135E+02 -2.163598766E+01 -1.601358751E+02  2.403088252E+02  1.250000000E+02  0.00000E+00  9.000E+00
      -4     1     1     2     0   501 -5.039740990E+01  5.456785501E+01 -5.054160480E+02  5.108453106E+02  7.629394531E-06  0.00000E+00  9.000E+00
#rwgt            1           1   4.9411406588323013E-002           7      181862           0
</event>
<event>
      5   9999  3.79277E-02  5.78803E+01 -1.00000E+00  1.35543E-01
      21    -1     0     0   502   511  0.000000000E+00  0.000000000E+00  1.550704970E+02  1.550704970E+02  0.000000000E+00  0.00000E+00  9.000E+00
      21    -1     0     0   501   502  0.000000000E+00  0.000000000E+00 -3.894909329E+02  3.894909329E+02  0.000000000E+00  0.00000E+00  9.000E+00
      25     1     1     2     0     0  1.142532666E+02  9.787886369E+01  2.388684923E+01  1.970524358E+02  1.250000000E+02  0.00000E+00  9.000E+00
      25     1     1     2     0     0 -7.275199848E+01 -5.753315584E+01 -2.413614856E+02  2.871990321E+02  1.250000000E+02  0.00000E+00  9.000E+00
      21     1     1     2   501   511 -4.150126810E+01 -4.034570785E+01 -1.694579951E+01  6.030996200E+01  1.011524364E-06  0.00000E+00  9.000E+00
#rwgt            1           1   4.0967946522623040E-002           7      181969           0
</event>
<event>
      5   9999  3.79277E-02  6.18743E+01 -1.00000E+00  1.33993E-01
      21    -1     0     0   502   512  0.000000000E+00  0.000000000E+00  1.527563374E+03  1.527563374E+03  0.000000000E+00  0.00000E+00  9.000E+00
      21    -1     0     0   501   502  0.000000000E+00  0.000000000E+00 -3.167446462E+02  3.167446462E+02  0.000000000E+00  0.00000E+00  9.000E+00
      25     1     1     2     0     0  1.279924302E+02 -1.914043248E+01 -3.861817341E+01  1.840238617E+02  1.250000000E+02  0.00000E+00  9.000E+00
      25     1     1     2     0     0 -1.534717769E+02 -3.724420368E+01 -1.552099866E+02  2.542751600E+02  1.250000000E+02  0.00000E+00  9.000E+00
      21     1     1     2   501   512  2.547934670E+01  5.638463616E+01  1.404646888E+03  1.406008999E+03  1.525878906E-05  0.00000E+00  9.000E+00
#rwgt            1           1   3.9785226557135261E-002           7      182055           0
</event>
<event>
      5   9999  3.79277E-02  1.01136E+02 -1.00000E+00  1.23608E-01
      21    -1     0     0   502   501  0.000000000E+00  0.000000000E+00  1.998901700E+03  1.998901700E+03  0.000000000E+00  0.00000E+00  9.000E+00
      21    -1     0     0   511   502  0.000000000E+00  0.000000000E+00 -4.548854556E+01  4.548854556E+01  0.000000000E+00  0.00000E+00  9.000E+00
      25     1     1     2     0     0 -3.940457657E+01 -1.127111106E+02  1.546565039E+03  1.556195661E+03  1.250000000E+02  0.00000E+00  9.000E+00
      25     1     1     2     0     0  7.117356236E+00  1.686749121E+01  8.871185352E+01  1.543695630E+02  1.250000000E+02  0.00000E+00  9.000E+00
      21     1     1     2   511   501  3.228722033E+01  9.584361936E+01  3.181362622E+02  3.338250220E+02  3.814697266E-06  0.00000E+00  9.000E+00
#rwgt            1           1   3.5789842500385985E-002           7      182207           0
</event>
<event>
      5   9999  3.79277E-02  2.62615E+01 -1.00000E+00  1.57166E-01
      21    -1     0     0   512   501  0.000000000E+00  0.000000000E+00  2.238525915E+03  2.238525915E+03  0.000000000E+00  0.00000E+00  9.000E+00
      21    -1     0     0   501   502  0.000000000E+00  0.000000000E+00 -9.370030775E+01  9.370030775E+01  0.000000000E+00  0.00000E+00  9.000E+00
      25     1     1     2     0     0  1.196274481E+02  9.093790357E+01  1.984715600E+02  2.785612837E+02  1.250000000E+02  0.00000E+00  9.000E+00
      25     1     1     2     0     0 -9.892199456E+01 -1.070918238E+02  1.185750300E+02  2.256972696E+02  1.250000000E+02  0.00000E+00  9.000E+00
      21     1     1     2   512   502 -2.070545357E+01  1.615392026E+01  1.827779017E+03  1.827967669E+03  0.000000000E+00  0.00000E+00  9.000E+00
#rwgt            1           1   4.0571552696665548E-002           7      182357           0
</event>
<event>
      5   9999  3.79277E-02  8.40632E+00 -1.00000E+00  2.04897E-01
      21    -1     0     0   502   501  0.000000000E+00  0.000000000E+00  1.489710155E+02  1.489710155E+02  0.000000000E+00  0.00000E+00  9.000E+00
      21    -1     0     0   511   502  0.000000000E+00  0.000000000E+00 -6.633258748E+02  6.633258748E+02  0.000000000E+00  0.00000E+00  9.000E+00
      25     1     1     2     0     0  4.970829770E+01  6.455532861E+01  5.653684101E+01  1.595610219E+02  1.250000000E+02  0.00000E+00  9.000E+00
      25     1     1     2     0     0 -4.702790814E+01 -5.658778611E+01 -8.775905627E+01  1.695300966E+02  1.250000000E+02  0.00000E+00  9.000E+00
      21     1     1     2   511   501 -2.680389562E+00 -7.967542494E+00 -4.831326441E+02  4.832057719E+02  7.629394531E-06  0.00000E+00  9.000E+00
#rwgt            1           1   3.9797982788960962E-002           7      182604           0
</event>
<event>
      5   9999  3.79277E-02  1.73142E+01 -1.00000E+00  1.71708E-01
      21    -1     0     0   502   512  0.000000000E+00  0.000000000E+00  2.204554292E+01  2.204554292E+01  0.000000000E+00  0.00000E+00  9.000E+00
      21    -1     0     0   501   502  0.000000000E+00  0.000000000E+00 -2.424714699E+03  2.424714699E+03  0.000000000E+00  0.00000E+00  9.000E+00
      25     1     1     2     0     0  1.583381194E+02  6.244909905E+01 -1.313334245E+03  1.330204003E+03  1.250000000E+02  0.00000E+00  9.000E+00
      25     1     1     2     0     0 -1.746161158E+02 -6.834892287E+01 -1.043555531E+03  1.067612059E+03  1.250000000E+02  0.00000E+00  9.000E+00
      21     1     1     2   501   512  1.627799630E+01  5.899823822E+00 -4.577938032E+01  4.894417991E+01  9.536743164E-07  0.00000E+00  9.000E+00
#rwgt            1           1   8.0852987770831150E-002           7      182899           0
</event>
<event>
      5   9999  3.79277E-02  7.63080E+01 -1.00000E+00  1.29351E-01
      21    -1     0     0   502   511  0.000000000E+00  0.000000000E+00  4.909217869E+02  4.909217869E+02  0.000000000E+00  0.00000E+00  9.000E+00
      21    -1     0     0   501   502  0.000000000E+00  0.000000000E+00 -5.628996132E+02  5.628996132E+02  0.000000000E+00  0.00000E+00  9.000E+00
      25     1     1     2     0     0 -8.649633619E+01 -7.079032192E+01 -4.388188818E+02  4.697657894E+02  1.250000000E+02  0.00000E+00  9.000E+00
      25     1     1     2     0     0  1.623561777E+01  1.005617019E+02 -4.323140802E+01  1.669437205E+02  1.250000000E+02  0.00000E+00  9.000E+00
      21     1     1     2   501   511  7.026071842E+01 -2.977138000E+01  4.100724635E+02  4.171118902E+02  0.000000000E+00  0.00000E+00  9.000E+00
#rwgt            1           1   4.4055509182988700E-002           7      183092           0
</event>
<event>
      5   9999  3.79277E-02  1.11460E+02 -1.00000E+00  1.21745E-01
      21    -1     0     0   502   501  0.000000000E+00  0.000000000E+00  4.563369647E+02  4.563369647E+02  0.000000000E+00  0.00000E+00  9.000E+00
      21    -1     0     0   512   502  0.000000000E+00  0.000000000E+00 -1.928524194E+02  1.928524194E+02  0.000000000E+00  0.00000E+00  9.000E+00
      25     1     1     2     0     0  1.104869771E+02  2.533816512E+01  5.165913670E+01  1.764739673E+02  1.250000000E+02  0.00000E+00  9.000E+00
      25     1     1     2     0     0 -2.175258744E+02 -5.641959181E+01  2.462701318E+02  3.560542854E+02  1.250000000E+02  0.00000E+00  9.000E+00
      21     1     1     2   512   501  1.070388973E+02  3.108142669E+01 -3.444472328E+01  1.166611314E+02  1.507891493E-06  0.00000E+00  9.000E+00
#rwgt            1           1   4.0355720620157333E-002           7      183168           0
</event>
<event>
      5   9999  3.79277E-02  5.02931E+01 -1.00000E+00  1.38931E-01
      21    -1     0     0   502   511  0.000000000E+00  0.000000000E+00  1.289705674E+02  1.289705674E+02  0.000000000E+00  0.00000E+00  9.000E+00
      21    -1     0     0   501   502  0.000000000E+00  0.000000000E+00 -6.245444978E+02  6.245444978E+02  0.000000000E+00  0.00000E+00  9.000E+00
      25     1     1     2     0     0 -1.859053607E+02 -7.014069147E+01 -3.765975810E+02  4.437693745E+02  1.250000000E+02  0.00000E+00  9.000E+00
      25     1     1     2     0     0  1.598433810E+02  1.131542997E+02 -7.866025503E+01  2.452880709E+02  1.250000000E+02  0.00000E+00  9.000E+00
      21     1     1     2   501   511  2.606197971E+01 -4.301360825E+01 -4.031609444E+01  6.445761982E+01  1.168007728E-06  0.00000E+00  9.000E+00
#rwgt            1           1   3.5764816293765149E-002           7      183317           0
</event>
<event>
      5   9999  3.79277E-02  1.37721E+01 -1.00000E+00  1.80951E-01
      21    -1     0     0   502   512  0.000000000E+00  0.000000000E+00  1.685215061E+02  1.685215061E+02  0.000000000E+00  0.00000E+00  9.000E+00
      21    -1     0     0   501   502  0.000000000E+00  0.000000000E+00 -3.317064817E+02  3.317064817E+02  0.000000000E+00  0.00000E+00  9.000E+00
      25     1     1     2     0     0  3.840713857E+01  1.253033525E+02  1.600957817E+01  1.818167897E+02  1.250000000E+02  0.00000E+00  9.000E+00
      25     1     1     2     0     0 -2.636298853E+01 -1.186244062E+02 -2.168962850E+02  2.782728074E+02  1.250000000E+02  0.00000E+00  9.000E+00
      21     1     1     2   501   512 -1.204415004E+01 -6.678946250E+00  3.770173119E+01  4.013839070E+01  0.000000000E+00  0.00000E+00  9.000E+00
#rwgt            1           1   3.6139957866710613E-002           7      183451           0
</event>
<event>
      5   9999 -3.79277E-02  1.26002E+02 -1.00000E+00  1.19475E-01
      21    -1     0     0   502   501  0.000000000E+00  0.000000000E+00  7.149655844E+02  7.149655844E+02  0.000000000E+00  0.00000E+00  9.000E+00
      21    -1     0     0   501   511  0.000000000E+00  0.000000000E+00 -1.074290809E+02  1.074290809E+02  0.000000000E+00  0.00000E+00  9.000E+00
      25     1     1     2     0     0  2.178087673E+02 -4.988275303E+01  2.168568824E+02  3.355307074E+02  1.250000000E+02  0.00000E+00  9.000E+00
      25     1     1     2     0     0 -9.312195632E+01  3.172283534E+01  2.638034133E+02  3.080507716E+02  1.250000000E+02  0.00000E+00  9.000E+00
      21     1     1     2   502   511 -1.246868110E+02  1.815991769E+01  1.268762079E+02  1.788131863E+02  3.568322551E-06  0.00000E+00  9.000E+00
#rwgt            1           1  -5.3369040301914174E-002           7      183793           0
</event>
<event>
      5   9999  3.79277E-02  4.55534E+01 -1.00000E+00  1.41423E-01
       2    -1     0     0   502     0  0.000000000E+00  0.000000000E+00  5.470878996E+02  5.470878996E+02  0.000000000E+00  0.00000E+00  9.000E+00
      21    -1     0     0   501   502  0.000000000E+00  0.000000000E+00 -1.468328942E+03  1.468328942E+03  0.000000000E+00  0.00000E+00  9.000E+00
      25     1     1     2     0     0  8.494405357E+01 -1.492964202E+02 -3.723100573E+02  4.286545137E+02  1.250000000E+02  0.00000E+00  9.000E+00
      25     1     1     2     0     0 -1.106010042E+02  1.869372503E+02 -1.052100344E+03  1.081535136E+03  1.250000000E+02  0.00000E+00  9.000E+00
       2     1     1     2   501     0  2.565695065E+01 -3.764083012E+01  5.031693589E+02  5.052271914E+02  0.000000000E+00  0.00000E+00  9.000E+00
#rwgt            1           1   8.5785218304971766E-002           7      184136           0
</event>
<event>
      5   9999  3.79277E-02  5.02058E+01 -1.00000E+00  1.38974E-01
      21    -1     0     0   502   501  0.000000000E+00  0.000000000E+00  6.081938751E+02  6.081938751E+02  0.000000000E+00  0.00000E+00  9.000E+00
      21    -1     0     0   501   511  0.000000000E+00  0.000000000E+00 -4.685009901E+02  4.685009901E+02  0.000000000E+00  0.00000E+00  9.000E+00
      25     1     1     2     0     0 -9.674319379E+01  5.724946479E+00  6.962073226E+00  1.583208483E+02  1.250000000E+02  0.00000E+00  9.000E+00
      25     1     1     2     0     0  1.455038063E+02  6.234495621E+00  5.062947708E+02  5.414514027E+02  1.250000000E+02  0.00000E+00  9.000E+00
      21     1     1     2   502   511 -4.876061246E+01 -1.195944210E+01 -3.735639590E+02  3.769226142E+02  7.629394531E-06  0.00000E+00  9.000E+00
#rwgt            1           1   4.1840869469746599E-002           7      184386           0
</event>
<event>
      5   9999  3.79277E-02  3.31125E+01 -1.00000E+00  1.50121E-01
      21    -1     0     0   512   501  0.000000000E+00  0.000000000E+00  8.715702116E+02  8.715702116E+02  0.000000000E+00  0.00000E+00  9.000E+00
      21    -1     0     0   501   502  0.000000000E+00  0.000000000E+00 -1.027721686E+02  1.027721686E+02  0.000000000E+00  0.00000E+00  9.000E+00
      25     1     1     2     0     0  7.201598761E+01 -2.243761722E+02  2.979096163E+02  3.998826186E+02  1.250000000E+02  0.00000E+00  9.000E+00
      25     1     1     2     0     0 -7.414175968E+01  2.574203266E+02  4.155142137E+02  5.099404739E+02  1.250000000E+02  0.00000E+00  9.000E+00
      21     1     1     2   512   502  2.125772069E+00 -3.304415436E+01  5.537421286E+01  6.451928777E+01  1.168007728E-06  0.00000E+00  9.000E+00
#rwgt            1           1   3.2655177602733849E-002           7      184455           0
</event>
<event>
      5   9999  3.79277E-02  1.93116E+02 -1.00000E+00  1.12205E-01
      21    -1     0     0   502   511  0.000000000E+00  0.000000000E+00  8.917541753E+02  8.917541753E+02  0.000000000E+00  0.00000E+00  9.000E+00
      21    -1     0     0   501   502  0.000000000E+00  0.000000000E+00 -1.781690408E+02  1.781690408E+02  0.000000000E+00  0.00000E+00  9.000E+00
      25     1     1     2     0     0  1.759895799E+02  1.960826905E+02  1.546858053E+02  3.301112723E+02  1.250000000E+02  0.00000E+00  9.000E+00
      25     1     1     2     0     0 -8.786236152E+01 -2.424743673E+01  6.732255993E+00  1.548484938E+02  1.250000000E+02  0.00000E+00  9.000E+00
      21     1     1     2   501   511 -8.812721835E+01 -1.718352538E+02  5.521670733E+02  5.849634501E+02  0.000000000E+00  0.00000E+00  9.000E+00
#rwgt            2          11   1.1731531364166739E-003           7      184819           0
</event>
<event>
      5   9999  3.79277E-02  3.77186E+01 -1.00000E+00  1.46440E-01
      21    -1     0     0   502   501  0.000000000E+00  0.000000000E+00  2.698615497E+02  2.698615497E+02  0.000000000E+00  0.00000E+00  9.000E+00
      21    -1     0     0   512   502  0.000000000E+00  0.000000000E+00 -4.338441866E+02  4.338441866E+02  0.000000000E+00  0.00000E+00  9.000E+00
      25     1     1     2     0     0 -2.919881208E+01  1.764162862E+02 -1.814419505E+02  2.837630316E+02  1.250000000E+02  0.00000E+00  9.000E+00
      25     1     1     2     0     0  5.402199306E+01 -1.480173522E+02  1.696653404E+02  2.631327422E+02  1.250000000E+02  0.00000E+00  9.000E+00
      21     1     1     2   512   501 -2.482318098E+01 -2.839893402E+01 -1.522060268E+02  1.568099625E+02  1.907348633E-06  0.00000E+00  9.000E+00
#rwgt            1           1   3.8729322476826179E-002           7      185004           0
</event>
<event>
      5   9999 -3.79277E-02  9.05005E+01 -1.00000E+00  1.25810E-01
      21    -1     0     0   502   501  0.000000000E+00  0.000000000E+00  6.252607464E+02  6.252607464E+02  0.000000000E+00  0.00000E+00  9.000E+00
       2    -1     0     0   501     0  0.000000000E+00  0.000000000E+00 -2.162406045E+02  2.162406045E+02  0.000000000E+00  0.00000E+00  9.000E+00
      25     1     1     2     0     0 -6.618640688E+01  1.804651930E+02  3.545248096E+02  4.222098613E+02  1.250000000E+02  0.00000E+00  9.000E+00
      25     1     1     2     0     0  6.839002708E+00 -1.121407995E+02  1.916899967E+02  2.549360424E+02  1.250000000E+02  0.00000E+00  9.000E+00
       2     1     1     2   502     0  5.934740417E+01 -6.832439348E+01 -1.371946643E+02  1.643554473E+02  1.907348633E-06  0.00000E+00  9.000E+00
#rwgt            1           1  -3.0917102766077231E-002           7      185213           0
</event>
<event>
      5   9999  3.79277E-02  3.74159E+01 -1.00000E+00  1.46662E-01
      21    -1     0     0   502   511  0.000000000E+00  0.000000000E+00  6.610391835E+02  6.610391835E+02  0.000000000E+00  0.00000E+00  9.000E+00
      21    -1     0     0   501   502  0.000000000E+00  0.000000000E+00 -1.665632647E+02  1.665632647E+02  0.000000000E+00  0.00000E+00  9.000E+00
      25     1     1     2     0     0  2.511658120E+01 -5.562098951E+01  1.652883186E+02  2.160318619E+02  1.250000000E+02  0.00000E+00  9.000E+00
      25     1     1     2     0     0  1.224506001E+01  5.360620290E+01 -1.071826333E+02  1.735992032E+02  1.250000000E+02  0.00000E+00  9.000E+00
      21     1     1     2   501   511 -3.736164121E+01  2.014786601E+00  4.363702335E+02  4.379713830E+02  9.344061824E-06  0.00000E+00  9.000E+00
#rwgt            1           1   5.1877129436729591E-002           7      185315           0
</event>
<event>
      5   9999  3.79277E-02  1.07050E+02 -1.00000E+00  1.22512E-01
      21    -1     0     0   502   501  0.000000000E+00  0.000000000E+00  7.380941005E+01  7.380941005E+01  0.000000000E+00  0.00000E+00  9.000E+00
      21    -1     0     0   501   512  0.000000000E+00  0.000000000E+00 -1.317496493E+03  1.317496493E+03  0.000000000E+00  0.00000E+00  9.000E+00
      25     1     1     2     0     0  2.089262465E+02 -6.126582424E+01 -2.382014582E+02  3.460760212E+02  1.250000000E+02  0.00000E+00  9.000E+00
      25     1     1     2     0     0 -1.045300436E+02  3.757830713E+01 -4.627538423E+02  4.920414391E+02  1.250000000E+02  0.00000E+00  9.000E+00
      21     1     1     2   502   512 -1.043962029E+02  2.368751711E+01 -5.427317821E+02  5.531884425E+02  7.629394531E-06  0.00000E+00  9.000E+00
#rwgt            1           1   4.0818597361875243E-002           7      185428           0
</event>
<event>
      5   9999  3.79277E-02  8.47258E+01 -1.00000E+00  1.27155E-01
      21    -1     0     0   502   501  0.000000000E+00  0.000000000E+00  6.251600203E+02  6.251600203E+02  0.000000000E+00  0.00000E+00  9.000E+00
      21    -1     0     0   501   511  0.000000000E+00  0.000000000E+00 -1.642435914E+02  1.642435914E+02  0.000000000E+00  0.00000E+00  9.000E+00
      25     1     1     2     0     0 -6.265102695E+01  4.596280784E+01  2.485597204E+01  1.492667084E+02  1.250000000E+02  0.00000E+00  9.000E+00
      25     1     1     2     0     0  2.040718290E+01  2.748046402E+01  5.109054127E+02  5.270872506E+02  1.250000000E+02  0.00000E+00  9.000E+00
      21     1     1     2   502   511  4.224384405E+01 -7.344327187E+01 -7.484495591E+01  1.130496527E+02  1.907348633E-06  0.00000E+00  9.000E+00
#rwgt            1           1   2.3279172419626248E-002           7      185507           0
</event>
<event>
      5   9999  3.79277E-02  2.07224E+01 -1.00000E+00  1.65108E-01
      21    -1     0     0   502   501  0.000000000E+00  0.000000000E+00  9.338020257E+02  9.338020257E+02  0.000000000E+00  0.00000E+00  9.000E+00
      21    -1     0     0   512   502  0.000000000E+00  0.000000000E+00 -8.761088852E+01  8.761088852E+01  0.000000000E+00  0.00000E+00  9.000E+00
      25     1     1     2     0     0 -1.795441143E+02 -5.529276506E+01  5.467426406E+02  5.914777205E+02  1.250000000E+02  0.00000E+00  9.000E+00
      25     1     1     2     0     0  2.001894202E+02  5.707813135E+01  3.193679523E+02  4.011914830E+02  1.250000000E+02  0.00000E+00  9.000E+00
      21     1     1     2   512   501 -2.064530591E+01 -1.785366293E+00 -1.991945573E+01  2.874371072E+01  7.152557373E-07  0.00000E+00  9.000E+00
#rwgt            1           1   4.0471361572280651E-002           7      185588           0
</event>
<event>
      5   9999 -3.79277E-02  4.03811E+01 -1.00000E+00  1.44585E-01
      21    -1     0     0   511   501  0.000000000E+00  0.000000000E+00  7.253526457E+02  7.253526457E+02  0.000000000E+00  0.00000E+00  9.000E+00
      21    -1     0     0   501   502  0.000000000E+00  0.000000000E+00 -9.121830547E+01  9.121830547E+01  0.000000000E+00  0.00000E+00  9.000E+00
      25     1     1     2     0     0  3.024663494E+01  1.982910633E+02  3.233953407E+02  4.005543047E+02  1.250000000E+02  0.00000E+00  9.000E+00
      25     1     1     2     0     0 -6.862673811E+01 -1.857370894E+02  2.453201288E+02  3.391384100E+02  1.250000000E+02  0.00000E+00  9.000E+00
      21     1     1     2   511   502  3.838010317E+01 -1.255397387E+01  6.541887083E+01  7.687823645E+01  9.536743164E-07  0.00000E+00  9.000E+00
#rwgt            1           1  -1.5563555795695978E-002           7      185871           0
</event>
<event>
      5   9999 -3.79277E-02  3.18196E+01 -1.00000E+00  1.51285E-01
      21    -1     0     0   512   501  0.000000000E+00  0.000000000E+00  2.083499149E+02  2.083499149E+02  0.000000000E+00  0.00000E+00  9.000E+00
      21    -1     0     0   501   502  0.000000000E+00  0.000000000E+00 -2.148417047E+02  2.148417047E+02  0.000000000E+00  0.00000E+00  9.000E+00
      25     1     1     2     0     0  1.313396730E+02 -4.189435199E+00 -3.504987735E+01  1.847191246E+02  1.250000000E+02  0.00000E+00  9.000E+00
      25     1     1     2     0     0 -1.623699825E+02 -2.853586063E+00  2.420613232E+01  2.063567081E+02  1.250000000E+02  0.00000E+00  9.000E+00
      21     1     1     2   512   502  3.103030941E+01  7.043021262E+00  4.351955262E+00  3.211578685E+01  7.226679118E-07  0.00000E+00  9.000E+00
#rwgt            1           1  -5.8271674377286677E-002           7      186003           0
</event>
<event>
      5   9999  3.79277E-02  5.10104E+01 -1.00000E+00  1.38582E-01
      21    -1     0     0   502   501  0.000000000E+00  0.000000000E+00  2.080215656E+03  2.080215656E+03  0.000000000E+00  0.00000E+00  9.000E+00
      21    -1     0     0   501   511  0.000000000E+00  0.000000000E+00 -3.074883665E+01  3.074883665E+01  0.000000000E+00  0.00000E+00  9.000E+00
      25     1     1     2     0     0  5.150178225E+01  1.229345292E+02  4.358001936E+02  4.725591400E+02  1.250000000E+02  0.00000E+00  9.000E+00
      25     1     1     2     0     0 -2.848124139E+00 -1.076085228E+02  1.539950507E+03  1.548760882E+03  1.250000000E+02  0.00000E+00  9.000E+00
      21     1     1     2   502   511 -4.865365811E+01 -1.532600648E+01  7.371611845E+01  8.964447022E+01  2.861022949E-06  0.00000E+00  9.000E+00
#rwgt            1           1  0.13773395004089770                7      186113           0
</event>
<event>
      5   9999  3.79277E-02  2.10457E+01 -1.00000E+00  1.64563E-01
      21    -1     0     0   502   501  0.000000000E+00  0.000000000E+00  4.979260773E+01  4.979260773E+01  0.000000000E+00  0.00000E+00  9.000E+00
       2    -1     0     0   501     0  0.000000000E+00  0.000000000E+00 -1.300719448E+03  1.300719448E+03  0.000000000E+00  0.00000E+00  9.000E+00
      25     1     1     2     0     0  1.087309300E+02 -8.568057309E+01 -6.489401242E+02  6.752124559E+02  1.250000000E+02  0.00000E+00  9.000E+00
      25     1     1     2     0     0 -1.024146764E+02  1.057561247E+02 -2.200358700E+02  2.927693767E+02  1.250000000E+02  0.00000E+00  9.000E+00
       2     1     1     2   502     0 -6.316253625E+00 -2.007555159E+01 -3.819508459E+02  3.825302230E+02  7.629394531E-06  0.00000E+00  9.000E+00
#rwgt            1           1   4.0699345260530324E-002           7      186250           0
</event>
<event>
      5   9999  3.79277E-02  4.20159E+01 -1.00000E+00  1.43528E-01
      21    -1     0     0   511   501  0.000000000E+00  0.000000000E+00  2.511157129E+02  2.511157129E+02  0.000000000E+00  0.00000E+00  9.000E+00
      21    -1     0     0   501   502  0.000000000E+00  0.000000000E+00 -1.178470095E+03  1.178470095E+03  0.000000000E+00  0.00000E+00  9.000E+00
      25     1     1     2     0     0 -1.422003240E+01 -5.710530406E+01 -2.776314261E+02  3.101087452E+02  1.250000000E+02  0.00000E+00  9.000E+00
      25     1     1     2     0     0  3.532597627E+01  2.077527349E+01 -8.777798397E+02  8.875820996E+02  1.250000000E+02  0.00000E+00  9.000E+00
      21     1     1     2   511   502 -2.110594387E+01  3.633003057E+01  2.280568834E+02  2.318949634E+02  7.136645101E-06  0.00000E+00  9.000E+00
#rwgt            1           1   4.5635633717481847E-002           7      186497           0
</event>
<event>
      5   9999  3.79277E-02  1.14111E+02 -1.00000E+00  1.21303E-01
      21    -1     0     0   502   501  0.000000000E+00  0.000000000E+00  5.470688601E+02  5.470688601E+02  0.000000000E+00  0.00000E+00  9.000E+00
      21    -1     0     0   512   502  0.000000000E+00  0.000000000E+00 -2.560645409E+02  2.560645409E+02  0.000000000E+00  0.00000E+00  9.000E+00
      25     1     1     2     0     0 -1.809546385E+02  1.951515570E+02  1.090682789E+02  3.136073992E+02  1.250000000E+02  0.00000E+00  9.000E+00
      25     1     1     2     0     0  1.210396641E+02 -2.922672246E+02  1.426411625E+02  3.688390327E+02  1.250000000E+02  0.00000E+00  9.000E+00
      21     1     1     2   512   501  5.991497444E+01  9.711566761E+01  3.929487782E+01  1.206869690E+02  2.697398305E-06  0.00000E+00  9.000E+00
#rwgt            1           1   4.4277685504978244E-002           7      186577           0
</event>
<event>
      5   9999  3.79277E-02  1.29046E+02 -1.00000E+00  1.19044E-01
      21    -1     0     0   511   501  0.000000000E+00  0.000000000E+00  2.493841570E+02  2.493841570E+02  0.000000000E+00  0.00000E+00  9.000E+00
      21    -1     0     0   501   502  0.000000000E+00  0.000000000E+00 -4.031452505E+02  4.031452505E+02  0.000000000E+00  0.00000E+00  9.000E+00
      25     1     1     2     0     0  1.063279360E+01 -1.017977817E+02 -1.495583317E+02  2.201557159E+02  1.250000000E+02  0.00000E+00  9.000E+00
      25     1     1     2     0     0  6.653703398E+01  2.052278517E+02 -1.030739999E+02  2.698052955E+02  1.250000000E+02  0.00000E+00  9.000E+00
      21     1     1     2   511   502 -7.716982758E+01 -1.034300701E+02  9.887123808E+01  1.625683961E+02  2.697398305E-06  0.00000E+00  9.000E+00
#rwgt            1           1   2.8125795981808328E-002           7      186629           0
</event>
<event>
      5   9999  3.79277E-02  5.39417E+00 -1.00000E+00  2.32899E-01
      21    -1     0     0   512   501  0.000000000E+00  0.000000000E+00  4.449824342E+02  4.449824342E+02  0.000000000E+00  0.00000E+00  9.000E+00
      21    -1     0     0   501   502  0.000000000E+00  0.000000000E+00 -1.877431265E+02  1.877431265E+02  0.000000000E+00  0.00000E+00  9.000E+00
      25     1     1     2     0     0 -8.143478865E+01  1.455458133E+02  1.880597932E+02  2.807253006E+02  1.250000000E+02  0.00000E+00  9.000E+00
      25     1     1     2     0     0  7.915715183E+01 -1.406560856E+02 -6.765214251E+01  2.150623200E+02  1.250000000E+02  0.00000E+00  9.000E+00
      21     1     1     2   512   502  2.277636822E+00 -4.889727704E+00  1.368316570E+02  1.369379400E+02  2.697398305E-06  0.00000E+00  9.000E+00
#rwgt            1           1   3.6090127684452016E-002           7      186790           0
</event>
<event>
      5   9999  3.79277E-02  6.84188E+01 -1.00000E+00  1.31725E-01
      21    -1     0     0   502   501  0.000000000E+00  0.000000000E+00  6.560618760E+02  6.560618760E+02  0.000000000E+00  0.00000E+00  9.000E+00
      21    -1     0     0   511   502  0.000000000E+00  0.000000000E+00 -7.226054496E+01  7.226054496E+01  0.000000000E+00  0.00000E+00  9.000E+00
      25     1     1     2     0     0 -3.779934776E+01  8.949750808E+01  2.431581795E+02  2.901542605E+02  1.250000000E+02  0.00000E+00  9.000E+00
      25     1     1     2     0     0  3.303406199E+01 -1.577501626E+02  2.821598025E+02  3.481601890E+02  1.250000000E+02  0.00000E+00  9.000E+00
      21     1     1     2   511   501  4.765285771E+00  6.825265456E+01  5.848334902E+01  9.000797140E+01  9.536743164E-07  0.00000E+00  9.000E+00
#rwgt            1           1   3.8661537521064514E-002           7      187189           0
</event>
<event>
      5   9999  3.79277E-02  1.81128E+01 -1.00000E+00  1.70001E-01
      21    -1     0     0   502   501  0.000000000E+00  0.000000000E+00  3.353017262E+01  3.353017262E+01  0.000000000E+00  0.00000E+00  9.000E+00
      21    -1     0     0   501   512  0.000000000E+00  0.000000000E+00 -1.751452890E+03  1.751452890E+03  0.000000000E+00  0.00000E+00  9.000E+00
      25     1     1     2     0     0 -1.351757365E+02 -1.085290728E+02 -5.298769910E+02  5.713542377E+02  1.250000000E+02  0.00000E+00  9.000E+00
      25     1     1     2     0     0  1.521022717E+02  1.149763176E+02 -1.054850672E+03  1.079207855E+03  1.250000000E+02  0.00000E+00  9.000E+00
      21     1     1     2   502   512 -1.692653521E+01 -6.447244747E+00 -1.331950546E+02  1.344209698E+02  1.907348633E-06  0.00000E+00  9.000E+00
#rwgt            1           1   4.6309871853156152E-002           7      187311           0
</event>
<event>
      5   9999 -3.79277E-02  2.66704E+01 -1.00000E+00  1.56675E-01
      21    -1     0     0   502   501  0.000000000E+00  0.000000000E+00  1.651626342E+03  1.651626342E+03  0.000000000E+00  0.00000E+00  9.000E+00
      21    -1     0     0   501   511  0.000000000E+00  0.000000000E+00 -1.178232803E+02  1.178232803E+02  0.000000000E+00  0.00000E+00  9.000E+00
      25     1     1     2     0     0  2.039986355E+02  2.738403212E+02  3.170630396E+02  4.824499310E+02  1.250000000E+02  0.00000E+00  9.000E+00
      25     1     1     2     0     0 -1.773862121E+02 -2.720821639E+02  1.210599920E+03  1.259631589E+03  1.250000000E+02  0.00000E+00  9.000E+00
      21     1     1     2   502   511 -2.661242338E+01 -1.758157284E+00  6.140101847E+00  2.736810270E+01  7.052516679E-07  0.00000E+00  9.000E+00
#rwgt            1           1 -0.13001126616386938                7      187506           0
</event>
<event>
      5   9999  3.79277E-02  1.99531E+01 -1.00000E+00  1.66453E-01
       2    -1     0     0   502     0  0.000000000E+00  0.000000000E+00  3.436358399E+03  3.436358399E+03  0.000000000E+00  0.00000E+00  9.000E+00
      21    -1     0     0   501   502  0.000000000E+00  0.000000000E+00 -3.096977519E+01  3.096977519E+01  0.000000000E+00  0.00000E+00  9.000E+00
      25     1     1     2     0     0 -1.942901682E+02 -5.822141399E+01  9.714605292E+02  1.000249450E+03  1.250000000E+02  0.00000E+00  9.000E+00
      25     1     1     2     0     0  2.087056581E+02  7.201710669E+01  9.583230754E+02  9.913388079E+02  1.250000000E+02  0.00000E+00  9.000E+00
       2     1     1     2   501     0 -1.441548994E+01 -1.379569270E+01  1.475605019E+03  1.475739916E+03  2.157918644E-05  0.00000E+00  9.000E+00
#rwgt            1           1  0.11010649987219019                7      187683           0
</event>
<event>
      5   9999  3.79277E-02  9.98743E+00 -1.00000E+00  1.95820E-01
      21    -1     0     0   502   501  0.000000000E+00  0.000000000E+00  1.189616557E+03  1.189616557E+03  0.000000000E+00  0.00000E+00  9.000E+00
      21    -1     0     0   511   502  0.000000000E+00  0.000000000E+00 -3.116516725E+01  3.116516725E+01  0.000000000E+00  0.00000E+00  9.000E+00
      25     1     1     2     0     0  9.464231738E+01  8.648956529E+01  7.273597194E+02  7.490759471E+02  1.250000000E+02  0.00000E+00  9.000E+00
      25     1     1     2     0     0 -8.619058913E+01 -8.116819647E+01  4.278722799E+02  4.612122957E+02  1.250000000E+02  0.00000E+00  9.000E+00
      21     1     1     2   511   501 -8.451728256E+00 -5.321368816E+00  3.219390344E+00  1.049348135E+01  7.300048300E-08  0.00000E+00  9.000E+00
#rwgt            1           1   3.8518218738719447E-002           7      187894           0
</event>
<event>
      5   9999  3.79277E-02  1.30556E+02 -1.00000E+00  1.18834E-01
      21    -1     0     0   502   501  0.000000000E+00  0.000000000E+00  7.550157279E+02  7.550157279E+02  0.000000000E+00  0.00000E+00  9.000E+00
      21    -1     0     0   512   502  0.000000000E+00  0.000000000E+00 -8.170026095E+01  8.170026095E+01  0.000000000E+00  0.00000E+00  9.000E+00
      25     1     1     2     0     0  7.136164581E+01 -3.653003632E+01  3.771400209E+02  4.053227398E+02  1.250000000E+02  0.00000E+00  9.000E+00
      25     1     1     2     0     0  2.469456523E+01  1.249499902E+02  1.338310466E+02  2.230651713E+02  1.250000000E+02  0.00000E+00  9.000E+00
      21     1     1     2   512   501 -9.605621104E+01 -8.841995392E+01  1.623443994E+02  2.083280777E+02  2.697398305E-06  0.00000E+00  9.000E+00
#rwgt            1           1   4.1190092736797974E-002           7      188393           0
</event>
<event>
      5   9999  3.79277E-02  5.37621E+01 -1.00000E+00  1.37301E-01
       2    -1     0     0   502     0  0.000000000E+00  0.000000000E+00  9.707633547E+02  9.707633547E+02  0.000000000E+00  0.00000E+00  9.000E+00
      21    -1     0     0   501   502  0.000000000E+00  0.000000000E+00 -1.173575001E+02  1.173575001E+02  0.000000000E+00  0.00000E+00  9.000E+00
      25     1     1     2     0     0  4.845699546E+01  4.859375727E+00 -5.492937906E+01  1.449618247E+02  1.250000000E+02  0.00000E+00  9.000E+00
      25     1     1     2     0     0 -4.448054173E+01  4.875549573E+01  2.912820679E+02  3.237682196E+02  1.250000000E+02  0.00000E+00  9.000E+00
       2     1     1     2   501     0 -3.976453735E+00 -5.361487146E+01  6.170531658E+02  6.193908104E+02  0.000000000E+00  0.00000E+00  9.000E+00
#rwgt            1           1   5.4580228808999542E-002           7      188519           0
</event>
<event>
      5   9999  3.79277E-02  1.77129E+02 -1.00000E+00  1.13602E-01
      21    -1     0     0   511   501  0.000000000E+00  0.000000000E+00  7.202616240E+01  7.202616240E+01  0.000000000E+00  0.00000E+00  9.000E+00
      21    -1     0     0   501   502  0.000000000E+00  0.000000000E+00 -1.882329036E+03  1.882329036E+03  0.000000000E+00  0.00000E+00  9.000E+00
      25     1     1     2     0     0  2.574493001E+02  5.706227588E+01 -1.233643765E+03  1.267690098E+03  1.250000000E+02  0.00000E+00  9.000E+00
      25     1     1     2     0     0 -8.694325025E+01 -1.050435897E+02 -3.758066859E+02  4.188662671E+02  1.250000000E+02  0.00000E+00  9.000E+00
      21     1     1     2   511   502 -1.705060498E+02  4.798131387E+01 -2.008524230E+02  2.677988337E+02  5.394796609E-06  0.00000E+00  9.000E+00
#rwgt            1           1   4.8656882620088104E-002           7      188616           0
</event>
<event>
      5   9999  3.79277E-02  1.95393E+01 -1.00000E+00  1.67208E-01
      21    -1     0     0   502   512  0.000000000E+00  0.000000000E+00  1.486794324E+02  1.486794324E+02  0.000000000E+00  0.00000E+00  9.000E+00
      21    -1     0     0   501   502  0.000000000E+00  0.000000000E+00 -3.647460700E+02  3.647460700E+02  0.000000000E+00  0.00000E+00  9.000E+00
      25     1     1     2     0     0  8.164321664E+01  8.907618216E+01 -2.492638064E+02  3.039039753E+02  1.250000000E+02  0.00000E+00  9.000E+00
      25     1     1     2     0     0 -9.958535382E+01 -9.681339329E+01  2.579832372E+01  1.886282835E+02  1.250000000E+02  0.00000E+00  9.000E+00
      21     1     1     2   501   512  1.794213719E+01  7.737211130E+00  7.398845062E+00  2.089324367E+01  2.795705652E-07  0.00000E+00  9.000E+00
#rwgt            1           1   3.6774294173721543E-002           7      188644           0
</event>
<event>
      5   9999 -3.79277E-02  9.50258E+00 -1.00000E+00  1.98354E-01
      21    -1     0     0   502   501  0.000000000E+00  0.000000000E+00  1.342212161E+03  1.342212161E+03  0.000000000E+00  0.00000E+00  9.000E+00
      21    -1     0     0   501   511  0.000000000E+00  0.000000000E+00 -3.842051858E+02  3.842051858E+02  0.000000000E+00  0.00000E+00  9.000E+00
      25     1     1     2     0     0 -5.870645877E+01 -1.870496363E+02  7.160193802E+02  7.528231981E+02  1.250000000E+02  0.00000E+00  9.000E+00
      25     1     1     2     0     0  5.809931040E+01  1.775664699E+02  5.869387590E+02  6.285121224E+02  1.250000000E+02  0.00000E+00  9.000E+00
      21     1     1     2   502   511  6.071483757E-01  9.483166434E+00 -3.449511642E+02  3.450820261E+02  0.000000000E+00  0.00000E+00  9.000E+00
#rwgt            1           1  -3.0114037435488156E-002           7      188886           0
</event>
<event>
      5   9999  3.79277E-02  1.93495E+01 -1.00000E+00  1.67563E-01
      21    -1     0     0   512   501  0.000000000E+00  0.000000000E+00  2.523962553E+02  2.523962553E+02  0.000000000E+00  0.00000E+00  9.000E+00
      21    -1     0     0   501   502  0.000000000E+00  0.000000000E+00 -1.038051655E+02  1.038051655E+02  0.000000000E+00  0.00000E+00  9.000E+00
      25     1     1     2     0     0  5.434040353E+01  6.743197810E+01  4.693587048E+01  1.591475010E+02  1.250000000E+02  0.00000E+00  9.000E+00
      25     1     1     2     0     0 -5.746811577E+01 -4.833689339E+01  7.461322124E+01  1.638022356E+02  1.250000000E+02  0.00000E+00  9.000E+00
      21     1     1     2   512   502  3.127712239E+00 -1.909508471E+01  2.704199806E+01  3.325168421E+01  3.371747881E-07  0.00000E+00  9.000E+00
#rwgt            1           1   7.8482813690975275E-002           7      189243           0
</event>
<event>
      5   9999  3.79277E-02  7.77885E+01 -1.00000E+00  1.28942E-01
      21    -1     0     0   502   511  0.000000000E+00  0.000000000E+00  5.628574238E+02  5.628574238E+02  0.000000000E+00  0.00000E+00  9.000E+00
      21    -1     0     0   501   502  0.000000000E+00  0.000000000E+00 -5.119635733E+02  5.119635733E+02  0.000000000E+00  0.00000E+00  9.000E+00
      25     1     1     2     0     0 -2.764237507E+02  1.579237688E+02 -9.336028006E+01  3.545294749E+02  1.250000000E+02  0.00000E+00  9.000E+00
      25     1     1     2     0     0  2.018749948E+02 -1.801392754E+02 -2.054810608E+02  3.620098595E+02  1.250000000E+02  0.00000E+00  9.000E+00
      21     1     1     2   501   511  7.454875590E+01  2.221550654E+01  3.497351914E+02  3.582816627E+02  5.394796609E-06  0.00000E+00  9.000E+00
#rwgt            1           1  0.16877113417728015                7      189483           0
</event>
<event>
      5   9999  3.79277E-02  3.89119E+01 -1.00000E+00  1.45587E-01
      21    -1     0     0   502   501  0.000000000E+00  0.000000000E+00  2.326352608E+02  2.326352608E+02  0.000000000E+00  0.00000E+00  9.000E+00
       1    -1     0     0   501     0  0.000000000E+00  0.000000000E+00 -1.122154981E+03  1.122154981E+03  0.000000000E+00  0.00000E+00  9.000E+00
      25     1     1     2     0     0  1.222601635E+02  1.464839425E+02 -1.373789651E+02  2.662763096E+02  1.250000000E+02  0.00000E+00  9.000E+00
      25     1     1     2     0     0 -1.026370924E+02 -1.800856290E+02  8.040513680E+01  2.550591942E+02  1.250000000E+02  0.00000E+00  9.000E+00
       1     1     1     2   502     0 -1.962307109E+01  3.360168652E+01 -8.325458918E+02  8.334547379E+02  1.078959322E-05  0.00000E+00  9.000E+00
#rwgt            1           1   3.5703455336926447E-002           7      189623           0
</event>
<event>
      5   9999  3.79277E-02  3.59616E+01 -1.00000E+00  1.47766E-01
      21    -1     0     0   502   501  0.000000000E+00  0.000000000E+00  1.193082716E+03  1.193082716E+03  0.000000000E+00  0.00000E+00  9.000E+00
      21    -1     0     0   501   511  0.000000000E+00  0.000000000E+00 -1.247646114E+02  1.247646114E+02  0.000000000E+00  0.00000E+00  9.000E+00
      25     1     1     2     0     0 -3.225526089E+01 -1.148283275E+02  6.419850014E+02  6.648275631E+02  1.250000000E+02  0.00000E+00  9.000E+00
      25     1     1     2     0     0  6.657098985E+01  1.255831301E+02  5.196306155E+02  5.530314600E+02  1.250000000E+02  0.00000E+00  9.000E+00
      21     1     1     2   502   511 -3.431572896E+01 -1.075480260E+01 -9.329751270E+01  9.998830386E+01  2.697398305E-06  0.00000E+00  9.000E+00
#rwgt            1           1   3.5330360961665572E-002           7      189750           0
</event>
<event>
      5   9999  3.79277E-02  5.21928E+01 -1.00000E+00  1.38020E-01
      21    -1     0     0   502   501  0.000000000E+00  0.000000000E+00  1.242451110E+02  1.242451110E+02  0.000000000E+00  0.00000E+00  9.000E+00
      21    -1     0     0   512   502  0.000000000E+00  0.000000000E+00 -7.716855718E+02  7.716855718E+02  0.000000000E+00  0.00000E+00  9.000E+00
      25     1     1     2     0     0  3.004118771E+01 -5.068248921E+01 -6.574625714E+02  6.718282671E+02  1.250000000E+02  0.00000E+00  9.000E+00
      25     1     1     2     0     0 -5.773319652E-01  7.601532627E+00  7.090352873E+01  1.439111775E+02  1.250000000E+02  0.00000E+00  9.000E+00
      21     1     1     2   512   501 -2.946385575E+01  4.308095659E+01 -6.088141816E+01  8.019123826E+01  6.743495762E-07  0.00000E+00  9.000E+00
#rwgt            1           1   3.2515920438606079E-002           7      189843           0
</event>
<event>
      5   9999  3.79277E-02  1.68595E+01 -1.00000E+00  1.72732E-01
      21    -1     0     0   502   501  0.000000000E+00  0.000000000E+00  6.159494222E+01  6.159494222E+01  0.000000000E+00  0.00000E+00  9.000E+00
      21    -1     0     0   511   502  0.000000000E+00  0.000000000E+00 -5.714699264E+02  5.714699264E+02  0.000000000E+00  0.00000E+00  9.000E+00
      25     1     1     2     0     0  2.195380176E+01 -9.377442992E+01 -1.018634120E+02  1.878211059E+02  1.250000000E+02  0.00000E+00  9.000E+00
      25     1     1     2     0     0 -5.100200310E+00  9.422023656E+01 -3.279679834E+02  3.634438927E+02  1.250000000E+02  0.00000E+00  9.000E+00
      21     1     1     2   511   501 -1.685360145E+01 -4.458066457E-01 -8.004358881E+01  8.179987001E+01  9.536743164E-07  0.00000E+00  9.000E+00
#rwgt            1           1   3.8798785165560429E-002           7      190005           0
</event>
<event>
      5   9999  3.79277E-02  4.75231E+01 -1.00000E+00  1.40346E-01
      21    -1     0     0   512   501  0.000000000E+00  0.000000000E+00  8.821229389E+02  8.821229389E+02  0.000000000E+00  0.00000E+00  9.000E+00
      21    -1     0     0   501   502  0.000000000E+00  0.000000000E+00 -2.025869970E+02  2.025869970E+02  0.000000000E+00  0.00000E+00  9.000E+00
      25     1     1     2     0     0 -6.522767240E+01  2.014298821E+02 -3.165899380E+01  2.479030830E+02  1.250000000E+02  0.00000E+00  9.000E+00
      25     1     1     2     0     0  4.717943236E+01 -2.453924676E+02  2.554170669E+02  3.785581066E+02  1.250000000E+02  0.00000E+00  9.000E+00
      21     1     1     2   512   502  1.804824004E+01  4.396258550E+01  4.557778688E+02  4.582487464E+02  0.000000000E+00  0.00000E+00  9.000E+00
#rwgt            1           1   2.4020301264070280E-002           7      190221           0
</event>
<event>
      5   9999  3.79277E-02  1.54420E+01 -1.00000E+00  1.76203E-01
      21    -1     0     0   511   501  0.000000000E+00  0.000000000E+00  1.050807758E+02  1.050807758E+02  0.000000000E+00  0.00000E+00  9.000E+00
      21    -1     0     0   501   502  0.000000000E+00  0.000000000E+00 -6.432765402E+02  6.432765402E+02  0.000000000E+00  0.00000E+00  9.000E+00
      25     1     1     2     0     0  7.923075928E+01  5.745550663E+01 -4.976986514E+02  5.224055858E+02  1.250000000E+02  0.00000E+00  9.000E+00
      25     1     1     2     0     0 -6.411830464E+01 -6.062888358E+01 -8.764878434E+01  1.763358384E+02  1.250000000E+02  0.00000E+00  9.000E+00
      21     1     1     2   511   502 -1.511245464E+01  3.173376956E+00  4.715167137E+01  4.961589181E+01  6.743495762E-07  0.00000E+00  9.000E+00
#rwgt            1           1   4.2495193551845535E-002           7      190438           0
</event>
<event>
      5   9999  3.79277E-02  6.60642E+01 -1.00000E+00  1.32506E-01
      21    -1     0     0   502   501  0.000000000E+00  0.000000000E+00  1.465665875E+03  1.465665875E+03  0.000000000E+00  0.00000E+00  9.000E+00
      21    -1     0     0   512   502  0.000000000E+00  0.000000000E+00 -5.513750382E+01  5.513750382E+01  0.000000000E+00  0.00000E+00  9.000E+00
      25     1     1     2     0     0  1.054848359E+02 -1.051748181E-02  1.410867768E+02  2.160035400E+02  1.250000000E+02  0.00000E+00  9.000E+00
      25     1     1     2     0     0 -1.701756853E+02 -1.338992944E+01  1.140073904E+03  1.159539805E+03  1.250000000E+02  0.00000E+00  9.000E+00
      21     1     1     2   512   501  6.469084940E+01  1.340044692E+01  1.293676911E+02  1.452600340E+02  0.000000000E+00  0.00000E+00  9.000E+00
#rwgt            1           1   5.1106717520979686E-002           7      190607           0
</event>
<event>
      5   9999  3.79277E-02  7.81556E+01 -1.00000E+00  1.28842E-01
      21    -1     0     0   511   501  0.000000000E+00  0.000000000E+00  7.228162086E+02  7.228162086E+02  0.000000000E+00  0.00000E+00  9.000E+00
      21    -1     0     0   501   502  0.000000000E+00  0.000000000E+00 -7.802036439E+01  7.802036439E+01  0.000000000E+00  0.00000E+00  9.000E+00
      25     1     1     2     0     0 -5.081031462E+01  5.987929004E+01  5.675346247E+01  1.581555340E+02  1.250000000E+02  0.00000E+00  9.000E+00
      25     1     1     2     0     0 -2.730517873E+01 -6.238288211E+01  1.920575842E+02  2.390571321E+02  1.250000000E+02  0.00000E+00  9.000E+00
      21     1     1     2   511   502  7.811549335E+01  2.503592065E+00  3.959847976E+02  4.036239069E+02  5.394796609E-06  0.00000E+00  9.000E+00
#rwgt            1           1  0.10744015224637934                7      190750           0
</event>
<event>
      5   9999  3.79277E-02  1.36312E+02 -1.00000E+00  1.18065E-01
      21    -1     0     0   502   501  0.000000000E+00  0.000000000E+00  6.808062206E+01  6.808062206E+01  0.000000000E+00  0.00000E+00  9.000E+00
      21    -1     0     0   501   512  0.000000000E+00  0.000000000E+00 -1.333551430E+03  1.333551430E+03  0.000000000E+00  0.00000E+00  9.000E+00
      25     1     1     2     0     0  4.543656074E+01  1.680746197E+02 -3.339750570E+02  3.968348492E+02  1.250000000E+02  0.00000E+00  9.000E+00
      25     1     1     2     0     0  9.043791310E+01 -1.571635752E+02 -4.057534617E+02  4.616711787E+02  1.250000000E+02  0.00000E+00  9.000E+00
      21     1     1     2   502   512 -1.358744738E+02 -1.091104448E+01 -5.257422897E+02  5.431260247E+02  0.000000000E+00  0.00000E+00  9.000E+00
#rwgt            1           1   4.0049402379393056E-002           7      190880           0
</event>
<event>
      5   9999 -3.79277E-02  5.05683E+01 -1.00000E+00  1.38796E-01
      21    -1     0     0   502   501  0.000000000E+00  0.000000000E+00  2.684935228E+02  2.684935228E+02  0.000000000E+00  0.00000E+00  9.000E+00
       2    -1     0     0   501     0  0.000000000E+00  0.000000000E+00 -6.214439793E+02  6.214439793E+02  0.000000000E+00  0.00000E+00  9.000E+00
      25     1     1     2     0     0  5.794268720E+01  1.407744536E+02  1.748636734E+02  2.633953417E+02  1.250000000E+02  0.00000E+00  9.000E+00
      25     1     1     2     0     0 -8.063718304E+00 -1.490952947E+02 -1.511721817E+02  2.465207070E+02  1.250000000E+02  0.00000E+00  9.000E+00
       2     1     1     2   502     0 -4.987896889E+01  8.320841163E+00 -3.766419482E+02  3.800214535E+02  5.394796609E-06  0.00000E+00  9.000E+00
#rwgt            1           1 -0.14486560574471521                7      190932           0
</event>
<event>
      5   9999  3.79277E-02  8.98525E+01 -1.00000E+00  1.25955E-01
      21    -1     0     0   502   511  0.000000000E+00  0.000000000E+00  2.601002762E+02  2.601002762E+02  0.000000000E+00  0.00000E+00  9.000E+00
      21    -1     0     0   501   502  0.000000000E+00  0.000000000E+00 -3.209485123E+03  3.209485123E+03  0.000000000E+00  0.00000E+00  9.000E+00
      25     1     1     2     0     0  5.939755262E+01 -1.252213783E+02 -1.154460527E+03  1.169449687E+03  1.250000000E+02  0.00000E+00  9.000E+00
      25     1     1     2     0     0 -6.239873986E+01  3.541898292E+01 -2.036912053E+03  2.042004853E+03  1.250000000E+02  0.00000E+00  9.000E+00
      21     1     1     2   501   511  3.001187237E+00  8.980239539E+01  2.419877332E+02  2.581308590E+02  1.044697871E-05  0.00000E+00  9.000E+00
#rwgt            1           1   3.1311962960943039E-002           7      191060           0
</event>
<event>
      5   9999  3.79277E-02  1.11342E+01 -1.00000E+00  1.90514E-01
      21    -1     0     0   512   501  0.000000000E+00  0.000000000E+00  1.865847920E+02  1.865847920E+02  0.000000000E+00  0.00000E+00  9.000E+00
      21    -1     0     0   501   502  0.000000000E+00  0.000000000E+00 -2.371372502E+02  2.371372502E+02  0.000000000E+00  0.00000E+00  9.000E+00
      25     1     1     2     0     0  3.167161864E+01 -7.121205681E+01  9.263715652E+01  1.740140547E+02  1.250000000E+02  0.00000E+00  9.000E+00
      25     1     1     2     0     0 -3.244466133E+01  6.010476318E+01 -1.693416054E+02  2.212844729E+02  1.250000000E+02  0.00000E+00  9.000E+00
      21     1     1     2   512   502  7.730426821E-01  1.110729362E+01  2.615199066E+01  2.842351460E+01  3.371747881E-07  0.00000E+00  9.000E+00
#rwgt            1           1   4.6240732810451525E-002           7      191241           0
</event>
<event>
      5   9999  3.79277E-02  1.83198E+01 -1.00000E+00  1.69576E-01
      21    -1     0     0   511   501  0.000000000E+00  0.000000000E+00  2.581349095E+02  2.581349095E+02  0.000000000E+00  0.00000E+00  9.000E+00
      21    -1     0     0   501   502  0.000000000E+00  0.000000000E+00 -6.529700709E+02  6.529700709E+02  0.000000000E+00  0.00000E+00  9.000E+00
      25     1     1     2     0     0  1.402966293E+02 -8.674225300E+01 -4.232512589E+02  4.711411580E+02  1.250000000E+02  0.00000E+00  9.000E+00
      25     1     1     2     0     0 -1.556099919E+02  7.668656436E+01 -1.496299133E+02  2.609777954E+02  1.250000000E+02  0.00000E+00  9.000E+00
      21     1     1     2   511   502  1.531336255E+01  1.005568865E+01  1.780460107E+02  1.789860270E+02  2.697398305E-06  0.00000E+00  9.000E+00
#rwgt            1           1   4.7559260347867185E-002           7      191476           0
</event>
<event>
      5   9999  3.79277E-02  7.96569E+00 -1.00000E+00  2.07915E-01
      21    -1     0     0   502   501  0.000000000E+00  0.000000000E+00  2.206001923E+02  2.206001923E+02  0.000000000E+00  0.00000E+00  9.000E+00
      21    -1     0     0   501   512  0.000000000E+00  0.000000000E+00 -3.460643883E+02  3.460643883E+02  0.000000000E+00  0.00000E+00  9.000E+00
      25     1     1     2     0     0  1.061378278E+02 -1.000016556E+01  8.151109895E+01  1.833965677E+02  1.250000000E+02  0.00000E+00  9.000E+00
      25     1     1     2     0     0 -1.025319716E+02  2.897349425E+00  1.385844561E+01  1.622906539E+02  1.250000000E+02  0.00000E+00  9.000E+00
      21     1     1     2   502   512 -3.605856132E+00  7.102816133E+00 -2.208337406E+02  2.209773590E+02  2.697398305E-06  0.00000E+00  9.000E+00
#rwgt            1           1   4.0900066301367111E-002           7      191726           0
</event>
<event>
      5   9999  3.79277E-02  7.92433E+01 -1.00000E+00  1.28550E-01
      21    -1     0     0   502   501  0.000000000E+00  0.000000000E+00  4.617886028E+02  4.617886028E+02  0.000000000E+00  0.00000E+00  9.000E+00
      21    -1     0     0   511   502  0.000000000E+00  0.000000000E+00 -1.814028445E+02  1.814028445E+02  0.000000000E+00  0.00000E+00  9.000E+00
      25     1     1     2     0     0  5.850685004E+00 -1.374545839E+02  3.596160467E+02  4.048168650E+02  1.250000000E+02  0.00000E+00  9.000E+00
      25     1     1     2     0     0  2.823143035E+01  6.591501051E+01 -3.793243076E+01  1.490156756E+02  1.250000000E+02  0.00000E+00  9.000E+00
      21     1     1     2   511   501 -3.408211535E+01  7.153957343E+01 -4.129785765E+01  8.935890666E+01  1.348699152E-06  0.00000E+00  9.000E+00
#rwgt            1           1   3.8002627782612659E-002           7      192091           0
</event>
<event>
      5   9999  3.79277E-02  9.79134E+01 -1.00000E+00  1.24241E-01
      21    -1     0     0   512   501  0.000000000E+00  0.000000000E+00  5.991755617E+01  5.991755617E+01  0.000000000E+00  0.00000E+00  9.000E+00
      21    -1     0     0   501   502  0.000000000E+00  0.000000000E+00 -2.535957695E+03  2.535957695E+03  0.000000000E+00  0.00000E+00  9.000E+00
      25     1     1     2     0     0 -8.291331796E+01 -1.951668263E+02 -2.152719243E+03  2.166746374E+03  1.250000000E+02  0.00000E+00  9.000E+00
      25     1     1     2     0     0  9.172410904E+01  9.765066083E+01 -2.277089848E+02  2.922761460E+02  1.250000000E+02  0.00000E+00  9.000E+00
      21     1     1     2   512   502 -8.810791082E+00  9.751616545E+01 -9.561191043E+01  1.368527310E+02  2.336015456E-06  0.00000E+00  9.000E+00
#rwgt            1           1   9.7366790773040751E-002           7      192151           0
</event>
<event>
      5   9999  3.79277E-02  1.68221E+01 -1.00000E+00  1.72818E-01
      21    -1     0     0   511   501  0.000000000E+00  0.000000000E+00  2.457994412E+02  2.457994412E+02  0.000000000E+00  0.00000E+00  9.000E+00
      21    -1     0     0   501   502  0.000000000E+00  0.000000000E+00 -3.256360266E+02  3.256360266E+02  0.000000000E+00  0.00000E+00  9.000E+00
      25     1     1     2     0     0  5.402022050E+01  6.285046407E+01 -2.750437990E+02  3.132769644E+02  1.250000000E+02  0.00000E+00  9.000E+00
      25     1     1     2     0     0 -5.166113970E+01 -4.619461153E+01  1.944402614E+02  2.413189398E+02  1.250000000E+02  0.00000E+00  9.000E+00
      21     1     1     2   511   502 -2.359080803E+00 -1.665585254E+01  7.669521440E-01  1.683956358E+01  2.743594742E-07  0.00000E+00  9.000E+00
#rwgt            1           1   4.3011976140169085E-002           7      192243           0
</event>
<event>
      5   9999  3.79277E-02  1.00844E+02 -1.00000E+00  1.23664E-01
      21    -1     0     0   502   512  0.000000000E+00  0.000000000E+00  9.270087653E+02  9.270087653E+02  0.000000000E+00  0.00000E+00  9.000E+00
      21    -1     0     0   501   502  0.000000000E+00  0.000000000E+00 -8.821131794E+01  8.821131794E+01  0.000000000E+00  0.00000E+00  9.000E+00
      25     1     1     2     0     0  7.780458971E+01  2.472262861E+01  5.590808490E+02  5.786718917E+02  1.250000000E+02  0.00000E+00  9.000E+00
      25     1     1     2     0     0 -6.645456761E+01 -1.249261272E+02  6.560943439E+01  1.998808262E+02  1.250000000E+02  0.00000E+00  9.000E+00
      21     1     1     2   501   512 -1.135002211E+01  1.002034986E+02  2.141071640E+02  2.366673654E+02  2.697398305E-06  0.00000E+00  9.000E+00
#rwgt            1           1   3.9610702694399980E-002           7      192561           0
</event>
<event>
      5   9999  3.79277E-02  9.94153E+01 -1.00000E+00  1.23943E-01
      21    -1     0     0   502   501  0.000000000E+00  0.000000000E+00  5.822570310E+02  5.822570310E+02  0.000000000E+00  0.00000E+00  9.000E+00
      21    -1     0     0   501   511  0.000000000E+00  0.000000000E+00 -1.488483632E+02  1.488483632E+02  0.000000000E+00  0.00000E+00  9.000E+00
      25     1     1     2     0     0  1.039730491E+02 -3.219135304E+00  4.579983879E+02  4.860126347E+02  1.250000000E+02  0.00000E+00  9.000E+00
      25     1     1     2     0     0 -6.982018126E+00  2.503963854E+01 -5.797621495E+01  1.402211595E+02  1.250000000E+02  0.00000E+00  9.000E+00
      21     1     1     2   502   511 -9.699103097E+01 -2.182050324E+01  3.338649476E+01  1.048716000E+02  1.348699152E-06  0.00000E+00  9.000E+00
#rwgt            1           1   3.2247825345859460E-002           7      192714           0
</event>
<event>
      5   9999  3.79277E-02  7.15458E+01 -1.00000E+00  1.30742E-01
      21    -1     0     0   502   512  0.000000000E+00  0.000000000E+00  2.264907997E+02  2.264907997E+02  0.000000000E+00  0.00000E+00  9.000E+00
      21    -1     0     0   501   502  0.000000000E+00  0.000000000E+00 -3.435297908E+02  3.435297908E+02  0.000000000E+00  0.00000E+00  9.000E+00
      25     1     1     2     0     0 -1.287314420E+02 -6.453428641E+00 -2.088198691E+02  2.753982001E+02  1.250000000E+02  0.00000E+00  9.000E+00
      25     1     1     2     0     0  1.532790870E+02 -6.074937487E+01  8.133460084E+01  2.223179758E+02  1.250000000E+02  0.00000E+00  9.000E+00
      21     1     1     2   501   512 -2.454764501E+01  6.720280351E+01  1.044627717E+01  7.230441468E+01  6.529361695E-07  0.00000E+00  9.000E+00
#rwgt            1           1   4.1714691346018053E-002           7      192859           0
</event>
<event>
      5   9999  3.79277E-02  1.75254E+01 -1.00000E+00  1.71245E-01
      21    -1     0     0   502   511  0.000000000E+00  0.000000000E+00  7.310891752E+01  7.310891752E+01  0.000000000E+00  0.00000E+00  9.000E+00
      21    -1     0     0   501   502  0.000000000E+00  0.000000000E+00 -8.078164901E+02  8.078164901E+02  0.000000000E+00  0.00000E+00  9.000E+00
      25     1     1     2     0     0 -8.372348210E+00 -8.545704642E+01 -6.966904172E+02  7.130045865E+02  1.250000000E+02  0.00000E+00  9.000E+00
      25     1     1     2     0     0  1.985389570E+01  7.221647162E+01 -3.711316027E+01  1.503721471E+02  1.250000000E+02  0.00000E+00  9.000E+00
      21     1     1     2   501   511 -1.148154749E+01  1.324057480E+01 -9.039951350E-01  1.754867405E+01  3.633256358E-07  0.00000E+00  9.000E+00
#rwgt            1           1   4.4157476768617032E-002           7      192968           0
</event>
<event>
      5   9999  3.79277E-02  4.90673E+01 -1.00000E+00  1.39544E-01
      21    -1     0     0   502   501  0.000000000E+00  0.000000000E+00  6.064678613E+02  6.064678613E+02  0.000000000E+00  0.00000E+00  9.000E+00
      21    -1     0     0   512   502  0.000000000E+00  0.000000000E+00 -1.507182064E+02  1.507182064E+02  0.000000000E+00  0.00000E+00  9.000E+00
      25     1     1     2     0     0  1.874141605E+02 -6.745512385E+01  3.299137722E+02  4.051448610E+02  1.250000000E+02  0.00000E+00  9.000E+00
      25     1     1     2     0     0 -2.256421186E+02  3.669431491E+01  1.463730374E+02  2.988493006E+02  1.250000000E+02  0.00000E+00  9.000E+00
      21     1     1     2   512   501  3.822795808E+01  3.076080894E+01 -2.053715470E+01  5.319190605E+01  9.233911863E-07  0.00000E+00  9.000E+00
#rwgt            1           1   2.9879894052926879E-002           7      193202           0
</event>
<event>
      5   9999  3.79277E-02  9.68552E+01 -1.00000E+00  1.24455E-01
      21    -1     0     0   511   501  0.000000000E+00  0.000000000E+00  4.011867683E+02  4.011867683E+02  0.000000000E+00  0.00000E+00  9.000E+00
      21    -1     0     0   501   502  0.000000000E+00  0.000000000E+00 -1.061807402E+03  1.061807402E+03  0.000000000E+00  0.00000E+00  9.000E+00
      25     1     1     2     0     0 -4.136323796E+01  3.850876736E+02 -5.349034637E+02  6.721236116E+02  1.250000000E+02  0.00000E+00  9.000E+00
      25     1     1     2     0     0  3.700644215E+01 -4.818448777E+02 -3.065142649E+02  5.857644215E+02  1.250000000E+02  0.00000E+00  9.000E+00
      21     1     1     2   511   502  4.356795815E+00  9.675720418E+01  1.807970946E+02  2.051061375E+02  5.722045898E-06  0.00000E+00  9.000E+00
#rwgt            1           1  0.12145264268558030                7      193323           0
</event>
<event>
      5   9999  3.79277E-02  4.81790E+01 -1.00000E+00  1.40001E-01
       3    -1     0     0   502     0  0.000000000E+00  0.000000000E+00  4.443218489E+02  4.443218489E+02  0.000000000E+00  0.00000E+00  9.000E+00
      21    -1     0     0   501   502  0.000000000E+00  0.000000000E+00 -2.235603517E+02  2.235603517E+02  0.000000000E+00  0.00000E+00  9.000E+00
      25     1     1     2     0     0 -1.213216482E+02  6.961505232E+01 -8.521500298E+01  2.060383328E+02  1.250000000E+02  0.00000E+00  9.000E+00
      25     1     1     2     0     0  1.565331058E+02 -3.673091850E+01  6.161045079E+01  2.127736385E+02  1.250000000E+02  0.00000E+00  9.000E+00
       3     1     1     2   501     0 -3.521145762E+01 -3.288413382E+01  2.443660494E+02  2.490702293E+02  3.814697266E-06  0.00000E+00  9.000E+00
#rwgt            1           1   3.9990325073477467E-002           7      193458           0
</event>
<event>
      5   9999  3.79277E-02  3.95504E+01 -1.00000E+00  1.45145E-01
      21    -1     0     0   502   501  0.000000000E+00  0.000000000E+00  7.485982687E+02  7.485982687E+02  0.000000000E+00  0.00000E+00  9.000E+00
      21    -1     0     0   511   502  0.000000000E+00  0.000000000E+00 -9.580248120E+01  9.580248120E+01  0.000000000E+00  0.00000E+00  9.000E+00
      25     1     1     2     0     0  9.229762233E+01 -1.825476003E+02  3.159818767E+02  3.966257983E+02  1.250000000E+02  0.00000E+00  9.000E+00
      25     1     1     2     0     0 -1.167475156E+02  1.514600790E+02  3.382752470E+02  4.081976000E+02  1.250000000E+02  0.00000E+00  9.000E+00
      21     1     1     2   511   501  2.444989327E+01  3.108752125E+01 -1.461336176E+00  3.957735163E+01  6.343065695E-07  0.00000E+00  9.000E+00
#rwgt            1           1   3.7917881515020131E-002           7      193613           0
</event>
<event>
      5   9999  3.79277E-02  7.45285E+01 -1.00000E+00  1.29857E-01
       2    -1     0     0   502     0  0.000000000E+00  0.000000000E+00  2.137924628E+02  2.137924628E+02  0.000000000E+00  0.00000E+00  9.000E+00
      21    -1     0     0   501   502  0.000000000E+00  0.000000000E+00 -4.691495971E+02  4.691495971E+02  0.000000000E+00  0.00000E+00  9.000E+00
      25     1     1     2     0     0  1.239411129E+02 -1.432993510E+02 -1.944899881E+02  2.989104531E+02  1.250000000E+02  0.00000E+00  9.000E+00
      25     1     1     2     0     0 -1.831400215E+02  9.802252930E+01  5.279419571E+01  2.481147131E+02  1.250000000E+02  0.00000E+00  9.000E+00
       2     1     1     2   501     0  5.919890861E+01  4.527682171E+01 -1.136613419E+02  1.359168937E+02  1.907348633E-06  0.00000E+00  9.000E+00
#rwgt            1           1   4.3500391920110640E-002           7      193889           0
</event>
<event>
      5   9999  3.79277E-02  4.58151E+01 -1.00000E+00  1.41277E-01
      21    -1     0     0   502   511  0.000000000E+00  0.000000000E+00  3.352562807E+02  3.352562807E+02  0.000000000E+00  0.00000E+00  9.000E+00
      21    -1     0     0   501   502  0.000000000E+00  0.000000000E+00 -4.227051460E+02  4.227051460E+02  0.000000000E+00  0.00000E+00  9.000E+00
      25     1     1     2     0     0 -5.793395094E+01 -1.709834705E+02  1.930258440E+02  2.923622177E+02  1.250000000E+02  0.00000E+00  9.000E+00
      25     1     1     2     0     0  1.037400487E+02  1.718907477E+02 -3.248465577E+02  4.018192540E+02  1.250000000E+02  0.00000E+00  9.000E+00
      21     1     1     2   501   511 -4.580609771E+01 -9.072771984E-01  4.437184832E+01  6.377995502E+01  9.536743164E-07  0.00000E+00  9.000E+00
#rwgt            1           1   5.0609377708154019E-002           7      194062           0
</event>
<event>
      5   9999  3.79277E-02  1.45235E+02 -1.00000E+00  1.16952E-01
      21    -1     0     0   502   512  0.000000000E+00  0.000000000E+00  1.536190426E+02  1.536190426E+02  0.000000000E+00  0.00000E+00  9.000E+00
      21    -1     0     0   501   502  0.000000000E+00  0.000000000E+00 -1.654898035E+03  1.654898035E+03  0.000000000E+00  0.00000E+00  9.000E+00
      25     1     1     2     0     0  2.394651199E+02  1.708069181E+01 -1.166309217E+03  1.197304257E+03  1.250000000E+02  0.00000E+00  9.000E+00
      25     1     1     2     0     0 -2.796618051E+02 -1.566420947E+02 -3.114544782E+02  4.640865900E+02  1.250000000E+02  0.00000E+00  9.000E+00
      21     1     1     2   501   512  4.019668515E+01  1.395614029E+02 -2.351529763E+01  1.471262312E+02  1.390207266E-06  0.00000E+00  9.000E+00
#rwgt            1           1   3.6854031717395312E-002           7      194197           0
</event>
<event>
      5   9999  3.79277E-02  2.62430E+01 -1.00000E+00  1.57188E-01
      21    -1     0     0   502   511  0.000000000E+00  0.000000000E+00  3.991613633E+02  3.991613633E+02  0.000000000E+00  0.00000E+00  9.000E+00
      21    -1     0     0   501   502  0.000000000E+00  0.000000000E+00 -1.234057596E+02  1.234057596E+02  0.000000000E+00  0.00000E+00  9.000E+00
      25     1     1     2     0     0 -1.061325210E+02  4.971113814E+01 -1.048580012E+01  1.716690457E+02  1.250000000E+02  0.00000E+00  9.000E+00
      25     1     1     2     0     0  9.501904890E+01 -7.348474707E+01  2.670539345E+02  3.183888058E+02  1.250000000E+02  0.00000E+00  9.000E+00
      21     1     1     2   501   511  1.111347206E+01  2.377360893E+01  1.918746930E+01  3.250927131E+01  4.768371582E-07  0.00000E+00  9.000E+00
#rwgt            1           1   2.8785210793328232E-002           7      194357           0
</event>
<event>
      5   9999  3.79277E-02  3.26214E+01 -1.00000E+00  1.50555E-01
      21    -1     0     0   502   501  0.000000000E+00  0.000000000E+00  1.856456046E+03  1.856456046E+03  0.000000000E+00  0.00000E+00  9.000E+00
      21    -1     0     0   501   512  0.000000000E+00  0.000000000E+00 -8.586762383E+01  8.586762383E+01  0.000000000E+00  0.00000E+00  9.000E+00
      25     1     1     2     0     0 -2.983896833E+02  1.833319952E+02  6.879425551E+02  7.820083009E+02  1.250000000E+02  0.00000E+00  9.000E+00
      25     1     1     2     0     0  3.241318653E+02 -1.632947030E+02  1.016440696E+03  1.086509694E+03  1.250000000E+02  0.00000E+00  9.000E+00
      21     1     1     2   502   512 -2.574218199E+01 -2.003729223E+01  6.620517060E+01  7.380567476E+01  1.348699152E-06  0.00000E+00  9.000E+00
#rwgt            1           1   1.4579248247976411E-002           7      194567           0
</event>
<event>
      5   9999  3.79277E-02  2.19834E+02 -1.00000E+00  1.10173E-01
      21    -1     0     0   502   501  0.000000000E+00  0.000000000E+00  8.453664339E+01  8.453664339E+01  0.000000000E+00  0.00000E+00  9.000E+00
       1    -1     0     0   501     0  0.000000000E+00  0.000000000E+00 -2.615231580E+03  2.615231580E+03  0.000000000E+00  0.00000E+00  9.000E+00
      25     1     1     2     0     0 -2.188892874E+02  2.949606308E+01 -4.181468969E+02  4.891363463E+02  1.250000000E+02  0.00000E+00  9.000E+00
      25     1     1     2     0     0  4.009685715E+02  9.368785441E+01 -1.338613892E+03  1.406081562E+03  1.250000000E+02  0.00000E+00  9.000E+00
       1     1     1     2   502     0 -1.820792840E+02 -1.231839175E+02 -7.739341483E+02  8.045503148E+02  1.868812365E-05  0.00000E+00  9.000E+00
#rwgt            1           1   3.3998367535401634E-002           7      194848           0
</event>
<event>
      5   9999 -3.79277E-02  1.01771E+02 -1.00000E+00  1.23486E-01
      21    -1     0     0   502   501  0.000000000E+00  0.000000000E+00  1.221280197E+02  1.221280197E+02  0.000000000E+00  0.00000E+00  9.000E+00
       2    -1     0     0   501     0  0.000000000E+00  0.000000000E+00 -3.437801682E+03  3.437801682E+03  0.000000000E+00  0.00000E+00  9.000E+00
      25     1     1     2     0     0  3.092058467E+02  8.338279085E+00 -1.571557413E+02  3.687827403E+02  1.250000000E+02  0.00000E+00  9.000E+00
      25     1     1     2     0     0 -2.228324474E+02 -6.216225444E+01 -1.134599097E+03  1.164671008E+03  1.250000000E+02  0.00000E+00  9.000E+00
       2     1     1     2   502     0 -8.637339928E+01  5.382397536E+01 -2.023918824E+03  2.026475954E+03  4.315837288E-05  0.00000E+00  9.000E+00
#rwgt            1           1  -5.4860189413825276E-002           7      195050           0
</event>
<event>
      5   9999  3.79277E-02  5.74447E+01 -1.00000E+00  1.35721E-01
      21    -1     0     0   511   501  0.000000000E+00  0.000000000E+00  5.624264642E+01  5.624264642E+01  0.000000000E+00  0.00000E+00  9.000E+00
      21    -1     0     0   501   502  0.000000000E+00  0.000000000E+00 -1.548540562E+03  1.548540562E+03  0.000000000E+00  0.00000E+00  9.000E+00
      25     1     1     2     0     0 -3.856487745E+01  1.365325473E+02 -8.717614945E+02  8.920322245E+02  1.250000000E+02  0.00000E+00  9.000E+00
      25     1     1     2     0     0 -1.812553348E+01 -1.458111107E+02 -6.259972456E+02  6.550473009E+02  1.250000000E+02  0.00000E+00  9.000E+00
      21     1     1     2   511   502  5.669041093E+01  9.278563418E+00  5.460824503E+00  5.770368302E+01  7.656355249E-07  0.00000E+00  9.000E+00
#rwgt            1           1   5.2426343842379243E-002           7      195110           0
</event>
<event>
      5   9999  3.79277E-02  3.58888E+01 -1.00000E+00  1.47823E-01
      21    -1     0     0   512   501  0.000000000E+00  0.000000000E+00  1.643568651E+02  1.643568651E+02  0.000000000E+00  0.00000E+00  9.000E+00
      21    -1     0     0   501   502  0.000000000E+00  0.000000000E+00 -3.177217024E+02  3.177217024E+02  0.000000000E+00  0.00000E+00  9.000E+00
      25     1     1     2     0     0 -1.355948701E+02  6.195829760E+01 -1.479540567E+01  1.951120280E+02  1.250000000E+02  0.00000E+00  9.000E+00
      25     1     1     2     0     0  1.648800359E+02 -4.121257844E+01 -1.359533881E+02  2.509825224E+02  1.250000000E+02  0.00000E+00  9.000E+00
      21     1     1     2   512   502 -2.928516579E+01 -2.074571916E+01 -2.616043625E+00  3.598401705E+01  3.411031706E-07  0.00000E+00  9.000E+00
#rwgt            1           1   4.2002679964869963E-002           7      195246           0
</event>
<event>
      5   9999  3.79277E-02  1.30821E+02 -1.00000E+00  1.18798E-01
      21    -1     0     0   502   501  0.000000000E+00  0.000000000E+00  7.812329436E+02  7.812329436E+02  0.000000000E+00  0.00000E+00  9.000E+00
      21    -1     0     0   511   502  0.000000000E+00  0.000000000E+00 -4.896505629E+02  4.896505629E+02  0.000000000E+00  0.00000E+00  9.000E+00
      25     1     1     2     0     0  3.955825977E+00 -2.276210557E+02  5.650496717E+02  6.218787061E+02  1.250000000E+02  0.00000E+00  9.000E+00
      25     1     1     2     0     0 -5.530790613E+00  3.584329339E+02 -4.047243763E+01  3.817954635E+02  1.250000000E+02  0.00000E+00  9.000E+00
      21     1     1     2   511   501  1.574964637E+00 -1.308118782E+02 -2.329948534E+02  2.672093369E+02  6.031565972E-06  0.00000E+00  9.000E+00
#rwgt            1           1   4.8558397451785598E-002           7      195520           0
</event>
<event>
      5   9999  3.79277E-02  2.03756E+01 -1.00000E+00  1.65705E-01
      21    -1     0     0   502   512  0.000000000E+00  0.000000000E+00  5.668513442E+02  5.668513442E+02  0.000000000E+00  0.00000E+00  9.000E+00
      21    -1     0     0   501   502  0.000000000E+00  0.000000000E+00 -6.234789365E+01  6.234789365E+01  0.000000000E+00  0.00000E+00  9.000E+00
      25     1     1     2     0     0  6.751608248E+01 -4.178288428E+01  7.948169453E+01  1.680671609E+02  1.250000000E+02  0.00000E+00  9.000E+00
      25     1     1     2     0     0 -7.231444476E+01  6.158540309E+01  3.541155969E+02  3.873564208E+02  1.250000000E+02  0.00000E+00  9.000E+00
      21     1     1     2   501   512  4.798362284E+00 -1.980251881E+01  7.090615911E+01  7.377565609E+01  9.536743164E-07  0.00000E+00  9.000E+00
#rwgt            1           1   3.6546717641031755E-002           7      195574           0
</event>
<event>
      5   9999  3.79277E-02  9.83958E+00 -1.00000E+00  1.96573E-01
      21    -1     0     0   502   501  0.000000000E+00  0.000000000E+00  3.184364443E+01  3.184364443E+01  0.000000000E+00  0.00000E+00  9.000E+00
      21    -1     0     0   511   502  0.000000000E+00  0.000000000E+00 -3.219495645E+03  3.219495645E+03  0.000000000E+00  0.00000E+00  9.000E+00
      25     1     1     2     0     0 -2.577535568E+02  2.666059405E+01 -1.710853295E+03  1.734875119E+03  1.250000000E+02  0.00000E+00  9.000E+00
      25     1     1     2     0     0  2.609789248E+02 -3.595652491E+01 -1.055147863E+03  1.094698536E+03  1.250000000E+02  0.00000E+00  9.000E+00
      21     1     1     2   511   501 -3.225367976E+00  9.295930857E+00 -4.216508429E+02  4.217656347E+02  5.394796609E-06  0.00000E+00  9.000E+00
#rwgt            1           1   3.7779210904758026E-002           7      195697           0
</event>
<event>
      5   9999  3.79277E-02  9.46733E+00 -1.00000E+00  1.98546E-01
      21    -1     0     0   512   501  0.000000000E+00  0.000000000E+00  3.746169103E+01  3.746169103E+01  0.000000000E+00  0.00000E+00  9.000E+00
      21    -1     0     0   501   502  0.000000000E+00  0.000000000E+00 -1.634308734E+03  1.634308734E+03  0.000000000E+00  0.00000E+00  9.000E+00
      25     1     1     2     0     0  9.209259159E+01 -1.855038283E+01 -1.811108663E+02  2.392724556E+02  1.250000000E+02  0.00000E+00  9.000E+00
      25     1     1     2     0     0 -8.882331131E+01  9.665440665E+00 -1.414648730E+03  1.422968387E+03  1.250000000E+02  0.00000E+00  9.000E+00
      21     1     1     2   512   502 -3.269280285E+00  8.884942164E+00 -1.087446216E+00  9.529581843E+00  2.091477640E-07  0.00000E+00  9.000E+00
#rwgt            1           1   4.6376956643746581E-002           7      195986           0
</event>
<event>
      5   9999  3.79277E-02  2.93020E+01 -1.00000E+00  1.53753E-01
      21    -1     0     0   511   501  0.000000000E+00  0.000000000E+00  3.818830239E+02  3.818830239E+02  0.000000000E+00  0.00000E+00  9.000E+00
      21    -1     0     0   501   502  0.000000000E+00  0.000000000E+00 -3.881930661E+02  3.881930661E+02  0.000000000E+00  0.00000E+00  9.000E+00
      25     1     1     2     0     0  1.710414354E+02  5.052994873E+01 -2.291962835E+02  3.161714483E+02  1.250000000E+02  0.00000E+00  9.000E+00
      25     1     1     2     0     0 -1.480663035E+02 -6.871650718E+01 -2.245412862E+01  2.068206384E+02  1.250000000E+02  0.00000E+00  9.000E+00
      21     1     1     2   511   502 -2.297513189E+01  1.818655845E+01  2.453403699E+02  2.470840033E+02  2.697398305E-06  0.00000E+00  9.000E+00
#rwgt            1           1   2.0693767904796483E-002           7      196245           0
</event>
<event>
      5   9999  3.79277E-02  1.95769E+01 -1.00000E+00  1.67139E-01
      21    -1     0     0   502   501  0.000000000E+00  0.000000000E+00  4.512619489E+01  4.512619489E+01  0.000000000E+00  0.00000E+00  9.000E+00
      21    -1     0     0   512   502  0.000000000E+00  0.000000000E+00 -1.699143952E+03  1.699143952E+03  0.000000000E+00  0.00000E+00  9.000E+00
      25     1     1     2     0     0 -6.181653178E+01  2.043897244E+02 -4.638256052E+02  5.256953824E+02  1.250000000E+02  0.00000E+00  9.000E+00
      25     1     1     2     0     0  4.232018549E+01 -2.026157179E+02 -1.092266173E+03  1.118711098E+03  1.250000000E+02  0.00000E+00  9.000E+00
      21     1     1     2   512   501  1.949634629E+01 -1.774006476E+00 -9.792597866E+01  9.986366664E+01  1.348699152E-06  0.00000E+00  9.000E+00
#rwgt            1           1   4.9977993162539959E-002           7      196367           0
</event>
<event>
      5   9999  3.79277E-02  3.16737E+01 -1.00000E+00  1.51420E-01
      21    -1     0     0   502   501  0.000000000E+00  0.000000000E+00  4.453128746E+02  4.453128746E+02  0.000000000E+00  0.00000E+00  9.000E+00
      21    -1     0     0   511   502  0.000000000E+00  0.000000000E+00 -5.813500643E+02  5.813500643E+02  0.000000000E+00  0.00000E+00  9.000E+00
      25     1     1     2     0     0  1.995456453E+02  1.533305354E+02  1.633912828E+02  3.250391191E+02  1.250000000E+02  0.00000E+00  9.000E+00
      25     1     1     2     0     0 -2.198539707E+02 -1.290242760E+02  9.994718750E+01  3.009941403E+02  1.250000000E+02  0.00000E+00  9.000E+00
      21     1     1     2   511   501  2.030832538E+01 -2.430625934E+01 -3.993756600E+02  4.006296796E+02  5.394796609E-06  0.00000E+00  9.000E+00
#rwgt            1           1   4.2172238345293121E-002           7      196774           0
</event>
<event>
      5   9999 -3.79277E-02  8.44237E+01 -1.00000E+00  1.27228E-01
      21    -1     0     0   502   501  0.000000000E+00  0.000000000E+00  4.558518435E+02  4.558518435E+02  0.000000000E+00  0.00000E+00  9.000E+00
      21    -1     0     0   501   512  0.000000000E+00  0.000000000E+00 -2.192257012E+03  2.192257012E+03  0.000000000E+00  0.00000E+00  9.000E+00
      25     1     1     2     0     0 -2.567487805E+02  1.295054675E+02  2.208632005E+02  3.835324703E+02  1.250000000E+02  0.00000E+00  9.000E+00
      25     1     1     2     0     0  1.823741881E+02 -1.694527823E+02  2.575650690E+01  2.797552279E+02  1.250000000E+02  0.00000E+00  9.000E+00
      21     1     1     2   502   512  7.437459245E+01  3.994731475E+01 -1.983024876E+03  1.984821157E+03  2.157918644E-05  0.00000E+00  9.000E+00
#rwgt            1           1 -0.16389035831469195                7      196935           0
</event>
<event>
      5   9999  3.79277E-02  2.15160E+01 -1.00000E+00  1.63793E-01
      21    -1     0     0   502   501  0.000000000E+00  0.000000000E+00  5.119559258E+02  5.119559258E+02  0.000000000E+00  0.00000E+00  9.000E+00
      21    -1     0     0   501   511  0.000000000E+00  0.000000000E+00 -3.108561401E+02  3.108561401E+02  0.000000000E+00  0.00000E+00  9.000E+00
      25     1     1     2     0     0 -7.421462850E+01 -2.777176722E+01  4.746333597E+02  4.971729159E+02  1.250000000E+02  0.00000E+00  9.000E+00
      25     1     1     2     0     0  5.452213457E+01  3.644022855E+01 -2.687980701E+02  3.036082277E+02  1.250000000E+02  0.00000E+00  9.000E+00
      21     1     1     2   502   511  1.969249393E+01 -8.668461338E+00 -4.735503945E+00  2.203092228E+01  5.127385418E-07  0.00000E+00  9.000E+00
#rwgt            1           1   2.6065810446541295E-002           7      197053           0
</event>
<event>
      5   9999  3.79277E-02  5.10827E+01 -1.00000E+00  1.38547E-01
      21    -1     0     0   502   501  0.000000000E+00  0.000000000E+00  2.909304560E+02  2.909304560E+02  0.000000000E+00  0.00000E+00  9.000E+00
      21    -1     0     0   512   502  0.000000000E+00  0.000000000E+00 -1.593421550E+02  1.593421550E+02  0.000000000E+00  0.00000E+00  9.000E+00
      25     1     1     2     0     0 -1.484213789E+02 -7.273008145E+01  6.691485011E+01  2.177640182E+02  1.250000000E+02  0.00000E+00  9.000E+00
      25     1     1     2     0     0  1.107420954E+02  3.823781435E+01  5.860033095E+01  1.810661231E+02  1.250000000E+02  0.00000E+00  9.000E+00
      21     1     1     2   512   501  3.767928356E+01  3.449226710E+01  6.073119895E+00  5.144246965E+01  6.637292341E-07  0.00000E+00  9.000E+00
#rwgt            1           1   4.2656098258886034E-002           7      197365           0
</event>
<event>
      5   9999  3.79277E-02  8.15050E+01 -1.00000E+00  1.27959E-01
      21    -1     0     0   502   511  0.000000000E+00  0.000000000E+00  1.750401308E+03  1.750401308E+03  0.000000000E+00  0.00000E+00  9.000E+00
      21    -1     0     0   501   502  0.000000000E+00  0.000000000E+00 -3.321890704E+01  3.321890704E+01  0.000000000E+00  0.00000E+00  9.000E+00
      25     1     1     2     0     0  3.356862773E+01 -5.099113937E+01  3.672059900E+02  3.926731314E+02  1.250000000E+02  0.00000E+00  9.000E+00
      25     1     1     2     0     0  3.352197027E+00  1.236541823E+02  3.935578102E+02  4.310618796E+02  1.250000000E+02  0.00000E+00  9.000E+00
      21     1     1     2   501   511 -3.692082476E+01 -7.266304294E+01  9.564186010E+02  9.598852043E+02  1.525878906E-05  0.00000E+00  9.000E+00
#rwgt            1           1   1.4006050796349192E-002           7      197534           0
</event>
<event>
      5   9999  3.79277E-02  2.81463E+01 -1.00000E+00  1.54989E-01
      21    -1     0     0   512   501  0.000000000E+00  0.000000000E+00  2.440802728E+02  2.440802728E+02  0.000000000E+00  0.00000E+00  9.000E+00
      21    -1     0     0   501   502  0.000000000E+00  0.000000000E+00 -6.082250628E+02  6.082250628E+02  0.000000000E+00  0.00000E+00  9.000E+00
      25     1     1     2     0     0 -2.542355435E+02  1.536104397E+02 -3.243797771E+01  3.238967446E+02  1.250000000E+02  0.00000E+00  9.000E+00
      25     1     1     2     0     0  2.511413224E+02 -1.815861046E+02 -3.581150994E+02  4.898131293E+02  1.250000000E+02  0.00000E+00  9.000E+00
      21     1     1     2   512   502  3.094221143E+00  2.797566488E+01  2.640828710E+01  3.859546162E+01  5.840038640E-07  0.00000E+00  9.000E+00
#rwgt            1           1   4.0579843466217173E-002           7      197621           0
</event>
<event>
      5   9999  5.16902E-02  4.00773E+01 -1.00000E+00  1.44788E-01
       1    -1     0     0   502     0  0.000000000E+00  0.000000000E+00  1.409435366E+03  1.409435366E+03  0.000000000E+00  0.00000E+00  9.000E+00
      21    -1     0     0   501   502  0.000000000E+00  0.000000000E+00 -3.326708792E+01  3.326708792E+01  0.000000000E+00  0.00000E+00  9.000E+00
      25     1     1     2     0     0  3.927739063E+00  1.336451867E+02  4.710156348E+02  5.053287952E+02  1.250000000E+02  0.00000E+00  9.000E+00
      25     1     1     2     0     0 -4.397781261E+01 -1.321688555E+02  5.724988549E+02  6.023143641E+02  1.250000000E+02  0.00000E+00  9.000E+00
       1     1     1     2   501     0  4.005007354E+01 -1.476331207E+00  3.326537886E+02  3.350592948E+02  5.394796609E-06  0.00000E+00  9.000E+00
#rwgt            1           1  0.52853589976971549                7      197892           0
</event>
<event>
      5   9999  3.79277E-02  7.49893E+01 -1.00000E+00  1.29724E-01
      21    -1     0     0   502   511  0.000000000E+00  0.000000000E+00  3.237210048E+02  3.237210048E+02  0.000000000E+00  0.00000E+00  9.000E+00
      21    -1     0     0   501   502  0.000000000E+00  0.000000000E+00 -8.267003789E+02  8.267003789E+02  0.000000000E+00  0.00000E+00  9.000E+00
      25     1     1     2     0     0  1.945421901E+02 -6.628141747E+01  6.919168783E+01  2.503045739E+02  1.250000000E+02  0.00000E+00  9.000E+00
      25     1     1     2     0     0 -1.565650834E+02  1.619685763E+00 -7.129743934E+02  7.405894506E+02  1.250000000E+02  0.00000E+00  9.000E+00
      21     1     1     2   501   511 -3.797710678E+01  6.466173171E+01  1.408033315E+02  1.595273592E+02  2.697398305E-06  0.00000E+00  9.000E+00
#rwgt            1           1   4.2406333062395260E-002           7      197994           0
</event>
<event>
      5   9999  3.79277E-02  2.86905E+01 -1.00000E+00  1.54398E-01
      21    -1     0     0   502   501  0.000000000E+00  0.000000000E+00  4.433478460E+02  4.433478460E+02  0.000000000E+00  0.00000E+00  9.000E+00
      21    -1     0     0   501   512  0.000000000E+00  0.000000000E+00 -8.451710190E+01  8.451710190E+01  0.000000000E+00  0.00000E+00  9.000E+00
      25     1     1     2     0     0  4.915430301E+01 -2.480945923E+00  3.450183752E+02  3.702498884E+02  1.250000000E+02  0.00000E+00  9.000E+00
      25     1     1     2     0     0 -2.352630824E+01  1.537861965E+01  8.218388185E+00  1.283843099E+02  1.250000000E+02  0.00000E+00  9.000E+00
      21     1     1     2   502   512 -2.562799477E+01 -1.289767373E+01  5.593980670E+00  2.923074961E+01  7.348554138E-07  0.00000E+00  9.000E+00
#rwgt            1           1   4.8910858239831240E-002           7      198155           0
</event>
<event>
      5   9999  3.79277E-02  9.82387E+01 -1.00000E+00  1.24176E-01
      21    -1     0     0   502   501  0.000000000E+00  0.000000000E+00  4.904528172E+02  4.904528172E+02  0.000000000E+00  0.00000E+00  9.000E+00
       3    -1     0     0   501     0  0.000000000E+00  0.000000000E+00 -1.001880571E+03  1.001880571E+03  0.000000000E+00  0.00000E+00  9.000E+00
      25     1     1     2     0     0 -7.248119369E+01  4.435628035E+02  5.366649346E+01  4.695812779E+02  1.250000000E+02  0.00000E+00  9.000E+00
      25     1     1     2     0     0  1.697041734E+02 -4.294726330E+02 -3.068448632E+01  4.793879292E+02  1.250000000E+02  0.00000E+00  9.000E+00
       3     1     1     2   502     0 -9.722297967E+01 -1.409017044E+01 -5.344097613E+02  5.433641814E+02  0.000000000E+00  0.00000E+00  9.000E+00
#rwgt            1           1  0.10195377644872754                7      198279           0
</event>
<event>
      5   9999  3.79277E-02  6.49894E+01 -1.00000E+00  1.32875E-01
      21    -1     0     0   502   501  0.000000000E+00  0.000000000E+00  2.718188454E+02  2.718188454E+02  0.000000000E+00  0.00000E+00  9.000E+00
      21    -1     0     0   501   511  0.000000000E+00  0.000000000E+00 -2.982080404E+02  2.982080404E+02  0.000000000E+00  0.00000E+00  9.000E+00
      25     1     1     2     0     0  7.734999417E+01  1.741667947E+02  1.410444255E+02  2.680216856E+02  1.250000000E+02  0.00000E+00  9.000E+00
      25     1     1     2     0     0 -7.807587659E+01 -1.091814604E+02 -1.430037884E+02  2.325758313E+02  1.250000000E+02  0.00000E+00  9.000E+00
      21     1     1     2   502   511  7.258824156E-01 -6.498533427E+01 -2.442983203E+01  6.942936892E+01  4.768371582E-07  0.00000E+00  9.000E+00
#rwgt            1           1   8.0256744719103643E-002           7      198365           0
</event>
<event>
      5   9999  3.79277E-02  1.66084E+01 -1.00000E+00  1.73315E-01
      21    -1     0     0   502   501  0.000000000E+00  0.000000000E+00  6.972193897E+02  6.972193897E+02  0.000000000E+00  0.00000E+00  9.000E+00
      21    -1     0     0   501   512  0.000000000E+00  0.000000000E+00 -8.991691780E+02  8.991691780E+02  0.000000000E+00  0.00000E+00  9.000E+00
      25     1     1     2     0     0  2.582416179E+01 -2.680251807E+02  1.467500141E+02  3.311569892E+02  1.250000000E+02  0.00000E+00  9.000E+00
      25     1     1     2     0     0 -1.011208765E+01  2.626429699E+02  4.119546160E+02  5.043958659E+02  1.250000000E+02  0.00000E+00  9.000E+00
      21     1     1     2   502   512 -1.571207413E+01  5.382210881E+00 -7.606544183E+02  7.608357126E+02  1.078959322E-05  0.00000E+00  9.000E+00
#rwgt            1           1   3.7667427708306417E-002           7      198434           0
</event>
<event>
      5   9999  3.79277E-02  2.42664E+01 -1.00000E+00  1.59726E-01
      21    -1     0     0   502   501  0.000000000E+00  0.000000000E+00  1.029050476E+02  1.029050476E+02  0.000000000E+00  0.00000E+00  9.000E+00
      21    -1     0     0   511   502  0.000000000E+00  0.000000000E+00 -1.633833584E+03  1.633833584E+03  0.000000000E+00  0.00000E+00  9.000E+00
      25     1     1     2     0     0 -4.136075659E+01  5.695310512E+01 -3.000162503E+02  3.325494232E+02  1.250000000E+02  0.00000E+00  9.000E+00
      25     1     1     2     0     0  5.881302230E+01 -4.009254121E+01  2.673453228E+01  1.463083001E+02  1.250000000E+02  0.00000E+00  9.000E+00
      21     1     1     2   511   501 -1.745226570E+01 -1.686056391E+01 -1.257646818E+03  1.257880908E+03  2.157918644E-05  0.00000E+00  9.000E+00
#rwgt            1           1   4.4933370308381342E-002           7      198695           0
</event>
<event>
      5   9999  3.79277E-02  2.89385E+01 -1.00000E+00  1.54135E-01
      21    -1     0     0   502   501  0.000000000E+00  0.000000000E+00  6.430766446E+01  6.430766446E+01  0.000000000E+00  0.00000E+00  9.000E+00
      21    -1     0     0   512   502  0.000000000E+00  0.000000000E+00 -7.727484039E+02  7.727484039E+02  0.000000000E+00  0.00000E+00  9.000E+00
      25     1     1     2     0     0  1.281461515E+02  1.750080325E+01 -1.517848599E+02  2.353536869E+02  1.250000000E+02  0.00000E+00  9.000E+00
      25     1     1     2     0     0 -1.552749188E+02 -7.427807123E+00 -4.837772810E+02  5.232885727E+02  1.250000000E+02  0.00000E+00  9.000E+00
      21     1     1     2   512   501  2.712876733E+01 -1.007299613E+01 -7.287859858E+01  7.841380873E+01  1.348699152E-06  0.00000E+00  9.000E+00
#rwgt            1           1   5.0645965375508015E-002           7      198847           0
</event>
<event>
      5   9999  3.79277E-02  1.49867E+01 -1.00000E+00  1.77420E-01
      21    -1     0     0   502   501  0.000000000E+00  0.000000000E+00  4.524820112E+01  4.524820112E+01  0.000000000E+00  0.00000E+00  9.000E+00
      21    -1     0     0   501   511  0.000000000E+00  0.000000000E+00 -1.423021576E+03  1.423021576E+03  0.000000000E+00  0.00000E+00  9.000E+00
      25     1     1     2     0     0 -8.878493198E+01  1.849708047E+02 -7.516220859E+02  7.890866383E+02  1.250000000E+02  0.00000E+00  9.000E+00
      25     1     1     2     0     0  7.516784134E+01 -1.787116231E+02 -4.831016217E+02  5.353505632E+02  1.250000000E+02  0.00000E+00  9.000E+00
      21     1     1     2   502   511  1.361709064E+01 -6.259181556E+00 -1.430496674E+02  1.438325758E+02  1.907348633E-06  0.00000E+00  9.000E+00
#rwgt            1           1   4.8050518376259871E-002           7      199170           0
</event>
<event>
      5   9999  3.79277E-02  6.06017E+01 -1.00000E+00  1.34472E-01
      21    -1     0     0   512   501  0.000000000E+00  0.000000000E+00  7.742379699E+02  7.742379699E+02  0.000000000E+00  0.00000E+00  9.000E+00
      21    -1     0     0   501   502  0.000000000E+00  0.000000000E+00 -8.723703602E+01  8.723703602E+01  0.000000000E+00  0.00000E+00  9.000E+00
      25     1     1     2     0     0  1.858478856E+01 -1.272680955E+02  4.382916234E+02  4.735684846E+02  1.250000000E+02  0.00000E+00  9.000E+00
      25     1     1     2     0     0 -7.191325497E+01  9.848193499E+01  5.219817550E+01  1.822631539E+02  1.250000000E+02  0.00000E+00  9.000E+00
      21     1     1     2   512   502  5.332846641E+01  2.878616047E+01  1.965111350E+02  2.056433674E+02  0.000000000E+00  0.00000E+00  9.000E+00
#rwgt            1           1   4.5808039367793714E-002           7      199463           0
</event>
<event>
      5   9999  3.79277E-02  2.72369E+02 -1.00000E+00  1.06974E-01
      21    -1     0     0   511   501  0.000000000E+00  0.000000000E+00  2.258967507E+03  2.258967507E+03  0.000000000E+00  0.00000E+00  9.000E+00
      21    -1     0     0   501   502  0.000000000E+00  0.000000000E+00 -1.041860304E+02  1.041860304E+02  0.000000000E+00  0.00000E+00  9.000E+00
      25     1     1     2     0     0  8.211801996E+01 -1.079535404E+01  3.832328078E+02  4.115243539E+02  1.250000000E+02  0.00000E+00  9.000E+00
      25     1     1     2     0     0 -3.266744515E+01  2.786377604E+02  2.236115494E+02  3.799122116E+02  1.250000000E+02  0.00000E+00  9.000E+00
      21     1     1     2   511   502 -4.945057481E+01 -2.678424064E+02  1.547937119E+03  1.571716972E+03  3.051757812E-05  0.00000E+00  9.000E+00
#rwgt            2          11   4.2367337337646615E-004           7      199678           0
</event>
<event>
      5   9999  3.79277E-02  1.01915E+01 -1.00000E+00  1.94809E-01
      21    -1     0     0   512   501  0.000000000E+00  0.000000000E+00  1.636722297E+02  1.636722297E+02  0.000000000E+00  0.00000E+00  9.000E+00
      21    -1     0     0   501   502  0.000000000E+00  0.000000000E+00 -2.165393213E+02  2.165393213E+02  0.000000000E+00  0.00000E+00  9.000E+00
      25     1     1     2     0     0  1.261683170E+02  1.506191667E+00 -8.421078375E+01  1.965633967E+02  1.250000000E+02  0.00000E+00  9.000E+00
      25     1     1     2     0     0 -1.161759223E+02 -3.511064029E+00  3.078501157E+01  1.734413141E+02  1.250000000E+02  0.00000E+00  9.000E+00
      21     1     1     2   512   502 -9.992394671E+00  2.004872363E+00  5.586805567E-01  1.020684028E+01  1.248944895E-07  0.00000E+00  9.000E+00
#rwgt            1           1   1.7893081362895403E-002           7      199698           0
</event>
<event>
      5   9999  3.79277E-02  1.06664E+02 -1.00000E+00  1.22581E-01
      21    -1     0     0   502   501  0.000000000E+00  0.000000000E+00  1.300103757E+02  1.300103757E+02  0.000000000E+00  0.00000E+00  9.000E+00
       2    -1     0     0   501     0  0.000000000E+00  0.000000000E+00 -1.183227561E+03  1.183227561E+03  0.000000000E+00  0.00000E+00  9.000E+00
      25     1     1     2     0     0  3.029672444E+01  2.333994348E+02 -1.714728151E+02  3.168929062E+02  1.250000000E+02  0.00000E+00  9.000E+00
      25     1     1     2     0     0 -9.949419871E+01 -3.145711324E+02 -6.142037740E+02  7.083257505E+02  1.250000000E+02  0.00000E+00  9.000E+00
       2     1     1     2   502     0  6.919747427E+01  8.117169759E+01 -2.675405967E+02  2.880192803E+02  0.000000000E+00  0.00000E+00  9.000E+00
#rwgt            1           1   3.2765275868073457E-002           7      200143           0
</event>
<event>
      5   9999  3.79277E-02  1.15454E+01 -1.00000E+00  1.88809E-01
      21    -1     0     0   502   511  0.000000000E+00  0.000000000E+00  2.617372536E+02  2.617372536E+02  0.000000000E+00  0.00000E+00  9.000E+00
      21    -1     0     0   501   502  0.000000000E+00  0.000000000E+00 -3.530329043E+02  3.530329043E+02  0.000000000E+00  0.00000E+00  9.000E+00
      25     1     1     2     0     0  2.072978506E+02  1.023469733E+02 -1.400869186E+02  2.978198223E+02  1.250000000E+02  0.00000E+00  9.000E+00
      25     1     1     2     0     0 -2.048956893E+02 -9.105425059E+01 -1.013244869E+01  2.569061824E+02  1.250000000E+02  0.00000E+00  9.000E+00
      21     1     1     2   501   511 -2.402161306E+00 -1.129272267E+01  5.892371660E+01  6.004415328E+01  9.536743164E-07  0.00000E+00  9.000E+00
#rwgt            1           1   3.4915906871025915E-002           7      200257           0
</event>
<event>
      5   9999  3.79277E-02  3.47648E+01 -1.00000E+00  1.48722E-01
      21    -1     0     0   502   501  0.000000000E+00  0.000000000E+00  3.011207326E+02  3.011207326E+02  0.000000000E+00  0.00000E+00  9.000E+00
      21    -1     0     0   512   502  0.000000000E+00  0.000000000E+00 -3.270698747E+02  3.270698747E+02  0.000000000E+00  0.00000E+00  9.000E+00
      25     1     1     2     0     0 -2.031817583E+01 -2.226888712E+01  2.561527791E+02  2.866146853E+02  1.250000000E+02  0.00000E+00  9.000E+00
      25     1     1     2     0     0  5.499342908E+01  1.977464739E+01 -1.451152469E+02  2.002467198E+02  1.250000000E+02  0.00000E+00  9.000E+00
      21     1     1     2   512   501 -3.467525325E+01  2.494239731E+00 -1.369866743E+02  1.413292021E+02  3.814697266E-06  0.00000E+00  9.000E+00
#rwgt            1           1   3.8319813473909441E-002           7      200483           0
</event>
<event>
      5   9999  3.79277E-02  2.25884E+01 -1.00000E+00  1.62123E-01
      21    -1     0     0   502   501  0.000000000E+00  0.000000000E+00  1.419177121E+03  1.419177121E+03  0.000000000E+00  0.00000E+00  9.000E+00
      21    -1     0     0   511   502  0.000000000E+00  0.000000000E+00 -4.610007312E+01  4.610007312E+01  0.000000000E+00  0.00000E+00  9.000E+00
      25     1     1     2     0     0 -3.433354534E+01  6.163447799E+01  9.159737171E+01  1.702723692E+02  1.250000000E+02  0.00000E+00  9.000E+00
      25     1     1     2     0     0  5.678177806E+01 -5.912232275E+01  1.226355837E+03  1.235432418E+03  1.250000000E+02  0.00000E+00  9.000E+00
      21     1     1     2   511   501 -2.244823272E+01 -2.512155240E+00  5.512383923E+01  5.957240744E+01  1.507891493E-06  0.00000E+00  9.000E+00
#rwgt            1           1   4.2778704087706843E-002           7      200650           0
</event>
<event>
      5   9999 -3.79277E-02  1.87010E+01 -1.00000E+00  1.68812E-01
      21    -1     0     0   502   501  0.000000000E+00  0.000000000E+00  1.178245408E+03  1.178245408E+03  0.000000000E+00  0.00000E+00  9.000E+00
      21    -1     0     0   512   502  0.000000000E+00  0.000000000E+00 -5.310443679E+01  5.310443679E+01  0.000000000E+00  0.00000E+00  9.000E+00
      25     1     1     2     0     0  4.734203017E+01  1.726301472E+02  4.891554129E+02  5.356682309E+02  1.250000000E+02  0.00000E+00  9.000E+00
      25     1     1     2     0     0 -3.306544584E+01 -1.847092781E+02  6.381936108E+02  6.768507413E+02  1.250000000E+02  0.00000E+00  9.000E+00
      21     1     1     2   512   501 -1.427658433E+01  1.207913091E+01 -2.208052626E+00  1.883087253E+01  5.413860716E-07  0.00000E+00  9.000E+00
#rwgt            1           1  -5.0892938401609515E-002           7      200789           0
</event>
<event>
      5   9999 -3.79277E-02  8.66995E+00 -1.00000E+00  2.03206E-01
      21    -1     0     0   502   501  0.000000000E+00  0.000000000E+00  1.603114100E+02  1.603114100E+02  0.000000000E+00  0.00000E+00  9.000E+00
      21    -1     0     0   501   511  0.000000000E+00  0.000000000E+00 -7.452640374E+02  7.452640374E+02  0.000000000E+00  0.00000E+00  9.000E+00
      25     1     1     2     0     0 -3.722485159E+01  2.031135045E+02 -3.134949943E+02  3.956575498E+02  1.250000000E+02  0.00000E+00  9.000E+00
      25     1     1     2     0     0  4.515761489E+01 -1.996150327E+02 -1.496792094E+00  2.398178722E+02  1.250000000E+02  0.00000E+00  9.000E+00
      21     1     1     2   502   511 -7.932763301E+00 -3.498471791E+00 -2.699608410E+02  2.701000254E+02  5.394796609E-06  0.00000E+00  9.000E+00
#rwgt            1           1  -3.9150775402298783E-002           7      200938           0
</event>
<event>
      5   9999  3.79277E-02  1.71441E+01 -1.00000E+00  1.72086E-01
      21    -1     0     0   502   501  0.000000000E+00  0.000000000E+00  2.195068472E+02  2.195068472E+02  0.000000000E+00  0.00000E+00  9.000E+00
      21    -1     0     0   501   512  0.000000000E+00  0.000000000E+00 -3.120638850E+02  3.120638850E+02  0.000000000E+00  0.00000E+00  9.000E+00
      25     1     1     2     0     0 -1.401060064E+02  9.423464866E+01 -1.329003904E+02  2.485907798E+02  1.250000000E+02  0.00000E+00  9.000E+00
      25     1     1     2     0     0  1.471629547E+02 -1.098590164E+02  8.288837587E+01  2.371105683E+02  1.250000000E+02  0.00000E+00  9.000E+00
      21     1     1     2   502   512 -7.056948323E+00  1.562436776E+01 -4.254502332E+01  4.586938409E+01  6.743495762E-07  0.00000E+00  9.000E+00
#rwgt            1           1   3.9605553023290191E-002           7      201490           0
</event>
<event>
      5   9999  3.79277E-02  8.10319E+01 -1.00000E+00  1.28081E-01
      21    -1     0     0   502   501  0.000000000E+00  0.000000000E+00  1.204876318E+03  1.204876318E+03  0.000000000E+00  0.00000E+00  9.000E+00
      21    -1     0     0   501   511  0.000000000E+00  0.000000000E+00 -4.883514028E+01  4.883514028E+01  0.000000000E+00  0.00000E+00  9.000E+00
      25     1     1     2     0     0  2.237183977E+01 -4.935906804E+01  2.418077081E+02  2.775478058E+02  1.250000000E+02  0.00000E+00  9.000E+00
      25     1     1     2     0     0 -9.354880769E+01  1.062919697E+01  8.697669700E+02  8.837329582E+02  1.250000000E+02  0.00000E+00  9.000E+00
      21     1     1     2   502   511  7.117696791E+01  3.872987106E+01  4.446649974E+01  9.243069443E+01  1.846782373E-06  0.00000E+00  9.000E+00
#rwgt            1           1   4.1877884448719725E-002           7      201829           0
</event>
<event>
      5   9999  3.79277E-02  5.69466E+01 -1.00000E+00  1.35927E-01
       2    -1     0     0   502     0  0.000000000E+00  0.000000000E+00  2.609092576E+03  2.609092576E+03  0.000000000E+00  0.00000E+00  9.000E+00
      21    -1     0     0   501   502  0.000000000E+00  0.000000000E+00 -5.824695656E+01  5.824695656E+01  0.000000000E+00  0.00000E+00  9.000E+00
      25     1     1     2     0     0  1.630986847E+02 -2.232976095E+01  7.865829858E+02  8.132881363E+02  1.250000000E+02  0.00000E+00  9.000E+00
      25     1     1     2     0     0 -1.203278361E+02 -1.526776600E+01  1.264181030E+02  2.152171684E+02  1.250000000E+02  0.00000E+00  9.000E+00
       2     1     1     2   501     0 -4.277084853E+01  3.759752695E+01  1.637844531E+03  1.638834228E+03  2.157918644E-05  0.00000E+00  9.000E+00
#rwgt            1           1   4.3619483989265580E-002           7      202062           0
</event>
<event>
      5   9999  3.79277E-02  6.81725E+01 -1.00000E+00  1.31805E-01
      21    -1     0     0   511   501  0.000000000E+00  0.000000000E+00  8.844542511E+01  8.844542511E+01  0.000000000E+00  0.00000E+00  9.000E+00
      21    -1     0     0   501   502  0.000000000E+00  0.000000000E+00 -9.253905343E+02  9.253905343E+02  0.000000000E+00  0.00000E+00  9.000E+00
      25     1     1     2     0     0 -1.512777852E+02 -4.060570398E+01 -7.240346013E+02  7.512555460E+02  1.250000000E+02  0.00000E+00  9.000E+00
      25     1     1     2     0     0  8.938374549E+01  6.918216582E+01 -8.693617387E+01  1.896273302E+02  1.250000000E+02  0.00000E+00  9.000E+00
      21     1     1     2   511   502  6.189403972E+01 -2.857646184E+01 -2.597433399E+01  7.295308321E+01  4.768371582E-07  0.00000E+00  9.000E+00
#rwgt            1           1   4.1549711202641698E-002           7      202158           0
</event>
<event>
      5   9999  3.79277E-02  7.19074E+00 -1.00000E+00  2.13917E-01
      21    -1     0     0   502   501  0.000000000E+00  0.000000000E+00  1.030391258E+03  1.030391258E+03  0.000000000E+00  0.00000E+00  9.000E+00
      21    -1     0     0   501   512  0.000000000E+00  0.000000000E+00 -3.673044126E+01  3.673044126E+01  0.000000000E+00  0.00000E+00  9.000E+00
      25     1     1     2     0     0 -1.007826827E+02  9.490458408E+01  5.425983343E+02  5.737612583E+02  1.250000000E+02  0.00000E+00  9.000E+00
      25     1     1     2     0     0  9.930024383E+01 -1.019408587E+02  4.460330981E+02  4.845853915E+02  1.250000000E+02  0.00000E+00  9.000E+00
      21     1     1     2   502   512  1.482438819E+00  7.036274616E+00  5.029384465E+00  8.775049482E+00  1.460009660E-07  0.00000E+00  9.000E+00
#rwgt            1           1   3.5974519556890426E-002           7      202274           0
</event>
<event>
      5   9999 -3.79277E-02  2.68173E+01 -1.00000E+00  1.56502E-01
      21    -1     0     0   511   501  0.000000000E+00  0.000000000E+00  1.259405414E+02  1.259405414E+02  0.000000000E+00  0.00000E+00  9.000E+00
      21    -1     0     0   501   502  0.000000000E+00  0.000000000E+00 -5.858781606E+02  5.858781606E+02  0.000000000E+00  0.00000E+00  9.000E+00
      25     1     1     2     0     0  2.077801723E+02  2.915061605E+01 -1.080303720E+02  2.670541513E+02  1.250000000E+02  0.00000E+00  9.000E+00
      25     1     1     2     0     0 -1.971510125E+02 -4.529726820E+00 -3.458291127E+02  4.172670792E+02  1.250000000E+02  0.00000E+00  9.000E+00
      21     1     1     2   511   502 -1.062915983E+01 -2.462088923E+01 -6.078134486E+00  2.749747159E+01  2.230201594E-07  0.00000E+00  9.000E+00
#rwgt            1           1 -0.29643871481519501                7      202594           0
</event>
<event>
      5   9999  3.79277E-02  5.70014E+01 -1.00000E+00  1.35904E-01
       2    -1     0     0   502     0  0.000000000E+00  0.000000000E+00  5.560158850E+02  5.560158850E+02  0.000000000E+00  0.00000E+00  9.000E+00
      21    -1     0     0   501   502  0.000000000E+00  0.000000000E+00 -1.629047487E+02  1.629047487E+02  0.000000000E+00  0.00000E+00  9.000E+00
      25     1     1     2     0     0 -2.473748077E+01  9.922663290E+01  2.608748755E+02  3.068200911E+02  1.250000000E+02  0.00000E+00  9.000E+00
      25     1     1     2     0     0  8.013967935E+01 -1.126339992E+02 -7.219988332E+01  1.998664782E+02  1.250000000E+02  0.00000E+00  9.000E+00
       2     1     1     2   501     0 -5.540219858E+01  1.340736626E+01  2.044361441E+02  2.122340644E+02  2.697398305E-06  0.00000E+00  9.000E+00
#rwgt            1           1   3.1690218245940711E-002           7      202907           0
</event>
<event>
      5   9999  3.79277E-02  2.14896E+01 -1.00000E+00  1.63835E-01
       3    -1     0     0   502     0  0.000000000E+00  0.000000000E+00  3.419072930E+02  3.419072930E+02  0.000000000E+00  0.00000E+00  9.000E+00
      21    -1     0     0   501   502  0.000000000E+00  0.000000000E+00 -5.164654130E+02  5.164654130E+02  0.000000000E+00  0.00000E+00  9.000E+00
      25     1     1     2     0     0  1.345078089E+02  2.109694062E+01 -5.522782656E+01  1.929055323E+02  1.250000000E+02  0.00000E+00  9.000E+00
      25     1     1     2     0     0 -1.144060351E+02 -1.349940757E+01 -3.735142144E+02  4.103764652E+02  1.250000000E+02  0.00000E+00  9.000E+00
       3     1     1     2   501     0 -2.010177383E+01 -7.597533046E+00  2.541839210E+02  2.550907084E+02  4.672030912E-06  0.00000E+00  9.000E+00
#rwgt            1           1   3.1522018614282124E-002           7      203035           0
</event>
<event>
      5   9999  3.79277E-02  4.87201E+01 -1.00000E+00  1.39721E-01
       1    -1     0     0   502     0  0.000000000E+00  0.000000000E+00  2.454838930E+02  2.454838930E+02  0.000000000E+00  0.00000E+00  9.000E+00
      21    -1     0     0   501   502  0.000000000E+00  0.000000000E+00 -1.771069699E+02  1.771069699E+02  0.000000000E+00  0.00000E+00  9.000E+00
      25     1     1     2     0     0  3.006899749E+00 -1.397402600E+02  6.884906025E+01  1.997537855E+02  1.250000000E+02  0.00000E+00  9.000E+00
      25     1     1     2     0     0  3.365207525E+01  1.076502315E+02 -2.158157179E+01  1.697403863E+02  1.250000000E+02  0.00000E+00  9.000E+00
       1     1     1     2   501     0 -3.665897500E+01  3.209002852E+01  2.110943465E+01  5.309669114E+01  0.000000000E+00  0.00000E+00  9.000E+00
#rwgt            1           1   4.1697433024139210E-002           7      203174           0
</event>
<event>
      5   9999  3.79277E-02  6.94649E+01 -1.00000E+00  1.31390E-01
      21    -1     0     0   502   511  0.000000000E+00  0.000000000E+00  2.610751147E+02  2.610751147E+02  0.000000000E+00  0.00000E+00  9.000E+00
      21    -1     0     0   501   502  0.000000000E+00  0.000000000E+00 -2.654370697E+02  2.654370697E+02  0.000000000E+00  0.00000E+00  9.000E+00
      25     1     1     2     0     0 -8.059031890E+01 -2.861576101E+01 -7.446284180E+01  1.687701872E+02  1.250000000E+02  0.00000E+00  9.000E+00
      25     1     1     2     0     0  1.136741930E+02  8.969625686E+01 -6.811141980E+01  2.030551801E+02  1.250000000E+02  0.00000E+00  9.000E+00
      21     1     1     2   501   511 -3.308387410E+01 -6.108049585E+01  1.382123066E+02  1.546868171E+02  3.303624740E-06  0.00000E+00  9.000E+00
#rwgt            1           1   3.7841048213732298E-002           7      203320           0
</event>
<event>
      5   9999  3.79277E-02  8.18886E+01 -1.00000E+00  1.27861E-01
      21    -1     0     0   502   501  0.000000000E+00  0.000000000E+00  2.732143243E+02  2.732143243E+02  0.000000000E+00  0.00000E+00  9.000E+00
       2    -1     0     0   501     0  0.000000000E+00  0.000000000E+00 -8.086242896E+02  8.086242896E+02  0.000000000E+00  0.00000E+00  9.000E+00
      25     1     1     2     0     0 -6.231656363E+01 -2.104444612E+02  4.031858291E+01  2.557749274E+02  1.250000000E+02  0.00000E+00  9.000E+00
      25     1     1     2     0     0  9.520376948E+01  2.854389912E+02 -9.639904970E+01  3.397895705E+02  1.250000000E+02  0.00000E+00  9.000E+00
       2     1     1     2   502     0 -3.288720585E+01 -7.499453000E+01 -4.793294985E+02  4.862741161E+02  5.394796609E-06  0.00000E+00  9.000E+00
#rwgt            2          13   1.5075438120861067E-004           7      203780           0
</event>
<event>
      5   9999  3.79277E-02  2.44187E+01 -1.00000E+00  1.59520E-01
      21    -1     0     0   511   501  0.000000000E+00  0.000000000E+00  4.360491249E+02  4.360491249E+02  0.000000000E+00  0.00000E+00  9.000E+00
      21    -1     0     0   501   502  0.000000000E+00  0.000000000E+00 -8.875635304E+01  8.875635304E+01  0.000000000E+00  0.00000E+00  9.000E+00
      25     1     1     2     0     0 -9.406175381E+01  4.325384575E+01  1.146805094E+02  1.987338118E+02  1.250000000E+02  0.00000E+00  9.000E+00
      25     1     1     2     0     0  1.041762519E+02 -6.547931936E+01  1.241427512E+02  2.148875413E+02  1.250000000E+02  0.00000E+00  9.000E+00
      21     1     1     2   511   502 -1.011449814E+01  2.222547361E+01  1.084695112E+02  1.111841248E+02  1.348699152E-06  0.00000E+00  9.000E+00
#rwgt            1           1   3.3531434354106507E-002           7      203814           0
</event>
<event>
      5   9999  3.79277E-02  2.51987E+01 -1.00000E+00  1.58494E-01
      21    -1     0     0   502   501  0.000000000E+00  0.000000000E+00  6.399800423E+01  6.399800423E+01  0.000000000E+00  0.00000E+00  9.000E+00
      21    -1     0     0   512   502  0.000000000E+00  0.000000000E+00 -6.039638066E+02  6.039638066E+02  0.000000000E+00  0.00000E+00  9.000E+00
      25     1     1     2     0     0  3.601734351E+01  4.568675857E+01 -1.119612631E+02  1.776087086E+02  1.250000000E+02  0.00000E+00  9.000E+00
      25     1     1     2     0     0 -3.051751176E+01 -7.027797658E+01 -1.449167539E+02  2.061460116E+02  1.250000000E+02  0.00000E+00  9.000E+00
      21     1     1     2   512   501 -5.499831749E+00  2.459121801E+01 -2.830877854E+02  2.842070907E+02  5.394796609E-06  0.00000E+00  9.000E+00
#rwgt            1           1   4.6420942428326256E-002           7      204018           0
</event>
<event>
      5   9999  3.79277E-02  1.00813E+02 -1.00000E+00  1.23670E-01
      21    -1     0     0   502   501  0.000000000E+00  0.000000000E+00  2.691652748E+02  2.691652748E+02  0.000000000E+00  0.00000E+00  9.000E+00
       2    -1     0     0   501     0  0.000000000E+00  0.000000000E+00 -1.363189957E+03  1.363189957E+03  0.000000000E+00  0.00000E+00  9.000E+00
      25     1     1     2     0     0 -6.165215425E+01 -2.723607132E+01 -4.163497240E+02  4.399032671E+02  1.250000000E+02  0.00000E+00  9.000E+00
      25     1     1     2     0     0  4.381712178E+00 -5.573042458E+01  2.362065341E+02  2.730267503E+02  1.250000000E+02  0.00000E+00  9.000E+00
       2     1     1     2   502     0  5.727044208E+01  8.296649591E+01 -9.138814922E+02  9.194252143E+02  1.078959322E-05  0.00000E+00  9.000E+00
#rwgt            1           1   3.3307908335720449E-002           7      204222           0
</event>
<event>
      5   9999  3.79277E-02  1.93944E+02 -1.00000E+00  1.12136E-01
      21    -1     0     0   502   501  0.000000000E+00  0.000000000E+00  5.627835240E+02  5.627835240E+02  0.000000000E+00  0.00000E+00  9.000E+00
      21    -1     0     0   501   511  0.000000000E+00  0.000000000E+00 -6.027969993E+02  6.027969993E+02  0.000000000E+00  0.00000E+00  9.000E+00
      25     1     1     2     0     0  1.710756606E+02 -4.229216178E+02  6.111302020E+01  4.769584654E+02  1.250000000E+02  0.00000E+00  9.000E+00
      25     1     1     2     0     0  1.979868152E+01  4.572891888E+02 -1.061552878E+01  4.745978081E+02  1.250000000E+02  0.00000E+00  9.000E+00
      21     1     1     2   502   511 -1.908743421E+02 -3.436757101E+01 -9.051096670E+01  2.140242498E+02  4.046097457E-06  0.00000E+00  9.000E+00
#rwgt            1           1  0.11327957065930690                7      204291           0
</event>
<event>
      5   9999  3.79277E-02  1.05063E+02 -1.00000E+00  1.22871E-01
      21    -1     0     0   502   501  0.000000000E+00  0.000000000E+00  4.412187034E+02  4.412187034E+02  0.000000000E+00  0.00000E+00  9.000E+00
      21    -1     0     0   512   502  0.000000000E+00  0.000000000E+00 -2.372378282E+02  2.372378282E+02  0.000000000E+00  0.00000E+00  9.000E+00
      25     1     1     2     0     0 -1.456041842E+02 -1.514530656E+02  2.806439176E+02  3.721889547E+02  1.250000000E+02  0.00000E+00  9.000E+00
      25     1     1     2     0     0  1.309284195E+02  4.741981195E+01 -2.373242553E+01  1.886242763E+02  1.250000000E+02  0.00000E+00  9.000E+00
      21     1     1     2   512   501  1.467576464E+01  1.040332536E+02 -5.293061692E+01  1.176433004E+02  1.168007728E-06  0.00000E+00  9.000E+00
#rwgt            2          11   2.3484404234697769E-003           7      204346           0
</event>
<event>
      5   9999  3.79277E-02  4.53802E+01 -1.00000E+00  1.41521E-01
      21    -1     0     0   502   501  0.000000000E+00  0.000000000E+00  1.418381129E+02  1.418381129E+02  0.000000000E+00  0.00000E+00  9.000E+00
      21    -1     0     0   501   511  0.000000000E+00  0.000000000E+00 -7.867800414E+02  7.867800414E+02  0.000000000E+00  0.00000E+00  9.000E+00
      25     1     1     2     0     0  2.441693249E+02 -7.168263131E+01 -8.635131652E+01  2.963757897E+02  1.250000000E+02  0.00000E+00  9.000E+00
      25     1     1     2     0     0 -1.994154592E+02  7.919604896E+01 -4.986646744E+02  5.570727035E+02  1.250000000E+02  0.00000E+00  9.000E+00
      21     1     1     2   502   511 -4.475386576E+01 -7.513417647E+00 -5.992593759E+01  7.516966104E+01  1.168007728E-06  0.00000E+00  9.000E+00
#rwgt            1           1   4.1099585333218155E-002           7      204366           0
</event>
<event>
      5   9999  3.79277E-02  4.18025E+01 -1.00000E+00  1.43663E-01
      21    -1     0     0   502   512  0.000000000E+00  0.000000000E+00  3.602602266E+02  3.602602266E+02  0.000000000E+00  0.00000E+00  9.000E+00
      21    -1     0     0   501   502  0.000000000E+00  0.000000000E+00 -5.981763826E+02  5.981763826E+02  0.000000000E+00  0.00000E+00  9.000E+00
      25     1     1     2     0     0 -9.947284897E+01 -1.491648243E+02 -3.522438453E+02  4.145427831E+02  1.250000000E+02  0.00000E+00  9.000E+00
      25     1     1     2     0     0  5.772982352E+01  1.513931657E+02 -1.641221489E+02  2.623236606E+02  1.250000000E+02  0.00000E+00  9.000E+00
      21     1     1     2   501   512  4.174302546E+01 -2.228341415E+00  2.784498382E+02  2.815701654E+02  3.814697266E-06  0.00000E+00  9.000E+00
#rwgt            1           1   4.3704492020451770E-002           7      204485           0
</event>
<event>
      5   9999  3.79277E-02  6.96193E+01 -1.00000E+00  1.31341E-01
      21    -1     0     0   502   501  0.000000000E+00  0.000000000E+00  7.581601771E+02  7.581601771E+02  0.000000000E+00  0.00000E+00  9.000E+00
      21    -1     0     0   501   511  0.000000000E+00  0.000000000E+00 -8.272009222E+01  8.272009222E+01  0.000000000E+00  0.00000E+00  9.000E+00
      25     1     1     2     0     0  5.081990960E+01 -1.487097589E+02  1.568875116E+02  2.548253263E+02  1.250000000E+02  0.00000E+00  9.000E+00
      25     1     1     2     0     0  1.830971619E+01  1.404672753E+02  4.513442959E+02  4.892882326E+02  1.250000000E+02  0.00000E+00  9.000E+00
      21     1     1     2   502   511 -6.912962578E+01  8.242483661E+00  6.720827726E+01  9.676671034E+01  1.907348633E-06  0.00000E+00  9.000E+00
#rwgt            1           1   3.6800642296159085E-002           7      204629           0
</event>
<event>
      5   9999  3.79277E-02  5.38161E+01 -1.00000E+00  1.37277E-01
      21    -1     0     0   502   501  0.000000000E+00  0.000000000E+00  9.831183651E+02  9.831183651E+02  0.000000000E+00  0.00000E+00  9.000E+00
      21    -1     0     0   512   502  0.000000000E+00  0.000000000E+00 -1.739461497E+02  1.739461497E+02  0.000000000E+00  0.00000E+00  9.000E+00
      25     1     1     2     0     0  1.608577945E+02 -8.701702399E+01  8.234667200E+02  8.527424180E+02  1.250000000E+02  0.00000E+00  9.000E+00
      25     1     1     2     0     0 -1.103621496E+02  1.056278261E+02  6.559090049E+01  2.080004998E+02  1.250000000E+02  0.00000E+00  9.000E+00
      21     1     1     2   512   501 -5.049564485E+01 -1.861080207E+01 -7.988540511E+01  9.632159701E+01  1.651812370E-06  0.00000E+00  9.000E+00
#rwgt            2          11   1.3633768231618515E-003           7      204669           0
</event>
<event>
      5   9999 -3.79277E-02  2.47137E+01 -1.00000E+00  1.59126E-01
      21    -1     0     0   502   501  0.000000000E+00  0.000000000E+00  3.412931559E+02  3.412931559E+02  0.000000000E+00  0.00000E+00  9.000E+00
      21    -1     0     0   501   511  0.000000000E+00  0.000000000E+00 -1.950676784E+02  1.950676784E+02  0.000000000E+00  0.00000E+00  9.000E+00
      25     1     1     2     0     0  7.400556494E+01 -1.349650008E+02  1.587553251E+02  2.540091107E+02  1.250000000E+02  0.00000E+00  9.000E+00
      25     1     1     2     0     0 -8.670001026E+01  1.561692463E+02  4.241650042E+01  2.221033200E+02  1.250000000E+02  0.00000E+00  9.000E+00
      21     1     1     2   502   511  1.269444532E+01 -2.120424553E+01 -5.494634806E+01  6.024840360E+01  9.536743164E-07  0.00000E+00  9.000E+00
#rwgt            1           1  -1.2021693459671226E-002           7      204689           0
</event>
<event>
      5   9999  3.79277E-02  5.36926E+01 -1.00000E+00  1.37333E-01
      21    -1     0     0   502   501  0.000000000E+00  0.000000000E+00  6.816164968E+02  6.816164968E+02  0.000000000E+00  0.00000E+00  9.000E+00
       4    -1     0     0   501     0  0.000000000E+00  0.000000000E+00 -8.815016661E+01  8.815016661E+01  0.000000000E+00  0.00000E+00  9.000E+00
      25     1     1     2     0     0  1.721191726E+02  7.607510705E+01  1.671302545E+02  2.810159310E+02  1.250000000E+02  0.00000E+00  9.000E+00
      25     1     1     2     0     0 -1.228544423E+02 -5.472364668E+01  3.525387200E+02  3.974876610E+02  1.250000000E+02  0.00000E+00  9.000E+00
       4     1     1     2   502     0 -4.926473031E+01 -2.135146037E+01  7.379735563E+01  9.126307145E+01  0.000000000E+00  0.00000E+00  9.000E+00
#rwgt            1           1   4.2288205754040666E-002           7      204961           0
</event>
<event>
      5   9999  3.79277E-02  4.16590E+00 -1.00000E+00  2.59380E-01
      21    -1     0     0   502   511  0.000000000E+00  0.000000000E+00  1.219008815E+03  1.219008815E+03  0.000000000E+00  0.00000E+00  9.000E+00
      21    -1     0     0   501   502  0.000000000E+00  0.000000000E+00 -5.257676919E+01  5.257676919E+01  0.000000000E+00  0.00000E+00  9.000E+00
      25     1     1     2     0     0  1.194395937E+02  1.287139322E+02  3.498055777E+02  4.108795870E+02  1.250000000E+02  0.00000E+00  9.000E+00
      25     1     1     2     0     0 -1.182406995E+02 -1.327035960E+02  5.139016846E+02  5.579525507E+02  1.250000000E+02  0.00000E+00  9.000E+00
      21     1     1     2   501   511 -1.198894164E+00  3.989663796E+00  3.027247833E+02  3.027534462E+02  3.814697266E-06  0.00000E+00  9.000E+00
#rwgt            1           1   3.9612027345068190E-002           7      205063           0
</event>
<event>
      5   9999  3.79277E-02  5.26279E+01 -1.00000E+00  1.37818E-01
      21    -1     0     0   502   501  0.000000000E+00  0.000000000E+00  1.227595054E+02  1.227595054E+02  0.000000000E+00  0.00000E+00  9.000E+00
      21    -1     0     0   512   502  0.000000000E+00  0.000000000E+00 -4.135632100E+02  4.135632100E+02  0.000000000E+00  0.00000E+00  9.000E+00
      25     1     1     2     0     0 -1.012917909E+02 -3.167788750E+01 -4.255348476E+01  1.694087204E+02  1.250000000E+02  0.00000E+00  9.000E+00
      25     1     1     2     0     0  1.201026225E+02  8.082913680E+01 -1.138725049E+02  2.225981507E+02  1.250000000E+02  0.00000E+00  9.000E+00
      21     1     1     2   512   501 -1.881083159E+01 -4.915124931E+01 -1.343777149E+02  1.443158445E+02  1.907348633E-06  0.00000E+00  9.000E+00
#rwgt            1           1  0.25400512555973365                7      205432           0
</event>
<event>
      5   9999  3.79277E-02  5.30569E+01 -1.00000E+00  1.37621E-01
      21    -1     0     0   502   501  0.000000000E+00  0.000000000E+00  2.564232782E+02  2.564232782E+02  0.000000000E+00  0.00000E+00  9.000E+00
       2    -1     0     0   501     0  0.000000000E+00  0.000000000E+00 -4.498136849E+03  4.498136849E+03  0.000000000E+00  0.00000E+00  9.000E+00
      25     1     1     2     0     0  6.608581784E+00  1.050329601E+02 -1.937636815E+02  2.534658958E+02  1.250000000E+02  0.00000E+00  9.000E+00
      25     1     1     2     0     0  3.237079181E+01 -6.903793525E+01  2.027333825E+02  2.500798453E+02  1.250000000E+02  0.00000E+00  9.000E+00
       2     1     1     2   502     0 -3.897937360E+01 -3.599502487E+01 -4.250683272E+03  4.251014386E+03  0.000000000E+00  0.00000E+00  9.000E+00
#rwgt            1           1   2.8033196411192569E-002           7      205547           0
</event>
<event>
      5   9999  3.79277E-02  6.86072E+00 -1.00000E+00  2.16795E-01
      21    -1     0     0   502   511  0.000000000E+00  0.000000000E+00  2.093665076E+02  2.093665076E+02  0.000000000E+00  0.00000E+00  9.000E+00
      21    -1     0     0   501   502  0.000000000E+00  0.000000000E+00 -2.249399081E+02  2.249399081E+02  0.000000000E+00  0.00000E+00  9.000E+00
      25     1     1     2     0     0  9.570937265E+01 -1.044302757E+02  5.197307344E+01  1.959391918E+02  1.250000000E+02  0.00000E+00  9.000E+00
      25     1     1     2     0     0 -8.884915577E+01  1.043474633E+02 -9.616456952E+01  2.089382445E+02  1.250000000E+02  0.00000E+00  9.000E+00
      21     1     1     2   501   511 -6.860216873E+00  8.281249646E-02  2.861809566E+01  2.942897947E+01  3.371747881E-07  0.00000E+00  9.000E+00
#rwgt            1           1   6.4681051502262832E-002           7      205640           0
</event>
<event>
      5   9999  3.79277E-02  1.20457E+02 -1.00000E+00  1.20298E-01
      21    -1     0     0   502   512  0.000000000E+00  0.000000000E+00  5.156678666E+02  5.156678666E+02  0.000000000E+00  0.00000E+00  9.000E+00
      21    -1     0     0   501   502  0.000000000E+00  0.000000000E+00 -1.483849518E+02  1.483849518E+02  0.000000000E+00  0.00000E+00  9.000E+00
      25     1     1     2     0     0  1.119999256E+02  3.665021097E+01  3.866840600E+01  1.760893720E+02  1.250000000E+02  0.00000E+00  9.000E+00
      25     1     1     2     0     0 -7.365819084E+01 -1.508416669E+02  1.054325869E+02  2.343496702E+02  1.250000000E+02  0.00000E+00  9.000E+00
      21     1     1     2   501   512 -3.834173477E+01  1.141914559E+02  2.231819219E+02  2.536137762E+02  2.697398305E-06  0.00000E+00  9.000E+00
#rwgt            1           1   3.5453178531637340E-002           7      206042           0
</event>
<event>
      5   9999  3.79277E-02  7.26587E+01 -1.00000E+00  1.30406E-01
      21    -1     0     0   502   501  0.000000000E+00  0.000000000E+00  4.025553922E+02  4.025553922E+02  0.000000000E+00  0.00000E+00  9.000E+00
      21    -1     0     0   501   511  0.000000000E+00  0.000000000E+00 -1.655365577E+02  1.655365577E+02  0.000000000E+00  0.00000E+00  9.000E+00
      25     1     1     2     0     0 -1.059527147E+02 -9.580311434E+01  2.487550014E+02  3.129029645E+02  1.250000000E+02  0.00000E+00  9.000E+00
      25     1     1     2     0     0  3.692563690E+01  1.184868578E+02 -3.357768063E+01  1.793184284E+02  1.250000000E+02  0.00000E+00  9.000E+00
      21     1     1     2   502   511  6.902707780E+01 -2.268374350E+01  2.184151364E+01  7.587055692E+01  1.092571186E-06  0.00000E+00  9.000E+00
#rwgt            1           1   2.8134307022688054E-002           7      206150           0
</event>
<event>
      5   9999  3.79277E-02  3.29781E+01 -1.00000E+00  1.50239E-01
      21    -1     0     0   502   501  0.000000000E+00  0.000000000E+00  1.258922510E+02  1.258922510E+02  0.000000000E+00  0.00000E+00  9.000E+00
      21    -1     0     0   512   502  0.000000000E+00  0.000000000E+00 -4.404103591E+02  4.404103591E+02  0.000000000E+00  0.00000E+00  9.000E+00
      25     1     1     2     0     0  1.425949197E+02  6.453248773E+01 -2.912524862E+01  2.024130263E+02  1.250000000E+02  0.00000E+00  9.000E+00
      25     1     1     2     0     0 -1.414082726E+02 -3.157575598E+01 -2.566975012E+02  3.201748508E+02  1.250000000E+02  0.00000E+00  9.000E+00
      21     1     1     2   512   501 -1.186647108E+00 -3.295673175E+01 -2.869535829E+01  4.371473306E+01  0.000000000E+00  0.00000E+00  9.000E+00
#rwgt            1           1   2.5896724648438112E-002           7      206261           0
</event>
<event>
      5   9999  3.79277E-02  4.59274E+01 -1.00000E+00  1.41214E-01
      21    -1     0     0   502   511  0.000000000E+00  0.000000000E+00  7.098688074E+01  7.098688074E+01  0.000000000E+00  0.00000E+00  9.000E+00
      21    -1     0     0   501   502  0.000000000E+00  0.000000000E+00 -1.913064064E+03  1.913064064E+03  0.000000000E+00  0.00000E+00  9.000E+00
      25     1     1     2     0     0 -1.381812420E+02 -8.025319096E+01 -1.055057638E+03  1.074386453E+03  1.250000000E+02  0.00000E+00  9.000E+00
      25     1     1     2     0     0  1.705877035E+02  4.770868743E+01 -8.231548979E+02  8.512257452E+02  1.250000000E+02  0.00000E+00  9.000E+00
      21     1     1     2   501   511 -3.240646147E+01  3.254450354E+01  3.613535241E+01  5.843874699E+01  3.693564745E-06  0.00000E+00  9.000E+00
#rwgt            1           1   9.7407558511521719E-002           7      206431           0
</event>
<event>
      5   9999  3.79277E-02  3.20923E+01 -1.00000E+00  1.51034E-01
      21    -1     0     0   502   512  0.000000000E+00  0.000000000E+00  5.955584369E+01  5.955584369E+01  0.000000000E+00  0.00000E+00  9.000E+00
      21    -1     0     0   501   502  0.000000000E+00  0.000000000E+00 -1.738947085E+03  1.738947085E+03  0.000000000E+00  0.00000E+00  9.000E+00
      25     1     1     2     0     0 -5.360593643E+01  7.614566964E+01 -1.416890600E+03  1.425438785E+03  1.250000000E+02  0.00000E+00  9.000E+00
      25     1     1     2     0     0  7.941495903E+01 -9.521943798E+01 -2.842048906E+02  3.343215472E+02  1.250000000E+02  0.00000E+00  9.000E+00
      21     1     1     2   501   512 -2.580902260E+01  1.907376834E+01  2.170424932E+01  3.874259575E+01  2.567846683E-06  0.00000E+00  9.000E+00
#rwgt            1           1   5.9751149369832751E-002           7      206530           0
</event>
<event>
      5   9999  3.79277E-02  7.88814E+01 -1.00000E+00  1.28646E-01
      21    -1     0     0   511   501  0.000000000E+00  0.000000000E+00  2.369689167E+02  2.369689167E+02  0.000000000E+00  0.00000E+00  9.000E+00
      21    -1     0     0   501   502  0.000000000E+00  0.000000000E+00 -4.596778821E+02  4.596778821E+02  0.000000000E+00  0.00000E+00  9.000E+00
      25     1     1     2     0     0  7.271510156E+01  8.754162468E+01 -2.159269453E+02  2.742270369E+02  1.250000000E+02  0.00000E+00  9.000E+00
      25     1     1     2     0     0 -3.576343861E+01 -1.572327057E+02 -1.538513649E+02  2.555315827E+02  1.250000000E+02  0.00000E+00  9.000E+00
      21     1     1     2   511   502 -3.695166294E+01  6.969108098E+01  1.470693448E+02  1.668881792E+02  1.907348633E-06  0.00000E+00  9.000E+00
#rwgt            1           1   3.9840672904675807E-002           7      206670           0
</event>
<event>
      5   9999  3.79277E-02  7.38496E+01 -1.00000E+00  1.30054E-01
      21    -1     0     0   502   501  0.000000000E+00  0.000000000E+00  3.057054502E+02  3.057054502E+02  0.000000000E+00  0.00000E+00  9.000E+00
      21    -1     0     0   512   502  0.000000000E+00  0.000000000E+00 -1.648733978E+03  1.648733978E+03  0.000000000E+00  0.00000E+00  9.000E+00
      25     1     1     2     0     0  1.849640136E+02 -4.757265623E+00 -9.578304386E+00  2.234973419E+02  1.250000000E+02  0.00000E+00  9.000E+00
      25     1     1     2     0     0 -1.312280884E+02  5.541502188E+01  1.524403984E+02  2.432174149E+02  1.250000000E+02  0.00000E+00  9.000E+00
      21     1     1     2   512   501 -5.373592521E+01 -5.065775626E+01 -1.485890622E+03  1.487724672E+03  0.000000000E+00  0.00000E+00  9.000E+00
#rwgt            1           1   3.7635105082624215E-002           7      206914           0
</event>
<event>
      5   9999  3.79277E-02  9.88019E+00 -1.00000E+00  1.96364E-01
      21    -1     0     0   511   501  0.000000000E+00  0.000000000E+00  6.912745817E+02  6.912745817E+02  0.000000000E+00  0.00000E+00  9.000E+00
      21    -1     0     0   501   502  0.000000000E+00  0.000000000E+00 -2.068261235E+02  2.068261235E+02  0.000000000E+00  0.00000E+00  9.000E+00
      25     1     1     2     0     0 -2.609384616E+02 -1.204275667E+02  4.641655601E+02  5.600592350E+02  1.250000000E+02  0.00000E+00  9.000E+00
      25     1     1     2     0     0  2.704948085E+02  1.229364187E+02  8.220309948E+00  3.224490316E+02  1.250000000E+02  0.00000E+00  9.000E+00
      21     1     1     2   511   502 -9.556346954E+00 -2.508851985E+00  1.206258818E+01  1.559243852E+01  1.685873940E-07  0.00000E+00  9.000E+00
#rwgt            1           1   4.2654754522240226E-002           7      207116           0
</event>
<event>
      5   9999  3.79277E-02  8.27777E+01 -1.00000E+00  1.27636E-01
      21    -1     0     0   502   512  0.000000000E+00  0.000000000E+00  3.685404026E+02  3.685404026E+02  0.000000000E+00  0.00000E+00  9.000E+00
      21    -1     0     0   501   502  0.000000000E+00  0.000000000E+00 -5.278029344E+02  5.278029344E+02  0.000000000E+00  0.00000E+00  9.000E+00
      25     1     1     2     0     0  5.409989665E+01  4.057826755E+00  1.085718158E+02  1.742300317E+02  1.250000000E+02  0.00000E+00  9.000E+00
      25     1     1     2     0     0 -1.320056779E+02  2.392148908E+01 -4.695447391E+02  5.040783656E+02  1.250000000E+02  0.00000E+00  9.000E+00
      21     1     1     2   501   512  7.790578128E+01 -2.797931584E+01  2.017103915E+02  2.180349396E+02  0.000000000E+00  0.00000E+00  9.000E+00
#rwgt            1           1   4.9692222973318496E-002           7      207386           0
</event>
<event>
      5   9999  3.79277E-02  2.93457E+01 -1.00000E+00  1.53708E-01
      21    -1     0     0   502   501  0.000000000E+00  0.000000000E+00  1.930106288E+01  1.930106288E+01  0.000000000E+00  0.00000E+00  9.000E+00
      21    -1     0     0   501   511  0.000000000E+00  0.000000000E+00 -1.436255479E+03  1.436255479E+03  0.000000000E+00  0.00000E+00  9.000E+00
      25     1     1     2     0     0 -9.882551381E-01  2.713535625E+01 -9.828368917E+02  9.911259556E+02  1.250000000E+02  0.00000E+00  9.000E+00
      25     1     1     2     0     0 -6.106581385E+00  1.339768403E+00 -2.685469886E+02  2.962795477E+02  1.250000000E+02  0.00000E+00  9.000E+00
      21     1     1     2   502   511  7.094836523E+00 -2.847512466E+01 -1.655705359E+02  1.681510386E+02  2.697398305E-06  0.00000E+00  9.000E+00
#rwgt            1           1  0.11649581863969399                7      207499           0
</event>
<event>
      5   9999  3.79277E-02  9.72820E+01 -1.00000E+00  1.24369E-01
      21    -1     0     0   502   512  0.000000000E+00  0.000000000E+00  3.615099798E+02  3.615099798E+02  0.000000000E+00  0.00000E+00  9.000E+00
      21    -1     0     0   501   502  0.000000000E+00  0.000000000E+00 -2.830433466E+02  2.830433466E+02  0.000000000E+00  0.00000E+00  9.000E+00
      25     1     1     2     0     0  1.357453898E+02  1.194639279E+01 -1.555868316E+01  1.855710101E+02  1.250000000E+02  0.00000E+00  9.000E+00
      25     1     1     2     0     0 -2.140749500E+02  4.574467640E+01 -7.583008126E+01  2.632410698E+02  1.250000000E+02  0.00000E+00  9.000E+00
      21     1     1     2   501   512  7.832956017E+01 -5.769106919E+01  1.698553976E+02  1.957412464E+02  0.000000000E+00  0.00000E+00  9.000E+00
#rwgt            1           1   4.6043534334149497E-002           7      207776           0
</event>
<event>
      5   9999  3.79277E-02  9.05280E+01 -1.00000E+00  1.25803E-01
      21    -1     0     0   511   501  0.000000000E+00  0.000000000E+00  3.881072356E+02  3.881072356E+02  0.000000000E+00  0.00000E+00  9.000E+00
      21    -1     0     0   501   502  0.000000000E+00  0.000000000E+00 -3.319540563E+02  3.319540563E+02  0.000000000E+00  0.00000E+00  9.000E+00
      25     1     1     2     0     0  2.712813627E+02 -1.689403475E+02  1.263501971E+01  3.433934514E+02  1.250000000E+02  0.00000E+00  9.000E+00
      25     1     1     2     0     0 -1.922850340E+02  1.247260365E+02 -2.624008518E+01  2.623807549E+02  1.250000000E+02  0.00000E+00  9.000E+00
      21     1     1     2   511   502 -7.899632863E+01  4.421431097E+01  6.975824467E+01  1.142870856E+02  2.336015456E-06  0.00000E+00  9.000E+00
#rwgt            1           1   9.9386759898631730E-002           7      207965           0
</event>
<event>
      5   9999  3.79277E-02  7.44711E+01 -1.00000E+00  1.29873E-01
      21    -1     0     0   502   512  0.000000000E+00  0.000000000E+00  5.569770476E+02  5.569770476E+02  0.000000000E+00  0.00000E+00  9.000E+00
      21    -1     0     0   501   502  0.000000000E+00  0.000000000E+00 -8.093719963E+01  8.093719963E+01  0.000000000E+00  0.00000E+00  9.000E+00
      25     1     1     2     0     0  1.120119768E+02 -4.039331287E+01  2.912116125E+02  3.385373036E+02  1.250000000E+02  0.00000E+00  9.000E+00
      25     1     1     2     0     0 -7.163872120E+01 -2.218415675E+01  6.804731524E+01  1.608716268E+02  1.250000000E+02  0.00000E+00  9.000E+00
      21     1     1     2   501   512 -4.037325558E+01  6.257746962E+01  1.167809201E+02  1.385053168E+02  1.907348633E-06  0.00000E+00  9.000E+00
#rwgt            1           1   4.6012242739642925E-002           7      208060           0
</event>
<event>
      5   9999  3.79277E-02  1.05407E+01 -1.00000E+00  1.93150E-01
      21    -1     0     0   502   501  0.000000000E+00  0.000000000E+00  9.878386350E+01  9.878386350E+01  0.000000000E+00  0.00000E+00  9.000E+00
      21    -1     0     0   511   502  0.000000000E+00  0.000000000E+00 -5.144189337E+02  5.144189337E+02  0.000000000E+00  0.00000E+00  9.000E+00
      25     1     1     2     0     0 -1.227374778E+02 -8.618629174E+01 -1.141365053E+02  2.261519559E+02  1.250000000E+02  0.00000E+00  9.000E+00
      25     1     1     2     0     0  1.131197721E+02  9.049985413E+01 -1.724898307E+02  2.576122049E+02  1.250000000E+02  0.00000E+00  9.000E+00
      21     1     1     2   511   501  9.617705653E+00 -4.313562391E+00 -1.290087341E+02  1.294386363E+02  0.000000000E+00  0.00000E+00  9.000E+00
#rwgt            1           1   2.7603402866411986E-002           7      208104           0
</event>
<event>
      5   9999  3.79277E-02  3.39345E+01 -1.00000E+00  1.49413E-01
      21    -1     0     0   502   501  0.000000000E+00  0.000000000E+00  3.111566017E+02  3.111566017E+02  0.000000000E+00  0.00000E+00  9.000E+00
      21    -1     0     0   512   502  0.000000000E+00  0.000000000E+00 -1.136448817E+02  1.136448817E+02  0.000000000E+00  0.00000E+00  9.000E+00
      25     1     1     2     0     0 -8.408938982E+01 -7.553931501E+01  9.566109156E+01  1.937866302E+02  1.250000000E+02  0.00000E+00  9.000E+00
      25     1     1     2     0     0  5.925442859E+01  9.866446736E+01  9.971715163E+01  1.970133873E+02  1.250000000E+02  0.00000E+00  9.000E+00
      21     1     1     2   512   501  2.483496124E+01 -2.312515235E+01  2.133476830E+00  3.400146606E+01  2.563692709E-07  0.00000E+00  9.000E+00
#rwgt            1           1   3.6868451352796830E-002           7      208420           0
</event>
<event>
      5   9999  3.79277E-02  1.59882E+01 -1.00000E+00  1.74812E-01
      21    -1     0     0   502   511  0.000000000E+00  0.000000000E+00  8.099787373E+01  8.099787373E+01  0.000000000E+00  0.00000E+00  9.000E+00
      21    -1     0     0   501   502  0.000000000E+00  0.000000000E+00 -1.040943874E+03  1.040943874E+03  0.000000000E+00  0.00000E+00  9.000E+00
      25     1     1     2     0     0  6.354187036E+01  2.229223634E+02 -5.476128206E+02  6.076485420E+02  1.250000000E+02  0.00000E+00  9.000E+00
      25     1     1     2     0     0 -5.082280647E+01 -2.132347725E+02 -4.247468886E+02  4.940515613E+02  1.250000000E+02  0.00000E+00  9.000E+00
      21     1     1     2   501   511 -1.271906389E+01 -9.687590847E+00  1.241370884E+01  2.024164444E+01  4.768371582E-07  0.00000E+00  9.000E+00
#rwgt            1           1   4.5356312610221640E-002           7      208486           0
</event>
<event>
      5   9999  3.79277E-02  2.26054E+02 -1.00000E+00  1.09746E-01
      21    -1     0     0   502   512  0.000000000E+00  0.000000000E+00  1.024751441E+03  1.024751441E+03  0.000000000E+00  0.00000E+00  9.000E+00
      21    -1     0     0   501   502  0.000000000E+00  0.000000000E+00 -1.008899460E+02  1.008899460E+02  0.000000000E+00  0.00000E+00  9.000E+00
      25     1     1     2     0     0  8.983630682E+00  2.000125927E+02  2.678396784E+02  3.569997705E+02  1.250000000E+02  0.00000E+00  9.000E+00
      25     1     1     2     0     0 -1.197678285E+02 -2.966153145E+00  2.534602948E+02  3.069531753E+02  1.250000000E+02  0.00000E+00  9.000E+00
      21     1     1     2   501   512  1.107841978E+02 -1.970464395E+02  4.025615217E+02  4.616884411E+02  0.000000000E+00  0.00000E+00  9.000E+00
#rwgt            1           1   4.1545408189642821E-002           7      208725           0
</event>
<event>
      5   9999  3.79277E-02  2.24543E+01 -1.00000E+00  1.62325E-01
      21    -1     0     0   502   501  0.000000000E+00  0.000000000E+00  4.895662235E+02  4.895662235E+02  0.000000000E+00  0.00000E+00  9.000E+00
      21    -1     0     0   501   511  0.000000000E+00  0.000000000E+00 -2.454875156E+02  2.454875156E+02  0.000000000E+00  0.00000E+00  9.000E+00
      25     1     1     2     0     0  1.110940249E+02 -1.138001013E+02  3.193515530E+02  3.780248137E+02  1.250000000E+02  0.00000E+00  9.000E+00
      25     1     1     2     0     0 -9.244445077E+01  1.012945408E+02  7.860603012E+01  2.015203921E+02  1.250000000E+02  0.00000E+00  9.000E+00
      21     1     1     2   502   511 -1.864957416E+01  1.250556053E+01 -1.538788752E+02  1.555085332E+02  4.264961200E-06  0.00000E+00  9.000E+00
#rwgt            1           1   2.7344607794824304E-002           7      208803           0
</event>
<event>
      5   9999  3.79277E-02  2.43963E+01 -1.00000E+00  1.59550E-01
      21    -1     0     0   512   501  0.000000000E+00  0.000000000E+00  2.592345440E+02  2.592345440E+02  0.000000000E+00  0.00000E+00  9.000E+00
      21    -1     0     0   501   502  0.000000000E+00  0.000000000E+00 -1.445897755E+02  1.445897755E+02  0.000000000E+00  0.00000E+00  9.000E+00
      25     1     1     2     0     0  6.031218281E+01  1.281728039E+02  4.973562024E+01  1.953572599E+02  1.250000000E+02  0.00000E+00  9.000E+00
      25     1     1     2     0     0 -6.098350138E+01 -1.037857562E+02  5.402587479E+01  1.817533102E+02  1.250000000E+02  0.00000E+00  9.000E+00
      21     1     1     2   512   502  6.713185732E-01 -2.438704772E+01  1.088327352E+01  2.671374941E+01  3.153981341E-07  0.00000E+00  9.000E+00
#rwgt            1           1   2.9763426976770375E-002           7      208995           0
</event>
<event>
      5   9999  3.79277E-02  1.13989E+01 -1.00000E+00  1.89406E-01
      21    -1     0     0   502   511  0.000000000E+00  0.000000000E+00  9.549316631E+02  9.549316631E+02  0.000000000E+00  0.00000E+00  9.000E+00
      21    -1     0     0   501   502  0.000000000E+00  0.000000000E+00 -5.673927109E+01  5.673927109E+01  0.000000000E+00  0.00000E+00  9.000E+00
      25     1     1     2     0     0  7.714135974E+01 -4.686357380E+01  7.000178203E+02  7.167962979E+02  1.250000000E+02  0.00000E+00  9.000E+00
      25     1     1     2     0     0 -7.461287530E+01  3.574863049E+01  6.868938754E+01  1.648886828E+02  1.250000000E+02  0.00000E+00  9.000E+00
      21     1     1     2   501   511 -2.528484441E+00  1.111494331E+01  1.294851841E+02  1.299859535E+02  1.907348633E-06  0.00000E+00  9.000E+00
#rwgt            1           1   4.0846017558937117E-002           7      209177           0
</event>
<event>
      5   9999  3.79277E-02  2.49670E+01 -1.00000E+00  1.58794E-01
      21    -1     0     0   502   512  0.000000000E+00  0.000000000E+00  7.572126506E+01  7.572126506E+01  0.000000000E+00  0.00000E+00  9.000E+00
      21    -1     0     0   501   502  0.000000000E+00  0.000000000E+00 -2.182738378E+03  2.182738378E+03  0.000000000E+00  0.00000E+00  9.000E+00
      25     1     1     2     0     0 -3.194568188E+02  1.933130924E+02 -1.097525520E+03  1.166023103E+03  1.250000000E+02  0.00000E+00  9.000E+00
      25     1     1     2     0     0  2.986029672E+02 -2.070415032E+02 -9.856933986E+02  1.057944418E+03  1.250000000E+02  0.00000E+00  9.000E+00
      21     1     1     2   501   512  2.085385158E+01  1.372841073E+01 -2.379819471E+01  3.449212169E+01  3.371747881E-07  0.00000E+00  9.000E+00
#rwgt            1           1   5.0352968343229602E-002           7      209577           0
</event>
<event>
      5   9999  3.79277E-02  1.89651E+01 -1.00000E+00  1.68296E-01
      21    -1     0     0   502   501  0.000000000E+00  0.000000000E+00  2.263637843E+03  2.263637843E+03  0.000000000E+00  0.00000E+00  9.000E+00
       1    -1     0     0   501     0  0.000000000E+00  0.000000000E+00 -5.821679353E+02  5.821679353E+02  0.000000000E+00  0.00000E+00  9.000E+00
      25     1     1     2     0     0 -2.177581792E+02  5.678023431E+01  2.126348303E+02  3.338879912E+02  1.250000000E+02  0.00000E+00  9.000E+00
      25     1     1     2     0     0  2.365016164E+02 -5.388915885E+01  1.980847289E+03  1.999554460E+03  1.250000000E+02  0.00000E+00  9.000E+00
       1     1     1     2   502     0 -1.874343718E+01 -2.891075466E+00 -5.120122113E+02  5.123633274E+02  0.000000000E+00  0.00000E+00  9.000E+00
#rwgt            1           1   3.6084188715863996E-002           7      209738           0
</event>
<event>
      5   9999  3.79277E-02  1.14166E+01 -1.00000E+00  1.89333E-01
      21    -1     0     0   511   501  0.000000000E+00  0.000000000E+00  2.892703156E+02  2.892703156E+02  0.000000000E+00  0.00000E+00  9.000E+00
      21    -1     0     0   501   502  0.000000000E+00  0.000000000E+00 -2.596367815E+02  2.596367815E+02  0.000000000E+00  0.00000E+00  9.000E+00
      25     1     1     2     0     0  2.123535399E+02  6.844333691E+01  6.175624772E+01  2.630919049E+02  1.250000000E+02  0.00000E+00  9.000E+00
      25     1     1     2     0     0 -2.045776062E+02 -7.680237440E+01 -5.728814184E+01  2.581812016E+02  1.250000000E+02  0.00000E+00  9.000E+00
      21     1     1     2   511   502 -7.775933746E+00  8.359037491E+00  2.516542822E+01  2.763399050E+01  0.000000000E+00  0.00000E+00  9.000E+00
#rwgt            1           1   3.5648861174102167E-002           7      209951           0
</event>
<event>
      5   9999  3.79277E-02  8.26679E+01 -1.00000E+00  1.27664E-01
      21    -1     0     0   512   501  0.000000000E+00  0.000000000E+00  5.417823581E+02  5.417823581E+02  0.000000000E+00  0.00000E+00  9.000E+00
      21    -1     0     0   501   502  0.000000000E+00  0.000000000E+00 -1.042303830E+02  1.042303830E+02  0.000000000E+00  0.00000E+00  9.000E+00
      25     1     1     2     0     0  8.758795087E+01  4.567585309E+01  1.715743871E+02  2.341382135E+02  1.250000000E+02  0.00000E+00  9.000E+00
      25     1     1     2     0     0 -1.583020152E+02 -8.849532411E+01  1.393207865E+02  2.606266141E+02  1.250000000E+02  0.00000E+00  9.000E+00
      21     1     1     2   512   502  7.071406436E+01  4.281947102E+01  1.266568015E+02  1.512479136E+02  0.000000000E+00  0.00000E+00  9.000E+00
#rwgt            1           1  0.11161873366192158                7      210220           0
</event>
<event>
      5   9999  3.79277E-02  2.39180E+02 -1.00000E+00  1.08891E-01
      21    -1     0     0   502   511  0.000000000E+00  0.000000000E+00  1.883198218E+02  1.883198218E+02  0.000000000E+00  0.00000E+00  9.000E+00
      21    -1     0     0   501   502  0.000000000E+00  0.000000000E+00 -7.799093429E+02  7.799093429E+02  0.000000000E+00  0.00000E+00  9.000E+00
      25     1     1     2     0     0  2.605866790E+02  1.761588205E+01 -3.633072478E+02  4.645781881E+02  1.250000000E+02  0.00000E+00  9.000E+00
      25     1     1     2     0     0 -4.430352934E+01 -1.197356009E+02 -1.910675043E+02  2.615935932E+02  1.250000000E+02  0.00000E+00  9.000E+00
      21     1     1     2   501   511 -2.162831497E+02  1.021197189E+02 -3.721476901E+01  2.420573834E+02  4.792154131E-06  0.00000E+00  9.000E+00
#rwgt            1           1   3.2901365963551588E-002           7      210360           0
</event>
<event>
      5   9999  3.79277E-02  1.06101E+02 -1.00000E+00  1.22682E-01
      21    -1     0     0   502   512  0.000000000E+00  0.000000000E+00  3.499964435E+02  3.499964435E+02  0.000000000E+00  0.00000E+00  9.000E+00
      21    -1     0     0   501   502  0.000000000E+00  0.000000000E+00 -2.662018234E+02  2.662018234E+02  0.000000000E+00  0.00000E+00  9.000E+00
      25     1     1     2     0     0 -2.076209647E+02  1.037952808E+02  6.683553628E+01  2.719777826E+02  1.250000000E+02  0.00000E+00  9.000E+00
      25     1     1     2     0     0  1.979946899E+02  1.868249877E+00 -1.126453515E+01  2.344296853E+02  1.250000000E+02  0.00000E+00  9.000E+00
      21     1     1     2   501   512  9.626274813E+00 -1.056635306E+02  2.822361896E+01  1.097907990E+02  0.000000000E+00  0.00000E+00  9.000E+00
#rwgt            1           1   3.5159920173632384E-002           7      210447           0
</event>
<event>
      5   9999  3.79277E-02  1.56104E+02 -1.00000E+00  1.15711E-01
      21    -1     0     0   511   501  0.000000000E+00  0.000000000E+00  1.899488680E+02  1.899488680E+02  0.000000000E+00  0.00000E+00  9.000E+00
      21    -1     0     0   501   502  0.000000000E+00  0.000000000E+00 -6.500216267E+02  6.500216267E+02  0.000000000E+00  0.00000E+00  9.000E+00
      25     1     1     2     0     0 -4.214230318E+01 -5.458316515E+00 -4.796666479E+02  4.975046332E+02  1.250000000E+02  0.00000E+00  9.000E+00
      25     1     1     2     0     0 -9.910909830E+01 -6.099777161E+01 -3.993941719E+01  1.753952638E+02  1.250000000E+02  0.00000E+00  9.000E+00
      21     1     1     2   511   502  1.412514015E+02  6.645608813E+01  5.953330634E+01  1.670705978E+02  3.693564745E-06  0.00000E+00  9.000E+00
#rwgt            2          11   2.2822586894866537E-003           7      210519           0
</event>
<event>
      5   9999  3.79277E-02  4.66672E+01 -1.00000E+00  1.40807E-01
      21    -1     0     0   502   501  0.000000000E+00  0.000000000E+00  9.676546186E+01  9.676546186E+01  0.000000000E+00  0.00000E+00  9.000E+00
      21    -1     0     0   512   502  0.000000000E+00  0.000000000E+00 -8.436802251E+02  8.436802251E+02  0.000000000E+00  0.00000E+00  9.000E+00
      25     1     1     2     0     0  6.277608913E+01  1.252956234E+02 -6.319780964E+02  6.592883625E+02  1.250000000E+02  0.00000E+00  9.000E+00
      25     1     1     2     0     0 -9.489758305E+01 -9.144246060E+01 -2.979543106E+01  1.840653215E+02  1.250000000E+02  0.00000E+00  9.000E+00
      21     1     1     2   512   501  3.212149392E+01 -3.385316281E+01 -8.514123573E+01  9.709200289E+01  1.907348633E-06  0.00000E+00  9.000E+00
#rwgt            1           1   3.7837029635075438E-002           7      210539           0
</event>
<event>
      5   9999  3.79277E-02  1.87217E+01 -1.00000E+00  1.68771E-01
      21    -1     0     0   502   511  0.000000000E+00  0.000000000E+00  8.626404640E+01  8.626404640E+01  0.000000000E+00  0.00000E+00  9.000E+00
      21    -1     0     0   501   502  0.000000000E+00  0.000000000E+00 -6.509431244E+02  6.509431244E+02  0.000000000E+00  0.00000E+00  9.000E+00
      25     1     1     2     0     0  3.704302688E+01  1.002191378E+02 -3.217730403E+02  3.613570961E+02  1.250000000E+02  0.00000E+00  9.000E+00
      25     1     1     2     0     0 -2.691632532E+01 -8.447270256E+01 -2.884368340E+02  3.266204728E+02  1.250000000E+02  0.00000E+00  9.000E+00
      21     1     1     2   501   511 -1.012670156E+01 -1.574643523E+01  4.553079623E+01  4.922960199E+01  6.743495762E-07  0.00000E+00  9.000E+00
#rwgt            1           1   4.0713024978263380E-002           7      210648           0
</event>
<event>
      5   9999  3.79277E-02  4.93762E+01 -1.00000E+00  1.39387E-01
      21    -1     0     0   512   501  0.000000000E+00  0.000000000E+00  6.483387981E+01  6.483387981E+01  0.000000000E+00  0.00000E+00  9.000E+00
      21    -1     0     0   501   502  0.000000000E+00  0.000000000E+00 -8.406062476E+02  8.406062476E+02  0.000000000E+00  0.00000E+00  9.000E+00
      25     1     1     2     0     0 -9.525800263E+01  6.664220446E+01 -1.958148618E+02  2.597763087E+02  1.250000000E+02  0.00000E+00  9.000E+00
      25     1     1     2     0     0  6.334160078E+01 -2.896785543E+01 -5.788503943E+02  5.962751664E+02  1.250000000E+02  0.00000E+00  9.000E+00
      21     1     1     2   512   502  3.191640185E+01 -3.767434902E+01 -1.107111689E+00  4.938865232E+01  1.117785754E-06  0.00000E+00  9.000E+00
#rwgt            1           1   4.2424594204603636E-002           7      210958           0
</event>
<event>
      5   9999  3.79277E-02  3.55347E+01 -1.00000E+00  1.48102E-01
      21    -1     0     0   502   501  0.000000000E+00  0.000000000E+00  4.050071636E+02  4.050071636E+02  0.000000000E+00  0.00000E+00  9.000E+00
      21    -1     0     0   501   511  0.000000000E+00  0.000000000E+00 -1.494166631E+03  1.494166631E+03  0.000000000E+00  0.00000E+00  9.000E+00
      25     1     1     2     0     0  6.242158290E+02 -1.643969491E+02 -5.646642995E+02  8.666847923E+02  1.250000000E+02  0.00000E+00  9.000E+00
      25     1     1     2     0     0 -6.595870128E+02  1.678016478E+02 -2.202662920E+02  7.261918891E+02  1.250000000E+02  0.00000E+00  9.000E+00
      21     1     1     2   502   511  3.537118371E+01 -3.404698763E+00 -3.042288757E+02  3.062971129E+02  3.814697266E-06  0.00000E+00  9.000E+00
#rwgt            1           1   9.2678081997370265E-002           7      211054           0
</event>
<event>
      5   9999  3.79277E-02  6.14814E+01 -1.00000E+00  1.34140E-01
      21    -1     0     0   502   512  0.000000000E+00  0.000000000E+00  2.608920508E+02  2.608920508E+02  0.000000000E+00  0.00000E+00  9.000E+00
      21    -1     0     0   501   502  0.000000000E+00  0.000000000E+00 -5.795341884E+02  5.795341884E+02  0.000000000E+00  0.00000E+00  9.000E+00
      25     1     1     2     0     0 -9.634448534E+01 -2.790898229E+02  4.330643731E+01  3.235333624E+02  1.250000000E+02  0.00000E+00  9.000E+00
      25     1     1     2     0     0  3.617761060E+01  2.664441658E+02 -3.411097052E+02  4.519758224E+02  1.250000000E+02  0.00000E+00  9.000E+00
      21     1     1     2   501   512  6.016687474E+01  1.264565704E+01 -2.083886978E+01  6.491705439E+01  6.743495762E-07  0.00000E+00  9.000E+00
#rwgt            1           1  0.21184780982600215                7      211417           0
</event>
<event>
      5   9999  3.79277E-02  4.92574E+01 -1.00000E+00  1.39447E-01
      21    -1     0     0   502   511  0.000000000E+00  0.000000000E+00  2.631007653E+02  2.631007653E+02  0.000000000E+00  0.00000E+00  9.000E+00
      21    -1     0     0   501   502  0.000000000E+00  0.000000000E+00 -3.004727193E+02  3.004727193E+02  0.000000000E+00  0.00000E+00  9.000E+00
      25     1     1     2     0     0 -2.079065423E+02  3.007661855E+01 -1.490306553E+02  2.862950743E+02  1.250000000E+02  0.00000E+00  9.000E+00
      25     1     1     2     0     0  1.586829906E+02 -2.825170841E+01  8.238563043E+01  2.199791868E+02  1.250000000E+02  0.00000E+00  9.000E+00
      21     1     1     2   501   511  4.922355172E+01 -1.824910147E+00  2.927307087E+01  5.729922355E+01  1.168007728E-06  0.00000E+00  9.000E+00
#rwgt            1           1   3.7855633996114899E-002           7      211563           0
</event>
<event>
      5   9999 -3.79277E-02  3.77203E+01 -1.00000E+00  1.46439E-01
      21    -1     0     0   502   501  0.000000000E+00  0.000000000E+00  2.350521877E+02  2.350521877E+02  0.000000000E+00  0.00000E+00  9.000E+00
      21    -1     0     0   512   502  0.000000000E+00  0.000000000E+00 -2.168030957E+02  2.168030957E+02  0.000000000E+00  0.00000E+00  9.000E+00
      25     1     1     2     0     0 -9.692046728E+01 -7.905970577E+01  8.077915998E+01  1.944075275E+02  1.250000000E+02  0.00000E+00  9.000E+00
      25     1     1     2     0     0  1.305465111E+02  6.196851182E+01 -8.120439675E+00  1.912418092E+02  1.250000000E+02  0.00000E+00  9.000E+00
      21     1     1     2   512   501 -3.362604386E+01  1.709119395E+01 -5.440962835E+01  6.620594681E+01  6.743495762E-07  0.00000E+00  9.000E+00
#rwgt            1           1 -0.12910566480066388                7      212099           0
</event>
<event>
      5   9999  3.79277E-02  5.16937E+01 -1.00000E+00  1.38255E-01
      21    -1     0     0   502   501  0.000000000E+00  0.000000000E+00  2.805948662E+02  2.805948662E+02  0.000000000E+00  0.00000E+00  9.000E+00
      21    -1     0     0   501   511  0.000000000E+00  0.000000000E+00 -2.125421847E+02  2.125421847E+02  0.000000000E+00  0.00000E+00  9.000E+00
      25     1     1     2     0     0 -2.483471482E+01 -1.364290219E+02  1.173627903E+02  2.205190822E+02  1.250000000E+02  0.00000E+00  9.000E+00
      25     1     1     2     0     0 -2.011162323E+01  1.619646104E+02 -6.799450274E+00  2.056896812E+02  1.250000000E+02  0.00000E+00  9.000E+00
      21     1     1     2   502   511  4.494633805E+01 -2.553558855E+01 -4.251065846E+01  6.692828751E+01  8.259061849E-07  0.00000E+00  9.000E+00
#rwgt            1           1   3.6752731958376118E-002           7      212219           0
</event>
<event>
      5   9999  3.79277E-02  5.28025E+01 -1.00000E+00  1.37738E-01
      21    -1     0     0   512   501  0.000000000E+00  0.000000000E+00  3.939368996E+02  3.939368996E+02  0.000000000E+00  0.00000E+00  9.000E+00
      21    -1     0     0   501   502  0.000000000E+00  0.000000000E+00 -1.629416367E+02  1.629416367E+02  0.000000000E+00  0.00000E+00  9.000E+00
      25     1     1     2     0     0 -3.376932555E+01 -1.743515260E+02  2.918729956E+01  2.191248968E+02  1.250000000E+02  0.00000E+00  9.000E+00
      25     1     1     2     0     0 -1.851087183E+01  1.669431135E+02  1.228118002E+02  2.427352339E+02  1.250000000E+02  0.00000E+00  9.000E+00
      21     1     1     2   512   502  5.228019739E+01  7.408412524E+00  7.899616310E+01  9.501840558E+01  0.000000000E+00  0.00000E+00  9.000E+00
#rwgt            1           1   3.9831759035157677E-002           7      212511           0
</event>
<event>
      5   9999  3.79277E-02  2.10069E+01 -1.00000E+00  1.64628E-01
      21    -1     0     0   502   511  0.000000000E+00  0.000000000E+00  8.479295925E+02  8.479295925E+02  0.000000000E+00  0.00000E+00  9.000E+00
      21    -1     0     0   501   502  0.000000000E+00  0.000000000E+00 -1.160272623E+02  1.160272623E+02  0.000000000E+00  0.00000E+00  9.000E+00
      25     1     1     2     0     0  2.170800269E+01 -1.936708857E+01  6.585327432E+02  6.709222723E+02  1.250000000E+02  0.00000E+00  9.000E+00
      25     1     1     2     0     0 -2.631312448E+01  3.986303300E+01 -6.800784120E+01  1.501049912E+02  1.250000000E+02  0.00000E+00  9.000E+00
      21     1     1     2   501   511  4.605121784E+00 -2.049594442E+01  1.413774281E+02  1.429295913E+02  0.000000000E+00  0.00000E+00  9.000E+00
#rwgt            1           1   4.1453391979442290E-002           7      212571           0
</event>
<event>
      5   9999  3.79277E-02  3.70046E+01 -1.00000E+00  1.46968E-01
      21    -1     0     0   502   501  0.000000000E+00  0.000000000E+00  8.481009733E+01  8.481009733E+01  0.000000000E+00  0.00000E+00  9.000E+00
       1    -1     0     0   501     0  0.000000000E+00  0.000000000E+00 -1.164832940E+03  1.164832940E+03  0.000000000E+00  0.00000E+00  9.000E+00
      25     1     1     2     0     0  1.898544788E+01 -1.890607433E+02 -2.053347305E+02  3.064176291E+02  1.250000000E+02  0.00000E+00  9.000E+00
      25     1     1     2     0     0  1.143337074E+01  1.679885769E+02 -2.927337259E+02  3.600957070E+02  1.250000000E+02  0.00000E+00  9.000E+00
       1     1     1     2   502     0 -3.041881862E+01  2.107216636E+01 -5.819543860E+02  5.831297009E+02  1.078959322E-05  0.00000E+00  9.000E+00
#rwgt            1           1   3.6046908508363264E-002           7      212713           0
</event>
<event>
      5   9999 -3.79277E-02  9.78729E+01 -1.00000E+00  1.24249E-01
      21    -1     0     0   502   501  0.000000000E+00  0.000000000E+00  3.330123236E+01  3.330123236E+01  0.000000000E+00  0.00000E+00  9.000E+00
       1    -1     0     0   501     0  0.000000000E+00  0.000000000E+00 -2.793513184E+03  2.793513184E+03  0.000000000E+00  0.00000E+00  9.000E+00
      25     1     1     2     0     0 -1.568810994E+02 -5.728276303E+01 -3.945647915E+02  4.463175652E+02  1.250000000E+02  0.00000E+00  9.000E+00
      25     1     1     2     0     0  7.494856456E+01  3.746127994E+00 -9.141080240E+02  9.256618175E+02  1.250000000E+02  0.00000E+00  9.000E+00
       1     1     1     2   502     0  8.193253487E+01  5.353663503E+01 -1.451539136E+03  1.454835034E+03  0.000000000E+00  0.00000E+00  9.000E+00
#rwgt            1           1  -2.4227207023820550E-002           7      212860           0
</event>
<event>
      5   9999  3.79277E-02  1.56480E+02 -1.00000E+00  1.15670E-01
      -1    -1     0     0     0   501  0.000000000E+00  0.000000000E+00  2.697910904E+02  2.697910904E+02  0.000000000E+00  0.00000E+00  9.000E+00
      21    -1     0     0   501   502  0.000000000E+00  0.000000000E+00 -4.233361786E+02  4.233361786E+02  0.000000000E+00  0.00000E+00  9.000E+00
      25     1     1     2     0     0  1.572438435E+01 -1.483881515E+00 -3.802043699E+01  1.316055158E+02  1.250000000E+02  0.00000E+00  9.000E+00
      25     1     1     2     0     0  1.407234440E+02  4.658851993E+00 -2.781213235E+02  3.358589930E+02  1.250000000E+02  0.00000E+00  9.000E+00
      -1     1     1     2     0   502 -1.564478284E+02 -3.174970478E+00  1.625966723E+02  2.256627601E+02  3.814697266E-06  0.00000E+00  9.000E+00
#rwgt            2           5   6.6387179816143217E-005           7      212909           0
</event>
<event>
      5   9999  3.79277E-02  1.07297E+01 -1.00000E+00  1.92286E-01
      21    -1     0     0   502   511  0.000000000E+00  0.000000000E+00  3.969363340E+02  3.969363340E+02  0.000000000E+00  0.00000E+00  9.000E+00
      21    -1     0     0   501   502  0.000000000E+00  0.000000000E+00 -8.172263760E+01  8.172263760E+01  0.000000000E+00  0.00000E+00  9.000E+00
      25     1     1     2     0     0  8.247509970E+01  8.231477922E+01  1.481793209E+02  2.261857115E+02  1.250000000E+02  0.00000E+00  9.000E+00
      25     1     1     2     0     0 -9.299316910E+01 -8.443540268E+01  1.491630385E+02  2.316283203E+02  1.250000000E+02  0.00000E+00  9.000E+00
      21     1     1     2   501   511  1.051806939E+01  2.120623461E+00  1.787133706E+01  2.084493982E+01  2.384185791E-07  0.00000E+00  9.000E+00
#rwgt            1           1   4.3850096612376606E-002           7      212943           0
</event>
<event>
      5   9999 -3.79277E-02  3.79245E+01 -1.00000E+00  1.46290E-01
      21    -1     0     0   512   501  0.000000000E+00  0.000000000E+00  8.849288006E+01  8.849288006E+01  0.000000000E+00  0.00000E+00  9.000E+00
      21    -1     0     0   501   502  0.000000000E+00  0.000000000E+00 -1.117166992E+03  1.117166992E+03  0.000000000E+00  0.00000E+00  9.000E+00
      25     1     1     2     0     0 -9.805270791E+01  1.963947793E+02 -7.016225580E+02  7.457107058E+02  1.250000000E+02  0.00000E+00  9.000E+00
      25     1     1     2     0     0  8.117110528E+01 -2.303547693E+02 -3.197506001E+02  4.213282738E+02  1.250000000E+02  0.00000E+00  9.000E+00
      21     1     1     2   512   502  1.688160263E+01  3.395998995E+01 -7.300954151E+00  3.862089275E+01  6.848052319E-07  0.00000E+00  9.000E+00
#rwgt            1           1  -1.9021782262663260E-002           7      213142           0
</event>
<event>
      5   9999  3.79277E-02  1.65404E+01 -1.00000E+00  1.73475E-01
      21    -1     0     0   502   501  0.000000000E+00  0.000000000E+00  1.596049807E+02  1.596049807E+02  0.000000000E+00  0.00000E+00  9.000E+00
      21    -1     0     0   501   511  0.000000000E+00  0.000000000E+00 -3.750299617E+02  3.750299617E+02  0.000000000E+00  0.00000E+00  9.000E+00
      25     1     1     2     0     0  1.342469711E+02 -1.241687871E+02 -7.885306439E+01  2.351232500E+02  1.250000000E+02  0.00000E+00  9.000E+00
      25     1     1     2     0     0 -1.462894718E+02  1.128302386E+02 -7.434549468E+01  2.351244880E+02  1.250000000E+02  0.00000E+00  9.000E+00
      21     1     1     2   502   511  1.204250069E+01  1.133854853E+01 -6.222642186E+01  6.438720434E+01  6.743495762E-07  0.00000E+00  9.000E+00
#rwgt            1           1   3.3227185070813965E-002           7      213298           0
</event>
<event>
      5   9999  3.79277E-02  1.55172E+02 -1.00000E+00  1.15813E-01
      21    -1     0     0   502   501  0.000000000E+00  0.000000000E+00  5.208498063E+02  5.208498063E+02  0.000000000E+00  0.00000E+00  9.000E+00
      -1    -1     0     0     0   502  0.000000000E+00  0.000000000E+00 -2.171380505E+02  2.171380505E+02  0.000000000E+00  0.00000E+00  9.000E+00
      25     1     1     2     0     0  1.208619167E+02  1.458483204E+02  3.050753889E+02  3.802306253E+02  1.250000000E+02  0.00000E+00  9.000E+00
      25     1     1     2     0     0  3.313935936E+01 -1.268195013E+02  6.012805864E+01  1.908449278E+02  1.250000000E+02  0.00000E+00  9.000E+00
      -1     1     1     2     0   501 -1.540012760E+02 -1.902881916E+01 -6.149169180E+01  1.669123037E+02  1.348699152E-06  0.00000E+00  9.000E+00
#rwgt            2          10   4.9720524651711078E-005           7      213538           0
</event>
<event>
      5   9999  3.79277E-02  6.43129E+01 -1.00000E+00  1.33112E-01
      21    -1     0     0   502   511  0.000000000E+00  0.000000000E+00  5.520289675E+01  5.520289675E+01  0.000000000E+00  0.00000E+00  9.000E+00
      21    -1     0     0   501   502  0.000000000E+00  0.000000000E+00 -1.573171533E+03  1.573171533E+03  0.000000000E+00  0.00000E+00  9.000E+00
      25     1     1     2     0     0  7.912400647E+01 -1.244727798E+02 -8.498810560E+02  8.715944531E+02  1.250000000E+02  0.00000E+00  9.000E+00
      25     1     1     2     0     0 -1.369197403E+02  1.526827565E+02 -6.453048481E+02  6.885509323E+02  1.250000000E+02  0.00000E+00  9.000E+00
      21     1     1     2   501   511  5.779573378E+01 -2.820997673E+01 -2.278273243E+01  6.822904460E+01  7.539457465E-07  0.00000E+00  9.000E+00
#rwgt            1           1   3.9384021372096144E-002           7      213587           0
</event>
<event>
      5   9999  3.79277E-02  2.10268E+01 -1.00000E+00  1.64595E-01
      21    -1     0     0   512   501  0.000000000E+00  0.000000000E+00  4.838843612E+02  4.838843612E+02  0.000000000E+00  0.00000E+00  9.000E+00
      21    -1     0     0   501   502  0.000000000E+00  0.000000000E+00 -6.415898934E+02  6.415898934E+02  0.000000000E+00  0.00000E+00  9.000E+00
      25     1     1     2     0     0 -4.933398305E+01 -4.166210448E+01 -5.204745335E+01  1.500117003E+02  1.250000000E+02  0.00000E+00  9.000E+00
      25     1     1     2     0     0  3.283058218E+01  5.469142434E+01 -5.311882078E+02  5.494132425E+02  1.250000000E+02  0.00000E+00  9.000E+00
      21     1     1     2   512   502  1.650340087E+01 -1.302931986E+01  4.255301289E+02  4.260493117E+02  0.000000000E+00  0.00000E+00  9.000E+00
#rwgt            1           1   3.8881947756796056E-002           7      213698           0
</event>
<event>
      5   9999  3.79277E-02  2.65900E+01 -1.00000E+00  1.56771E-01
      21    -1     0     0   502   501  0.000000000E+00  0.000000000E+00  1.604428506E+03  1.604428506E+03  0.000000000E+00  0.00000E+00  9.000E+00
      21    -1     0     0   511   502  0.000000000E+00  0.000000000E+00 -5.504806507E+01  5.504806507E+01  0.000000000E+00  0.00000E+00  9.000E+00
      25     1     1     2     0     0  7.647475080E+00 -1.481764084E+02  1.290862913E+03  1.305360790E+03  1.250000000E+02  0.00000E+00  9.000E+00
      25     1     1     2     0     0 -2.095669253E+01  1.711957958E+02  2.119483318E+02  3.004900644E+02  1.250000000E+02  0.00000E+00  9.000E+00
      21     1     1     2   511   501  1.330921745E+01 -2.301938738E+01  4.656919638E+01  5.362571693E+01  9.536743164E-07  0.00000E+00  9.000E+00
#rwgt            1           1   3.6765532549280978E-002           7      213936           0
</event>
<event>
      5   9999  3.79277E-02  1.64025E+01 -1.00000E+00  1.73803E-01
      21    -1     0     0   512   501  0.000000000E+00  0.000000000E+00  1.926131730E+02  1.926131730E+02  0.000000000E+00  0.00000E+00  9.000E+00
      21    -1     0     0   501   502  0.000000000E+00  0.000000000E+00 -5.868377122E+02  5.868377122E+02  0.000000000E+00  0.00000E+00  9.000E+00
      25     1     1     2     0     0 -1.096275652E+02 -1.080313357E+02 -2.125373341E+02  2.906649118E+02  1.250000000E+02  0.00000E+00  9.000E+00
      25     1     1     2     0     0  1.149421933E+02  1.235489636E+02 -3.017360939E+02  3.676217140E+02  1.250000000E+02  0.00000E+00  9.000E+00
      21     1     1     2   512   502 -5.314628096E+00 -1.551762790E+01  1.200488888E+02  1.211642594E+02  2.697398305E-06  0.00000E+00  9.000E+00
#rwgt            1           1   3.8488156353713499E-002           7      214157           0
</event>
<event>
      5   9999  3.79277E-02  8.25123E+01 -1.00000E+00  1.27703E-01
      21    -1     0     0   511   501  0.000000000E+00  0.000000000E+00  9.423693483E+02  9.423693483E+02  0.000000000E+00  0.00000E+00  9.000E+00
      21    -1     0     0   501   502  0.000000000E+00  0.000000000E+00 -1.073409490E+02  1.073409490E+02  0.000000000E+00  0.00000E+00  9.000E+00
      25     1     1     2     0     0 -1.089149841E+02  2.541892508E+02  4.234539760E+02  5.209730500E+02  1.250000000E+02  0.00000E+00  9.000E+00
      25     1     1     2     0     0  1.268229619E+02 -1.736437516E+02  2.939099753E+02  3.850250508E+02  1.250000000E+02  0.00000E+00  9.000E+00
      21     1     1     2   511   502 -1.790797774E+01 -8.054549923E+01  1.176644480E+02  1.437121965E+02  1.348699152E-06  0.00000E+00  9.000E+00
#rwgt            1           1   4.7306726407507459E-002           7      214361           0
</event>
<event>
      5   9999  3.79277E-02  1.88685E+01 -1.00000E+00  1.68483E-01
      21    -1     0     0   502   512  0.000000000E+00  0.000000000E+00  6.012249745E+02  6.012249745E+02  0.000000000E+00  0.00000E+00  9.000E+00
      21    -1     0     0   501   502  0.000000000E+00  0.000000000E+00 -6.245519643E+01  6.245519643E+01  0.000000000E+00  0.00000E+00  9.000E+00
      25     1     1     2     0     0 -2.824056687E+01 -9.540944213E+01  9.079569556E+01  1.837643861E+02  1.250000000E+02  0.00000E+00  9.000E+00
      25     1     1     2     0     0  1.605335570E+01  8.100479533E+01  3.597769653E+02  3.897229168E+02  1.250000000E+02  0.00000E+00  9.000E+00
      21     1     1     2   501   512  1.218721116E+01  1.440464680E+01  8.819711725E+01  9.019286810E+01  9.536743164E-07  0.00000E+00  9.000E+00
#rwgt            1           1   4.2203392079534094E-002           7      214445           0
</event>
<event>
      5   9999  3.79277E-02  2.91201E+01 -1.00000E+00  1.53943E-01
      21    -1     0     0   502   511  0.000000000E+00  0.000000000E+00  1.524307795E+03  1.524307795E+03  0.000000000E+00  0.00000E+00  9.000E+00
      21    -1     0     0   501   502  0.000000000E+00  0.000000000E+00 -2.043819750E+02  2.043819750E+02  0.000000000E+00  0.00000E+00  9.000E+00
      25     1     1     2     0     0  6.773221023E+01 -3.109895730E+02  4.303278072E+01  3.446432750E+02  1.250000000E+02  0.00000E+00  9.000E+00
      25     1     1     2     0     0 -5.529135897E+01  2.846607756E+02  4.140974317E+02  5.207596129E+02  1.250000000E+02  0.00000E+00  9.000E+00
      21     1     1     2   501   511 -1.244085125E+01  2.632879741E+01  8.627956076E+02  8.632868821E+02  0.000000000E+00  0.00000E+00  9.000E+00
#rwgt            1           1  0.16826151030728317                7      214618           0
</event>
<event>
      5   9999  3.79277E-02  1.73900E+02 -1.00000E+00  1.13904E-01
      21    -1     0     0   502   501  0.000000000E+00  0.000000000E+00  2.770323178E+02  2.770323178E+02  0.000000000E+00  0.00000E+00  9.000E+00
       2    -1     0     0   501     0  0.000000000E+00  0.000000000E+00 -3.056130285E+02  3.056130285E+02  0.000000000E+00  0.00000E+00  9.000E+00
      25     1     1     2     0     0 -9.828984048E+01  7.100712896E+01  1.354648790E+02  2.206323606E+02  1.250000000E+02  0.00000E+00  9.000E+00
      25     1     1     2     0     0  7.480086046E+00  7.729932613E+01 -9.348336701E+01  1.743424143E+02  1.250000000E+02  0.00000E+00  9.000E+00
       2     1     1     2   502     0  9.080975443E+01 -1.483064551E+02 -7.056222266E+01  1.876705715E+02  3.162979880E-06  0.00000E+00  9.000E+00
#rwgt            1           1   5.6479432699392054E-002           7      214906           0
</event>
<event>
      5   9999  3.79277E-02  1.69818E+01 -1.00000E+00  1.72453E-01
      21    -1     0     0   511   501  0.000000000E+00  0.000000000E+00  3.242003427E+02  3.242003427E+02  0.000000000E+00  0.00000E+00  9.000E+00
      21    -1     0     0   501   502  0.000000000E+00  0.000000000E+00 -2.783470186E+02  2.783470186E+02  0.000000000E+00  0.00000E+00  9.000E+00
      25     1     1     2     0     0  1.470052687E+02 -1.127400947E+02 -1.068270742E+02  2.477052720E+02  1.250000000E+02  0.00000E+00  9.000E+00
      25     1     1     2     0     0 -1.461707557E+02  9.577885305E+01  1.420387106E+01  2.153281878E+02  1.250000000E+02  0.00000E+00  9.000E+00
      21     1     1     2   511   502 -8.345129640E-01  1.696124170E+01  1.384765272E+02  1.395139016E+02  0.000000000E+00  0.00000E+00  9.000E+00
#rwgt            1           1   5.2400271004043632E-002           7      215057           0
</event>
<event>
      5   9999  3.79277E-02  8.27030E+01 -1.00000E+00  1.27655E-01
       1    -1     0     0   502     0  0.000000000E+00  0.000000000E+00  8.446467697E+02  8.446467697E+02  0.000000000E+00  0.00000E+00  9.000E+00
      21    -1     0     0   501   502  0.000000000E+00  0.000000000E+00 -2.391914562E+02  2.391914562E+02  0.000000000E+00  0.00000E+00  9.000E+00
      25     1     1     2     0     0 -4.404963216E+01 -1.135296121E+02 -1.692174114E+02  2.430820340E+02  1.250000000E+02  0.00000E+00  9.000E+00
      25     1     1     2     0     0  9.300984676E+01  1.801830585E+02  4.989102982E+02  5.528591609E+02  1.250000000E+02  0.00000E+00  9.000E+00
       1     1     1     2   501     0 -4.896021460E+01 -6.665344640E+01  2.757624267E+02  2.878970311E+02  0.000000000E+00  0.00000E+00  9.000E+00
#rwgt            1           1   4.8656542286179674E-002           7      215253           0
</event>
<event>
      5   9999 -3.79277E-02  1.00658E+02 -1.00000E+00  1.23700E-01
      21    -1     0     0   502   511  0.000000000E+00  0.000000000E+00  3.906767538E+02  3.906767538E+02  0.000000000E+00  0.00000E+00  9.000E+00
      21    -1     0     0   501   502  0.000000000E+00  0.000000000E+00 -3.143236987E+02  3.143236987E+02  0.000000000E+00  0.00000E+00  9.000E+00
      25     1     1     2     0     0  1.670508946E+01 -2.030710989E+02 -3.651808263E+01  2.418170829E+02  1.250000000E+02  0.00000E+00  9.000E+00
      25     1     1     2     0     0  7.600404391E+01  2.422760780E+02 -3.408092774E+01  2.850628392E+02  1.250000000E+02  0.00000E+00  9.000E+00
      21     1     1     2   501   511 -9.270913338E+01 -3.920497916E+01  1.469520654E+02  1.781205304E+02  1.907348633E-06  0.00000E+00  9.000E+00
#rwgt            1           1  -2.4106002679994347E-002           7      215385           0
</event>
<event>
      5   9999  3.79277E-02  2.31577E+01 -1.00000E+00  1.61282E-01
      21    -1     0     0   502   501  0.000000000E+00  0.000000000E+00  2.140729270E+03  2.140729270E+03  0.000000000E+00  0.00000E+00  9.000E+00
      21    -1     0     0   501   512  0.000000000E+00  0.000000000E+00 -2.357959730E+01  2.357959730E+01  0.000000000E+00  0.00000E+00  9.000E+00
      25     1     1     2     0     0 -1.015468472E+02  1.177019498E+02  1.080736584E+03  1.098991390E+03  1.250000000E+02  0.00000E+00  9.000E+00
      25     1     1     2     0     0  1.153623571E+02 -1.362871216E+02  9.865276399E+02  1.010318978E+03  1.250000000E+02  0.00000E+00  9.000E+00
      21     1     1     2   502   512 -1.381550995E+01  1.858517184E+01  4.988544807E+01  5.499849867E+01  0.000000000E+00  0.00000E+00  9.000E+00
#rwgt            1           1   8.3777125134192415E-002           7      215475           0
</event>
<event>
      5   9999  3.79277E-02  6.58179E+01 -1.00000E+00  1.32590E-01
      21    -1     0     0   502   501  0.000000000E+00  0.000000000E+00  7.306558639E+02  7.306558639E+02  0.000000000E+00  0.00000E+00  9.000E+00
      21    -1     0     0   511   502  0.000000000E+00  0.000000000E+00 -3.479799084E+02  3.479799084E+02  0.000000000E+00  0.00000E+00  9.000E+00
      25     1     1     2     0     0  2.180443088E+02  4.684683097E+01  1.008024289E+02  2.748164402E+02  1.250000000E+02  0.00000E+00  9.000E+00
      25     1     1     2     0     0 -2.503897221E+02  1.047479350E+01  5.015795293E+02  5.744664990E+02  1.250000000E+02  0.00000E+00  9.000E+00
      21     1     1     2   511   501  3.234541333E+01 -5.732162447E+01 -2.197060028E+02  2.293528331E+02  2.697398305E-06  0.00000E+00  9.000E+00
#rwgt            1           1   3.4478464537768240E-002           7      215645           0
</event>
<event>
      5   9999  3.79277E-02  1.06076E+02 -1.00000E+00  1.22687E-01
      21    -1     0     0   502   501  0.000000000E+00  0.000000000E+00  2.087533461E+02  2.087533461E+02  0.000000000E+00  0.00000E+00  9.000E+00
      21    -1     0     0   512   502  0.000000000E+00  0.000000000E+00 -8.412459403E+02  8.412459403E+02  0.000000000E+00  0.00000E+00  9.000E+00
      25     1     1     2     0     0 -2.048441953E+02  7.272269800E+01  6.767617722E+01  2.597206193E+02  1.250000000E+02  0.00000E+00  9.000E+00
      25     1     1     2     0     0  1.380616688E+02 -1.551381156E+02 -3.603452688E+02  4.342839763E+02  1.250000000E+02  0.00000E+00  9.000E+00
      21     1     1     2   512   501  6.678252652E+01  8.241541756E+01 -3.398235026E+02  3.559946907E+02  3.814697266E-06  0.00000E+00  9.000E+00
#rwgt            1           1   4.5999381829973977E-002           7      215755           0
</event>
<event>
      5   9999  3.79277E-02  8.93774E+01 -1.00000E+00  1.26062E-01
      21    -1     0     0   502   501  0.000000000E+00  0.000000000E+00  5.029943795E+02  5.029943795E+02  0.000000000E+00  0.00000E+00  9.000E+00
       2    -1     0     0   501     0  0.000000000E+00  0.000000000E+00 -1.530218093E+03  1.530218093E+03  0.000000000E+00  0.00000E+00  9.000E+00
      25     1     1     2     0     0  5.551175257E+01  1.592858041E+02  1.323850874E+02  2.482022027E+02  1.250000000E+02  0.00000E+00  9.000E+00
      25     1     1     2     0     0  3.372691992E+01 -1.543084425E+02  2.787310329E+02  3.438961896E+02  1.250000000E+02  0.00000E+00  9.000E+00
       2     1     1     2   502     0 -8.923867250E+01 -4.977361620E+00 -1.438339834E+03  1.441114080E+03  2.157918644E-05  0.00000E+00  9.000E+00
#rwgt            1           1   4.3500236473708070E-002           7      215986           0
</event>
<event>
      5   9999  3.79277E-02  6.30673E+01 -1.00000E+00  1.33556E-01
      21    -1     0     0   511   501  0.000000000E+00  0.000000000E+00  1.720734474E+03  1.720734474E+03  0.000000000E+00  0.00000E+00  9.000E+00
      21    -1     0     0   501   502  0.000000000E+00  0.000000000E+00 -6.474205223E+01  6.474205223E+01  0.000000000E+00  0.00000E+00  9.000E+00
      25     1     1     2     0     0 -2.333379174E+02 -9.231953530E+01  4.319908672E+02  5.149860092E+02  1.250000000E+02  0.00000E+00  9.000E+00
      25     1     1     2     0     0  2.427126245E+02  2.995288430E+01  9.251350060E+02  9.650421611E+02  1.250000000E+02  0.00000E+00  9.000E+00
      21     1     1     2   511   502 -9.374707091E+00  6.236665100E+01  2.988665483E+02  3.054483557E+02  5.394796609E-06  0.00000E+00  9.000E+00
#rwgt            1           1   3.8207005172701765E-002           7      216038           0
</event>
<event>
      5   9999  3.79277E-02  2.54797E+01 -1.00000E+00  1.58135E-01
      21    -1     0     0   502   501  0.000000000E+00  0.000000000E+00  7.350424107E+02  7.350424107E+02  0.000000000E+00  0.00000E+00  9.000E+00
      21    -1     0     0   512   502  0.000000000E+00  0.000000000E+00 -1.528869592E+02  1.528869592E+02  0.000000000E+00  0.00000E+00  9.000E+00
      25     1     1     2     0     0 -6.059470723E+00  1.095397949E+02  5.307193130E+02  5.561687452E+02  1.250000000E+02  0.00000E+00  9.000E+00
      25     1     1     2     0     0  3.138732040E+01 -1.067622561E+02  1.531796476E+02  2.268751808E+02  1.250000000E+02  0.00000E+00  9.000E+00
      21     1     1     2   512   501 -2.532784968E+01 -2.777538788E+00 -1.017435092E+02  1.048854439E+02  1.907348633E-06  0.00000E+00  9.000E+00
#rwgt            1           1   4.1094175007577019E-002           7      216229           0
</event>
<event>
      5   9999  3.79277E-02  1.76192E+02 -1.00000E+00  1.13689E-01
      21    -1     0     0   502   501  0.000000000E+00  0.000000000E+00  2.712254548E+02  2.712254548E+02  0.000000000E+00  0.00000E+00  9.000E+00
       2    -1     0     0   501     0  0.000000000E+00  0.000000000E+00 -3.207800512E+03  3.207800512E+03  0.000000000E+00  0.00000E+00  9.000E+00
      25     1     1     2     0     0 -1.249646157E+02 -1.782304180E+02 -9.196936062E+01  2.673305077E+02  1.250000000E+02  0.00000E+00  9.000E+00
      25     1     1     2     0     0 -4.083315757E+01  1.186101413E+02  1.376156467E+02  2.242738919E+02  1.250000000E+02  0.00000E+00  9.000E+00
       2     1     1     2   502     0  1.657977733E+02  5.962027667E+01 -2.982221344E+03  2.987421568E+03  4.315837288E-05  0.00000E+00  9.000E+00
#rwgt            1           1   3.1434613100466219E-002           7      216372           0
</event>
<event>
      5   9999  3.79277E-02  1.73825E+01 -1.00000E+00  1.71557E-01
      21    -1     0     0   502   501  0.000000000E+00  0.000000000E+00  1.044215877E+03  1.044215877E+03  0.000000000E+00  0.00000E+00  9.000E+00
      21    -1     0     0   501   511  0.000000000E+00  0.000000000E+00 -1.107229802E+02  1.107229802E+02  0.000000000E+00  0.00000E+00  9.000E+00
      25     1     1     2     0     0  1.014479831E+02  1.076395305E+02  6.532033288E+02  6.813057688E+02  1.250000000E+02  0.00000E+00  9.000E+00
      25     1     1     2     0     0 -1.148989879E+02 -9.662947849E+01  3.505200919E+02  4.012834016E+02  1.250000000E+02  0.00000E+00  9.000E+00
      21     1     1     2   502   511  1.345100480E+01 -1.101005201E+01 -7.023052362E+01  7.234968710E+01  2.132480600E-06  0.00000E+00  9.000E+00
#rwgt            2          11   2.0224349845405099E-003           7      216463           0
</event>
<event>
      5   9999  3.79277E-02  5.31566E+01 -1.00000E+00  1.37575E-01
      21    -1     0     0   502   512  0.000000000E+00  0.000000000E+00  1.621197902E+01  1.621197902E+01  0.000000000E+00  0.00000E+00  9.000E+00
      21    -1     0     0   501   502  0.000000000E+00  0.000000000E+00 -3.016431082E+03  3.016431082E+03  0.000000000E+00  0.00000E+00  9.000E+00
      25     1     1     2     0     0 -5.242885046E+01 -5.893213501E-01 -2.181034583E+03  2.185242775E+03  1.250000000E+02  0.00000E+00  9.000E+00
      25     1     1     2     0     0  7.910416718E+01 -4.538955249E+01 -7.000169143E+02  7.169144726E+02  1.250000000E+02  0.00000E+00  9.000E+00
      21     1     1     2   501   512 -2.667531672E+01  4.597887384E+01 -1.191676056E+02  1.304858137E+02  4.264961200E-06  0.00000E+00  9.000E+00
#rwgt            1           1   3.0882119649370796E-002           7      216618           0
</event>
<event>
      5   9999  3.79277E-02  2.89120E+01 -1.00000E+00  1.54163E-01
      21    -1     0     0   502   511  0.000000000E+00  0.000000000E+00  3.621849968E+01  3.621849968E+01  0.000000000E+00  0.00000E+00  9.000E+00
      21    -1     0     0   501   502  0.000000000E+00  0.000000000E+00 -1.348661893E+03  1.348661893E+03  0.000000000E+00  0.00000E+00  9.000E+00
      25     1     1     2     0     0  6.115026000E+01 -1.280816069E+02 -5.067347218E+02  5.408782956E+02  1.250000000E+02  0.00000E+00  9.000E+00
      25     1     1     2     0     0 -8.899881474E+01  1.358508671E+02 -7.757615160E+02  8.023759573E+02  1.250000000E+02  0.00000E+00  9.000E+00
      21     1     1     2   501   511  2.784855474E+01 -7.769260255E+00 -2.994715599E+01  4.162614032E+01  4.768371582E-07  0.00000E+00  9.000E+00
#rwgt            1           1   3.9394650286006999E-002           7      216706           0
</event>
<event>
      5   9999  3.79277E-02  2.15857E+01 -1.00000E+00  1.63681E-01
      21    -1     0     0   502   512  0.000000000E+00  0.000000000E+00  6.668176674E+02  6.668176674E+02  0.000000000E+00  0.00000E+00  9.000E+00
      21    -1     0     0   501   502  0.000000000E+00  0.000000000E+00 -7.009004876E+01  7.009004876E+01  0.000000000E+00  0.00000E+00  9.000E+00
      25     1     1     2     0     0  2.763269036E+01 -1.124591334E+02  3.306882197E+02  3.720084957E+02  1.250000000E+02  0.00000E+00  9.000E+00
      25     1     1     2     0     0 -3.058339360E+01  9.107608929E+01  7.849279000E+01  1.761144971E+02  1.250000000E+02  0.00000E+00  9.000E+00
      21     1     1     2   501   512  2.950703247E+00  2.138304414E+01  1.875466090E+02  1.887847233E+02  2.697398305E-06  0.00000E+00  9.000E+00
#rwgt            1           1   4.2427373806307248E-002           7      216980           0
</event>
<event>
      5   9999  3.79277E-02  9.31978E+00 -1.00000E+00  1.99362E-01
      21    -1     0     0   502   501  0.000000000E+00  0.000000000E+00  3.418045572E+02  3.418045572E+02  0.000000000E+00  0.00000E+00  9.000E+00
      21    -1     0     0   501   511  0.000000000E+00  0.000000000E+00 -1.857613817E+02  1.857613817E+02  0.000000000E+00  0.00000E+00  9.000E+00
      25     1     1     2     0     0  1.053582713E+02 -1.535383703E+02  1.811297045E+02  2.882834825E+02  1.250000000E+02  0.00000E+00  9.000E+00
      25     1     1     2     0     0 -9.957423576E+01  1.462306230E+02 -4.477867589E+00  2.166644291E+02  1.250000000E+02  0.00000E+00  9.000E+00
      21     1     1     2   502   511 -5.784035489E+00  7.307747273E+00 -2.060866139E+01  2.261802735E+01  3.371747881E-07  0.00000E+00  9.000E+00
#rwgt            1           1   4.0865675940771083E-002           7      217328           0
</event>
<event>
      5   9999  3.79277E-02  2.81591E+01 -1.00000E+00  1.54975E-01
      21    -1     0     0   502   501  0.000000000E+00  0.000000000E+00  6.810073872E+01  6.810073872E+01  0.000000000E+00  0.00000E+00  9.000E+00
      21    -1     0     0   501   512  0.000000000E+00  0.000000000E+00 -2.157343708E+03  2.157343708E+03  0.000000000E+00  0.00000E+00  9.000E+00
      25     1     1     2     0     0 -2.922589044E+01  1.173207715E+02 -3.921740316E+02  4.290032485E+02  1.250000000E+02  0.00000E+00  9.000E+00
      25     1     1     2     0     0  5.729535666E+01 -1.195657142E+02 -1.179298630E+02  2.170510781E+02  1.250000000E+02  0.00000E+00  9.000E+00
      21     1     1     2   502   512 -2.806946622E+01  2.244942616E+00 -1.579139074E+03  1.579390120E+03  3.051757812E-05  0.00000E+00  9.000E+00
#rwgt            1           1   3.6965682325676895E-002           7      217638           0
</event>
<event>
      5   9999  3.79277E-02  4.77749E+01 -1.00000E+00  1.40213E-01
      21    -1     0     0   502   511  0.000000000E+00  0.000000000E+00  1.341885005E+02  1.341885005E+02  0.000000000E+00  0.00000E+00  9.000E+00
      21    -1     0     0   501   502  0.000000000E+00  0.000000000E+00 -5.893665265E+02  5.893665265E+02  0.000000000E+00  0.00000E+00  9.000E+00
      25     1     1     2     0     0 -1.661300685E+01  5.742418789E+00 -4.676038799E+02  4.843421889E+02  1.250000000E+02  0.00000E+00  9.000E+00
      25     1     1     2     0     0 -2.934090284E+01  7.322008508E+00 -6.814350623E+01  1.455439378E+02  1.250000000E+02  0.00000E+00  9.000E+00
      21     1     1     2   501   511  4.595390968E+01 -1.306442730E+01  8.056936018E+01  9.366890026E+01  1.348699152E-06  0.00000E+00  9.000E+00
#rwgt            1           1   3.5177646679985221E-002           7      217794           0
</event>
<event>
      5   9999  3.79277E-02  1.00807E+01 -1.00000E+00  1.95354E-01
      21    -1     0     0   502   501  0.000000000E+00  0.000000000E+00  1.409501759E+03  1.409501759E+03  0.000000000E+00  0.00000E+00  9.000E+00
      21    -1     0     0   512   502  0.000000000E+00  0.000000000E+00 -8.313666665E+01  8.313666665E+01  0.000000000E+00  0.00000E+00  9.000E+00
      25     1     1     2     0     0 -1.887244827E+02  8.458509867E+01  9.084928210E+02  9.400828555E+02  1.250000000E+02  0.00000E+00  9.000E+00
      25     1     1     2     0     0  1.983794283E+02 -8.168638116E+01  4.526865908E+02  5.163111581E+02  1.250000000E+02  0.00000E+00  9.000E+00
      21     1     1     2   512   501 -9.654945596E+00 -2.898717508E+00 -3.481431970E+01  3.624441190E+01  6.743495762E-07  0.00000E+00  9.000E+00
#rwgt            1           1   3.1022147166333509E-002           7      218191           0
</event>
<event>
      5   9999  3.79277E-02  3.20523E+01 -1.00000E+00  1.51070E-01
      21    -1     0     0   511   501  0.000000000E+00  0.000000000E+00  1.809494763E+02  1.809494763E+02  0.000000000E+00  0.00000E+00  9.000E+00
      21    -1     0     0   501   502  0.000000000E+00  0.000000000E+00 -7.331234474E+02  7.331234474E+02  0.000000000E+00  0.00000E+00  9.000E+00
      25     1     1     2     0     0  1.914102536E+02  2.230502397E+02 -4.871682806E+02  5.825351734E+02  1.250000000E+02  0.00000E+00  9.000E+00
      25     1     1     2     0     0 -1.803119124E+02 -1.929806873E+02 -5.124465562E+01  2.966562762E+02  1.250000000E+02  0.00000E+00  9.000E+00
      21     1     1     2   511   502 -1.109834117E+01 -3.006955236E+01 -1.376103498E+01  3.488147417E+01  2.920019320E-07  0.00000E+00  9.000E+00
#rwgt            1           1   3.2029370402925895E-002           7      218597           0
</event>
<event>
      5   9999  3.79277E-02  1.37887E+02 -1.00000E+00  1.17862E-01
      21    -1     0     0   512   501  0.000000000E+00  0.000000000E+00  2.375530942E+02  2.375530942E+02  0.000000000E+00  0.00000E+00  9.000E+00
      21    -1     0     0   501   502  0.000000000E+00  0.000000000E+00 -2.450390766E+02  2.450390766E+02  0.000000000E+00  0.00000E+00  9.000E+00
      25     1     1     2     0     0  4.723184234E+01 -1.657187086E+02  1.070080504E+01  2.131502863E+02  1.250000000E+02  0.00000E+00  9.000E+00
      25     1     1     2     0     0 -1.335581193E+01  3.205807697E+01 -2.155948961E+01  1.315139141E+02  1.250000000E+02  0.00000E+00  9.000E+00
      21     1     1     2   512   502 -3.387603041E+01  1.336606317E+02  3.372702145E+00  1.379279704E+02  1.243153430E-06  0.00000E+00  9.000E+00
#rwgt            1           1   4.4890842906303373E-002           7      218756           0
</event>
<event>
      5   9999  3.79277E-02  1.30595E+01 -1.00000E+00  1.83246E-01
      21    -1     0     0   502   501  0.000000000E+00  0.000000000E+00  3.085722564E+02  3.085722564E+02  0.000000000E+00  0.00000E+00  9.000E+00
      21    -1     0     0   511   502  0.000000000E+00  0.000000000E+00 -2.754625126E+02  2.754625126E+02  0.000000000E+00  0.00000E+00  9.000E+00
      25     1     1     2     0     0  5.613569850E+01  6.878165182E+01 -4.321427410E+01  1.592940858E+02  1.250000000E+02  0.00000E+00  9.000E+00
      25     1     1     2     0     0 -5.574086362E+01 -8.183515753E+01  2.248417587E+02  2.756498745E+02  1.250000000E+02  0.00000E+00  9.000E+00
      21     1     1     2   511   501 -3.948348792E-01  1.305350570E+01 -1.485177408E+02  1.490908087E+02  1.907348633E-06  0.00000E+00  9.000E+00
#rwgt            1           1   3.7677442619680167E-002           7      218804           0
</event>
<event>
      5   9999  3.79277E-02  2.48587E+01 -1.00000E+00  1.58935E-01
      21    -1     0     0   502   501  0.000000000E+00  0.000000000E+00  1.509041671E+02  1.509041671E+02  0.000000000E+00  0.00000E+00  9.000E+00
       4    -1     0     0   501     0  0.000000000E+00  0.000000000E+00 -7.251097544E+02  7.251097544E+02  0.000000000E+00  0.00000E+00  9.000E+00
      25     1     1     2     0     0  3.053476858E+01 -1.805756927E+02 -5.996456300E+01  2.296969780E+02  1.250000000E+02  0.00000E+00  9.000E+00
      25     1     1     2     0     0 -5.409484290E+01  1.885052476E+02 -1.404142939E+02  2.716645990E+02  1.250000000E+02  0.00000E+00  9.000E+00
       4     1     1     2   502     0  2.356007433E+01 -7.929554861E+00 -3.738267303E+02  3.746523445E+02  0.000000000E+00  0.00000E+00  9.000E+00
#rwgt            1           1   5.7860500696680840E-002           7      219082           0
</event>
<event>
      5   9999  3.79277E-02  1.32001E+01 -1.00000E+00  1.82778E-01
      21    -1     0     0   502   501  0.000000000E+00  0.000000000E+00  9.896431187E+01  9.896431187E+01  0.000000000E+00  0.00000E+00  9.000E+00
      21    -1     0     0   511   502  0.000000000E+00  0.000000000E+00 -2.947324675E+02  2.947324675E+02  0.000000000E+00  0.00000E+00  9.000E+00
      25     1     1     2     0     0  5.025192649E+01 -2.317003593E+01 -1.843820209E+02  2.295295979E+02  1.250000000E+02  0.00000E+00  9.000E+00
      25     1     1     2     0     0 -3.747175332E+01  2.647318681E+01  1.566010115E+01  1.340716252E+02  1.250000000E+02  0.00000E+00  9.000E+00
      21     1     1     2   511   501 -1.278017318E+01 -3.303150887E+00 -2.704623581E+01  3.009555621E+01  4.768371582E-07  0.00000E+00  9.000E+00
#rwgt            1           1   3.8553852893452707E-002           7      219240           0
</event>
<event>
      5   9999  3.79277E-02  1.21192E+02 -1.00000E+00  1.20186E-01
      21    -1     0     0   502   501  0.000000000E+00  0.000000000E+00  1.090164695E+02  1.090164695E+02  0.000000000E+00  0.00000E+00  9.000E+00
      21    -1     0     0   501   512  0.000000000E+00  0.000000000E+00 -7.227267681E+02  7.227267681E+02  0.000000000E+00  0.00000E+00  9.000E+00
      25     1     1     2     0     0  3.645151658E+01  1.455726883E+02 -2.465691301E+02  3.145496090E+02  1.250000000E+02  0.00000E+00  9.000E+00
      25     1     1     2     0     0 -1.524815139E+02 -1.105803027E+02 -1.591283563E+02  2.764515314E+02  1.250000000E+02  0.00000E+00  9.000E+00
      21     1     1     2   502   512  1.160299973E+02 -3.499238560E+01 -2.080128122E+02  2.407420972E+02  3.814697266E-06  0.00000E+00  9.000E+00
#rwgt            1           1   2.7156277144382797E-002           7      219627           0
</event>
<event>
      5   9999  3.79277E-02  3.28206E+01 -1.00000E+00  1.50378E-01
      21    -1     0     0   502   501  0.000000000E+00  0.000000000E+00  9.174262424E+01  9.174262424E+01  0.000000000E+00  0.00000E+00  9.000E+00
      21    -1     0     0   511   502  0.000000000E+00  0.000000000E+00 -3.912485178E+02  3.912485178E+02  0.000000000E+00  0.00000E+00  9.000E+00
      25     1     1     2     0     0  3.538785364E+01  2.860380542E+01 -5.931667493E+00  1.331565340E+02  1.250000000E+02  0.00000E+00  9.000E+00
      25     1     1     2     0     0 -5.801255010E+01 -5.238017397E+01 -1.858536356E+02  2.372250249E+02  1.250000000E+02  0.00000E+00  9.000E+00
      21     1     1     2   511   501  2.262469646E+01  2.377636855E+01 -1.077205905E+02  1.126095831E+02  1.907348633E-06  0.00000E+00  9.000E+00
#rwgt            1           1   3.4070977121900263E-002           7      219725           0
</event>
<event>
      5   9999  3.79277E-02  3.15634E+02 -1.00000E+00  1.04880E-01
       2    -1     0     0   502     0  0.000000000E+00  0.000000000E+00  1.805305561E+03  1.805305561E+03  0.000000000E+00  0.00000E+00  9.000E+00
      21    -1     0     0   501   502  0.000000000E+00  0.000000000E+00 -4.236674124E+02  4.236674124E+02  0.000000000E+00  0.00000E+00  9.000E+00
      25     1     1     2     0     0  2.296604682E+02 -6.311664064E+01 -1.576101246E+02  3.117588689E+02  1.250000000E+02  0.00000E+00  9.000E+00
      25     1     1     2     0     0 -1.314585261E+02 -2.368522209E+02 -4.510367305E+01  3.017277911E+02  1.250000000E+02  0.00000E+00  9.000E+00
       2     1     1     2   501     0 -9.820194207E+01  2.999688615E+02  1.584351946E+03  1.615486313E+03  2.157918644E-05  0.00000E+00  9.000E+00
#rwgt            2          18   3.0223078607330960E-003           7      220015           0
</event>
<event>
      5   9999  3.79277E-02  1.90816E+02 -1.00000E+00  1.12396E-01
      21    -1     0     0   511   501  0.000000000E+00  0.000000000E+00  2.071726971E+02  2.071726971E+02  0.000000000E+00  0.00000E+00  9.000E+00
      21    -1     0     0   501   502  0.000000000E+00  0.000000000E+00 -1.062756459E+03  1.062756459E+03  0.000000000E+00  0.00000E+00  9.000E+00
      25     1     1     2     0     0 -3.429378393E+01  1.021858484E+02 -7.808798955E+02  7.981330857E+02  1.250000000E+02  0.00000E+00  9.000E+00
      25     1     1     2     0     0 -1.472584072E+02 -4.345383841E+01 -1.677564191E+02  2.595004638E+02  1.250000000E+02  0.00000E+00  9.000E+00
      21     1     1     2   511   502  1.815521911E+02 -5.873200996E+01  9.305255258E+01  2.122956067E+02  1.907348633E-06  0.00000E+00  9.000E+00
#rwgt            2          11   3.5270009004245749E-003           7      220139           0
</event>
<event>
      5   9999  3.79277E-02  8.00369E+01 -1.00000E+00  1.28340E-01
      21    -1     0     0   502   501  0.000000000E+00  0.000000000E+00  9.293249209E+02  9.293249209E+02  0.000000000E+00  0.00000E+00  9.000E+00
      21    -1     0     0   501   512  0.000000000E+00  0.000000000E+00 -1.225025407E+02  1.225025407E+02  0.000000000E+00  0.00000E+00  9.000E+00
      25     1     1     2     0     0 -8.759598115E+01 -1.406081966E+02  9.453332460E+01  2.280466407E+02  1.250000000E+02  0.00000E+00  9.000E+00
      25     1     1     2     0     0  6.430629760E+01  2.171817116E+02  6.954248691E+02  7.419864853E+02  1.250000000E+02  0.00000E+00  9.000E+00
      21     1     1     2   502   512  2.328968355E+01 -7.657351501E+01  1.686418641E+01  8.179433565E+01  1.800020799E-06  0.00000E+00  9.000E+00
#rwgt            1           1   2.9472912740044554E-002           7      220159           0
</event>
<event>
      5   9999  3.79277E-02  3.20707E+01 -1.00000E+00  1.51053E-01
      21    -1     0     0   502   511  0.000000000E+00  0.000000000E+00  2.177518741E+03  2.177518741E+03  0.000000000E+00  0.00000E+00  9.000E+00
      21    -1     0     0   501   502  0.000000000E+00  0.000000000E+00 -1.858248959E+02  1.858248959E+02  0.000000000E+00  0.00000E+00  9.000E+00
      25     1     1     2     0     0 -3.061393896E+02  9.290509398E+01  4.179682251E+01  3.460125094E+02  1.250000000E+02  0.00000E+00  9.000E+00
      25     1     1     2     0     0  2.759218325E+02 -1.036489627E+02  7.312876004E+02  7.982997681E+02  1.250000000E+02  0.00000E+00  9.000E+00
      21     1     1     2   501   511  3.021755702E+01  1.074386877E+01  1.218609422E+03  1.219031360E+03  0.000000000E+00  0.00000E+00  9.000E+00
#rwgt            1           1   3.7240641604443903E-002           7      220298           0
</event>
<event>
      5   9999  3.79277E-02  4.31289E+01 -1.00000E+00  1.42840E-01
      21    -1     0     0   512   501  0.000000000E+00  0.000000000E+00  1.363047812E+02  1.363047812E+02  0.000000000E+00  0.00000E+00  9.000E+00
      21    -1     0     0   501   502  0.000000000E+00  0.000000000E+00 -5.650714187E+02  5.650714187E+02  0.000000000E+00  0.00000E+00  9.000E+00
      25     1     1     2     0     0 -1.623609761E+02 -4.550981028E+01 -6.453000177E+01  2.195936031E+02  1.250000000E+02  0.00000E+00  9.000E+00
      25     1     1     2     0     0  1.350332128E+02  1.214376513E+01 -3.901016500E+02  4.314924529E+02  1.250000000E+02  0.00000E+00  9.000E+00
      21     1     1     2   512   502  2.732776333E+01  3.336604516E+01  2.586501425E+01  5.029014397E+01  8.920806376E-07  0.00000E+00  9.000E+00
#rwgt            1           1   3.6212676618998678E-002           7      220501           0
</event>
<event>
      5   9999  3.79277E-02  7.84466E+01 -1.00000E+00  1.28763E-01
       3    -1     0     0   502     0  0.000000000E+00  0.000000000E+00  7.325293023E+02  7.325293023E+02  0.000000000E+00  0.00000E+00  9.000E+00
      21    -1     0     0   501   502  0.000000000E+00  0.000000000E+00 -1.710685171E+02  1.710685171E+02  0.000000000E+00  0.00000E+00  9.000E+00
      25     1     1     2     0     0  1.361567500E+02 -5.636897886E+00 -1.724519824E+01  1.857224598E+02  1.250000000E+02  0.00000E+00  9.000E+00
      25     1     1     2     0     0 -2.077558227E+02 -2.641688787E+01  1.595627408E+02  2.914542882E+02  1.250000000E+02  0.00000E+00  9.000E+00
       3     1     1     2   501     0  7.159907267E+01  3.205378576E+01  4.191432426E+02  4.264210714E+02  5.394796609E-06  0.00000E+00  9.000E+00
#rwgt            1           1   3.2299371246658409E-002           7      220651           0
</event>
<event>
      5   9999  3.79277E-02  7.88260E+01 -1.00000E+00  1.28661E-01
      21    -1     0     0   502   501  0.000000000E+00  0.000000000E+00  1.354826372E+03  1.354826372E+03  0.000000000E+00  0.00000E+00  9.000E+00
      21    -1     0     0   501   511  0.000000000E+00  0.000000000E+00 -5.381696248E+01  5.381696248E+01  0.000000000E+00  0.00000E+00  9.000E+00
      25     1     1     2     0     0  3.549447589E+01  1.164208405E+02  2.120650373E+02  2.746092679E+02  1.250000000E+02  0.00000E+00  9.000E+00
      25     1     1     2     0     0 -1.112114347E+02 -1.383407014E+02  9.480394473E+02  9.725790079E+02  1.250000000E+02  0.00000E+00  9.000E+00
      21     1     1     2   502   511  7.571695877E+01  2.191986086E+01  1.409049248E+02  1.614550587E+02  2.697398305E-06  0.00000E+00  9.000E+00
#rwgt            1           1   4.1540199697269908E-002           7      220964           0
</event>
<event>
      5   9999  3.79277E-02  1.30788E+02 -1.00000E+00  1.18803E-01
       1    -1     0     0   502     0  0.000000000E+00  0.000000000E+00  2.713693595E+02  2.713693595E+02  0.000000000E+00  0.00000E+00  9.000E+00
      21    -1     0     0   501   502  0.000000000E+00  0.000000000E+00 -7.438075823E+02  7.438075823E+02  0.000000000E+00  0.00000E+00  9.000E+00
      25     1     1     2     0     0 -4.684728999E+01  7.857621956E+01 -3.926053355E+02  4.220578637E+02  1.250000000E+02  0.00000E+00  9.000E+00
      25     1     1     2     0     0 -1.912012409E+01 -1.915085809E+02 -2.750025683E+02  3.581794638E+02  1.250000000E+02  0.00000E+00  9.000E+00
       1     1     1     2   501     0  6.596741408E+01  1.129323614E+02  1.951696810E+02  2.349396143E+02  3.814697266E-06  0.00000E+00  9.000E+00
#rwgt            1           1   1.4350080798965402E-002           7      221147           0
</event>
<event>
      5   9999  3.79277E-02  7.72378E+01 -1.00000E+00  1.29092E-01
      21    -1     0     0   502   501  0.000000000E+00  0.000000000E+00  2.948567738E+02  2.948567738E+02  0.000000000E+00  0.00000E+00  9.000E+00
      21    -1     0     0   501   511  0.000000000E+00  0.000000000E+00 -2.782801714E+02  2.782801714E+02  0.000000000E+00  0.00000E+00  9.000E+00
      25     1     1     2     0     0  8.324227236E+01 -1.525007755E+02  1.219832891E+02  2.463547955E+02  1.250000000E+02  0.00000E+00  9.000E+00
      25     1     1     2     0     0 -9.272103675E+01  7.584684991E+01  2.528874722E+01  1.749698718E+02  1.250000000E+02  0.00000E+00  9.000E+00
      21     1     1     2   502   511  9.478764381E+00  7.665392559E+01 -1.306954339E+02  1.518122779E+02  2.697398305E-06  0.00000E+00  9.000E+00
#rwgt            1           1   2.6186134369575828E-002           7      221370           0
</event>
<event>
      5   9999  3.79277E-02  1.54479E+01 -1.00000E+00  1.76188E-01
      21    -1     0     0   512   501  0.000000000E+00  0.000000000E+00  1.281635241E+02  1.281635241E+02  0.000000000E+00  0.00000E+00  9.000E+00
      21    -1     0     0   501   502  0.000000000E+00  0.000000000E+00 -6.959211713E+02  6.959211713E+02  0.000000000E+00  0.00000E+00  9.000E+00
      25     1     1     2     0     0  3.817437056E+01 -1.235886455E+02 -2.154494097E+02  2.806686374E+02  1.250000000E+02  0.00000E+00  9.000E+00
      25     1     1     2     0     0 -3.211404616E+01  1.377981991E+02 -4.271409995E+02  4.670054487E+02  1.250000000E+02  0.00000E+00  9.000E+00
      21     1     1     2   512   502 -6.060324403E+00 -1.420955357E+01  7.483276200E+01  7.641060929E+01  2.132480600E-06  0.00000E+00  9.000E+00
#rwgt            1           1   3.3031655363083549E-002           7      221451           0
</event>
<event>
      5   9999  3.79277E-02  9.78661E+01 -1.00000E+00  1.24251E-01
      21    -1     0     0   502   511  0.000000000E+00  0.000000000E+00  1.664918488E+02  1.664918488E+02  0.000000000E+00  0.00000E+00  9.000E+00
      21    -1     0     0   501   502  0.000000000E+00  0.000000000E+00 -5.128261876E+02  5.128261876E+02  0.000000000E+00  0.00000E+00  9.000E+00
      25     1     1     2     0     0 -3.566063355E+01 -1.739608697E+02 -2.092572045E+02  3.015752686E+02  1.250000000E+02  0.00000E+00  9.000E+00
      25     1     1     2     0     0 -5.343894531E+01  2.144459193E+02 -9.288529890E+01  2.703617057E+02  1.250000000E+02  0.00000E+00  9.000E+00
      21     1     1     2   501   511  8.909957886E+01 -4.048504956E+01 -4.419183534E+01  1.073810621E+02  1.651812370E-06  0.00000E+00  9.000E+00
#rwgt            1           1   2.5786810839947452E-002           7      221725           0
</event>
<event>
      5   9999  3.79277E-02  1.41195E+01 -1.00000E+00  1.79895E-01
      21    -1     0     0   502   512  0.000000000E+00  0.000000000E+00  1.284902552E+02  1.284902552E+02  0.000000000E+00  0.00000E+00  9.000E+00
      21    -1     0     0   501   502  0.000000000E+00  0.000000000E+00 -2.946134931E+02  2.946134931E+02  0.000000000E+00  0.00000E+00  9.000E+00
      25     1     1     2     0     0 -1.225338608E+02  2.220057182E+01 -3.652669930E+01  1.801849389E+02  1.250000000E+02  0.00000E+00  9.000E+00
      25     1     1     2     0     0  1.321793724E+02 -1.188917395E+01 -1.359649257E+02  2.274295495E+02  1.250000000E+02  0.00000E+00  9.000E+00
      21     1     1     2   501   512 -9.645511569E+00 -1.031139786E+01  6.368387202E+00  1.548925999E+01  2.384185791E-07  0.00000E+00  9.000E+00
#rwgt            1           1   4.2498273357082873E-002           7      221765           0
</event>
<event>
      5   9999  3.79277E-02  1.47035E+01 -1.00000E+00  1.78204E-01
      21    -1     0     0   502   501  0.000000000E+00  0.000000000E+00  8.445157022E+02  8.445157022E+02  0.000000000E+00  0.00000E+00  9.000E+00
      21    -1     0     0   501   511  0.000000000E+00  0.000000000E+00 -5.155333366E+01  5.155333366E+01  0.000000000E+00  0.00000E+00  9.000E+00
      25     1     1     2     0     0  8.872571979E+01  1.123243462E+02  4.671841986E+02  5.043561118E+02  1.250000000E+02  0.00000E+00  9.000E+00
      25     1     1     2     0     0 -7.405979494E+01 -1.133754501E+02  3.285900067E+02  3.767429342E+02  1.250000000E+02  0.00000E+00  9.000E+00
      21     1     1     2   502   511 -1.466592485E+01  1.051103916E+00 -2.811836777E+00  1.496998989E+01  5.136039239E-07  0.00000E+00  9.000E+00
#rwgt            1           1   6.1759411081705753E-002           7      221910           0
</event>
<event>
      5   9999  3.79277E-02  9.96224E+00 -1.00000E+00  1.95947E-01
      21    -1     0     0   502   512  0.000000000E+00  0.000000000E+00  6.224603681E+02  6.224603681E+02  0.000000000E+00  0.00000E+00  9.000E+00
      21    -1     0     0   501   502  0.000000000E+00  0.000000000E+00 -1.415572568E+02  1.415572568E+02  0.000000000E+00  0.00000E+00  9.000E+00
      25     1     1     2     0     0  9.816686023E+01 -6.051387710E+01  1.563072147E+02  2.309883269E+02  1.250000000E+02  0.00000E+00  9.000E+00
      25     1     1     2     0     0 -1.080315685E+02  5.912329070E+01 -3.023336482E+01  1.780602136E+02  1.250000000E+02  0.00000E+00  9.000E+00
      21     1     1     2   501   512  9.864708309E+00  1.390586401E+00  3.548292614E+02  3.549690845E+02  5.394796609E-06  0.00000E+00  9.000E+00
#rwgt            1           1   3.6502520266544866E-002           7      222124           0
</event>
<event>
      5   9999  3.79277E-02  2.50587E+01 -1.00000E+00  1.58675E-01
      21    -1     0     0   502   501  0.000000000E+00  0.000000000E+00  4.654604326E+01  4.654604326E+01  0.000000000E+00  0.00000E+00  9.000E+00
       2    -1     0     0   501     0  0.000000000E+00  0.000000000E+00 -1.033265479E+03  1.033265479E+03  0.000000000E+00  0.00000E+00  9.000E+00
      25     1     1     2     0     0  7.387745398E+01  1.102886708E+02 -2.671939372E+02  3.234796272E+02  1.250000000E+02  0.00000E+00  9.000E+00
      25     1     1     2     0     0 -9.345903092E+01 -1.259251197E+02 -6.844547698E+02  7.132286156E+02  1.250000000E+02  0.00000E+00  9.000E+00
       2     1     1     2   502     0  1.958157694E+01  1.563644887E+01 -3.507072884E+01  4.310327957E+01  4.768371582E-07  0.00000E+00  9.000E+00
#rwgt            1           1   2.7375605484811574E-002           7      222407           0
</event>
<event>
      5   9999  3.79277E-02  1.07001E+02 -1.00000E+00  1.22520E-01
      21    -1     0     0   502   501  0.000000000E+00  0.000000000E+00  2.370970853E+02  2.370970853E+02  0.000000000E+00  0.00000E+00  9.000E+00
       1    -1     0     0   501     0  0.000000000E+00  0.000000000E+00 -1.090461452E+03  1.090461452E+03  0.000000000E+00  0.00000E+00  9.000E+00
      25     1     1     2     0     0 -7.806974965E+01  2.043294380E+02 -9.227952380E+00  2.521022811E+02  1.250000000E+02  0.00000E+00  9.000E+00
      25     1     1     2     0     0 -2.101907163E+01 -1.639487386E+02  1.678327918E+01  2.079126468E+02  1.250000000E+02  0.00000E+00  9.000E+00
       1     1     1     2   502     0  9.908882128E+01 -4.038069940E+01 -8.609196938E+02  8.675436096E+02  0.000000000E+00  0.00000E+00  9.000E+00
#rwgt            1           1   3.8965251662246916E-002           7      222636           0
</event>
<event>
      5   9999 -3.79277E-02  3.46522E+01 -1.00000E+00  1.48815E-01
      21    -1     0     0   511   501  0.000000000E+00  0.000000000E+00  3.235432872E+02  3.235432872E+02  0.000000000E+00  0.00000E+00  9.000E+00
      21    -1     0     0   501   502  0.000000000E+00  0.000000000E+00 -1.849616225E+02  1.849616225E+02  0.000000000E+00  0.00000E+00  9.000E+00
      25     1     1     2     0     0  3.004232894E+01 -1.927687671E+02  7.084933737E+01  2.422952077E+02  1.250000000E+02  0.00000E+00  9.000E+00
      25     1     1     2     0     0 -2.436529213E+01  1.585847915E+02  1.609979420E+01  2.040269760E+02  1.250000000E+02  0.00000E+00  9.000E+00
      21     1     1     2   511   502 -5.677036805E+00  3.418397555E+01  5.163253311E+01  6.218272595E+01  6.743495762E-07  0.00000E+00  9.000E+00
#rwgt            1           1 -0.33241269575593896                7      222705           0
</event>
<event>
      5   9999  3.79277E-02  1.44709E+02 -1.00000E+00  1.17015E-01
       2    -1     0     0   502     0  0.000000000E+00  0.000000000E+00  2.478734421E+03  2.478734421E+03  0.000000000E+00  0.00000E+00  9.000E+00
      21    -1     0     0   501   502  0.000000000E+00  0.000000000E+00 -2.159914750E+02  2.159914750E+02  0.000000000E+00  0.00000E+00  9.000E+00
      25     1     1     2     0     0  1.687853573E+02 -4.832727903E+01 -1.686315813E+01  2.161790666E+02  1.250000000E+02  0.00000E+00  9.000E+00
      25     1     1     2     0     0 -1.280513400E+02  1.871852025E+02  7.556474234E+01  2.697600341E+02  1.250000000E+02  0.00000E+00  9.000E+00
       2     1     1     2   501     0 -4.073401723E+01 -1.388579234E+02  2.204041361E+03  2.208786795E+03  0.000000000E+00  0.00000E+00  9.000E+00
#rwgt            1           1   4.0114388147227030E-002           7      222953           0
</event>
<event>
      5   9999  3.79277E-02  1.56062E+02 -1.00000E+00  1.15716E-01
       2    -1     0     0   502     0  0.000000000E+00  0.000000000E+00  2.654359916E+03  2.654359916E+03  0.000000000E+00  0.00000E+00  9.000E+00
      21    -1     0     0   501   502  0.000000000E+00  0.000000000E+00 -9.486174407E+01  9.486174407E+01  0.000000000E+00  0.00000E+00  9.000E+00
      25     1     1     2     0     0 -2.795099794E+02 -1.457486789E+02  5.593636587E+02  6.541262942E+02  1.250000000E+02  0.00000E+00  9.000E+00
      25     1     1     2     0     0  1.484179784E+02  6.107138201E+01  1.903547512E+02  2.785992486E+02  1.250000000E+02  0.00000E+00  9.000E+00
       2     1     1     2   501     0  1.310920011E+02  8.467729689E+01  1.809779762E+03  1.816496118E+03  3.051757812E-05  0.00000E+00  9.000E+00
#rwgt            2          18   5.1373076507853742E-004           7      223045           0
</event>
<event>
      5   9999  3.79277E-02  7.68351E+01 -1.00000E+00  1.29204E-01
      21    -1     0     0   502   501  0.000000000E+00  0.000000000E+00  9.475792866E+02  9.475792866E+02  0.000000000E+00  0.00000E+00  9.000E+00
      21    -1     0     0   511   502  0.000000000E+00  0.000000000E+00 -7.053718526E+01  7.053718526E+01  0.000000000E+00  0.00000E+00  9.000E+00
      25     1     1     2     0     0  3.862561367E-01  1.521860042E+01  4.020589941E+01  1.321864945E+02  1.250000000E+02  0.00000E+00  9.000E+00
      25     1     1     2     0     0 -3.521662827E+01 -8.370560844E+01  7.659924377E+02  7.814193845E+02  1.250000000E+02  0.00000E+00  9.000E+00
      21     1     1     2   511   501  3.483037213E+01  6.848700802E+01  7.084376423E+01  1.045105929E+02  9.536743164E-07  0.00000E+00  9.000E+00
#rwgt            1           1   3.9029595041850496E-002           7      223109           0
</event>
<event>
      5   9999  3.79277E-02  2.99159E+01 -1.00000E+00  1.53125E-01
      21    -1     0     0   502   501  0.000000000E+00  0.000000000E+00  1.030601235E+02  1.030601235E+02  0.000000000E+00  0.00000E+00  9.000E+00
       3    -1     0     0   501     0  0.000000000E+00  0.000000000E+00 -1.068014437E+03  1.068014437E+03  0.000000000E+00  0.00000E+00  9.000E+00
      25     1     1     2     0     0  1.937584578E+02 -8.264211860E+00 -1.964605209E+02  3.030385676E+02  1.250000000E+02  0.00000E+00  9.000E+00
      25     1     1     2     0     0 -1.656430239E+02 -1.957572581E+00 -1.685562916E+02  2.673530754E+02  1.250000000E+02  0.00000E+00  9.000E+00
       3     1     1     2   502     0 -2.811543386E+01  1.022178444E+01 -5.999375008E+02  6.006829175E+02  1.078959322E-05  0.00000E+00  9.000E+00
#rwgt            1           1   4.1053346730046500E-002           7      223278           0
</event>
<event>
      5   9999  3.79277E-02  8.65202E+00 -1.00000E+00  2.03319E-01
      21    -1     0     0   502   511  0.000000000E+00  0.000000000E+00  1.325857101E+02  1.325857101E+02  0.000000000E+00  0.00000E+00  9.000E+00
      21    -1     0     0   501   502  0.000000000E+00  0.000000000E+00 -1.099626715E+03  1.099626715E+03  0.000000000E+00  0.00000E+00  9.000E+00
      25     1     1     2     0     0 -5.834873030E+01  1.610702918E+02 -9.821570367E+02  1.004791350E+03  1.250000000E+02  0.00000E+00  9.000E+00
      25     1     1     2     0     0  6.382137267E+01 -1.543689697E+02 -1.554215185E+00  2.086393108E+02  1.250000000E+02  0.00000E+00  9.000E+00
      21     1     1     2   501   511 -5.472642373E+00 -6.701322045E+00  1.667024677E+01  1.878176400E+01  6.743495762E-07  0.00000E+00  9.000E+00
#rwgt            1           1   2.5010682702802132E-002           7      223426           0
</event>
<event>
      5   9999  3.79277E-02  1.60143E+02 -1.00000E+00  1.15278E-01
      21    -1     0     0   512   501  0.000000000E+00  0.000000000E+00  2.106520070E+03  2.106520070E+03  0.000000000E+00  0.00000E+00  9.000E+00
      21    -1     0     0   501   502  0.000000000E+00  0.000000000E+00 -5.981174622E+01  5.981174622E+01  0.000000000E+00  0.00000E+00  9.000E+00
      25     1     1     2     0     0  1.818203646E+02  3.902611291E+01  8.986697515E+02  9.261824900E+02  1.250000000E+02  0.00000E+00  9.000E+00
      25     1     1     2     0     0 -2.187467809E+02  1.168013504E+02  4.931367392E+02  5.659519000E+02  1.250000000E+02  0.00000E+00  9.000E+00
      21     1     1     2   512   502  3.692641624E+01 -1.558274633E+02  6.549018335E+02  6.741974266E+02  7.629394531E-06  0.00000E+00  9.000E+00
#rwgt            2          11   1.1975197224353923E-003           7      223775           0
</event>
<event>
      5   9999  3.79277E-02  6.44287E+01 -1.00000E+00  1.33071E-01
      21    -1     0     0   502   501  0.000000000E+00  0.000000000E+00  9.268408316E+01  9.268408316E+01  0.000000000E+00  0.00000E+00  9.000E+00
       2    -1     0     0   501     0  0.000000000E+00  0.000000000E+00 -1.507369237E+03  1.507369237E+03  0.000000000E+00  0.00000E+00  9.000E+00
      25     1     1     2     0     0 -1.330627337E+02 -1.416314160E+01 -9.713578881E+01  2.072839770E+02  1.250000000E+02  0.00000E+00  9.000E+00
      25     1     1     2     0     0  1.949542904E+02 -3.739232983E+00 -3.302768282E+02  4.033967531E+02  1.250000000E+02  0.00000E+00  9.000E+00
       2     1     1     2   502     0 -6.189155669E+01  1.790237459E+01 -9.872725364E+02  9.893725895E+02  0.000000000E+00  0.00000E+00  9.000E+00
#rwgt            1           1   4.5568501283218009E-002           7      223825           0
</event>
<event>
      5   9999  3.79277E-02  7.28969E+01 -1.00000E+00  1.30335E-01
      21    -1     0     0   502   501  0.000000000E+00  0.000000000E+00  4.164193607E+02  4.164193607E+02  0.000000000E+00  0.00000E+00  9.000E+00
       2    -1     0     0   501     0  0.000000000E+00  0.000000000E+00 -1.532305224E+03  1.532305224E+03  0.000000000E+00  0.00000E+00  9.000E+00
      25     1     1     2     0     0  4.832226824E+01 -2.145598615E+02  1.465627920E+02  2.923638619E+02  1.250000000E+02  0.00000E+00  9.000E+00
      25     1     1     2     0     0 -1.187156392E+02  2.335000639E+02  8.850893364E+01  3.034378259E+02  1.250000000E+02  0.00000E+00  9.000E+00
       2     1     1     2   502     0  7.039337096E+01 -1.894020248E+01 -1.350957589E+03  1.352922897E+03  0.000000000E+00  0.00000E+00  9.000E+00
#rwgt            1           1  0.15712667820731913                7      223962           0
</event>
<event>
      5   9999  3.79277E-02  5.04480E+01 -1.00000E+00  1.38855E-01
      21    -1     0     0   511   501  0.000000000E+00  0.000000000E+00  1.493880328E+03  1.493880328E+03  0.000000000E+00  0.00000E+00  9.000E+00
      21    -1     0     0   501   502  0.000000000E+00  0.000000000E+00 -2.997449006E+01  2.997449006E+01  0.000000000E+00  0.00000E+00  9.000E+00
      25     1     1     2     0     0 -2.964211924E+01  7.064535960E+01  2.684939009E+02  3.059140351E+02  1.250000000E+02  0.00000E+00  9.000E+00
      25     1     1     2     0     0  4.545737058E+01 -1.185502428E+02  1.018907095E+03  1.034368020E+03  1.250000000E+02  0.00000E+00  9.000E+00
      21     1     1     2   511   502 -1.581525134E+01  4.790488324E+01  1.765048415E+02  1.835727624E+02  1.907348633E-06  0.00000E+00  9.000E+00
#rwgt            1           1   9.8420208006131493E-002           7      224022           0
</event>
<event>
      5   9999  3.79277E-02  1.75321E+01 -1.00000E+00  1.71231E-01
      21    -1     0     0   512   501  0.000000000E+00  0.000000000E+00  1.861462379E+02  1.861462379E+02  0.000000000E+00  0.00000E+00  9.000E+00
      21    -1     0     0   501   502  0.000000000E+00  0.000000000E+00 -2.906162740E+02  2.906162740E+02  0.000000000E+00  0.00000E+00  9.000E+00
      25     1     1     2     0     0 -1.326727512E+02  3.164279721E+01 -2.940722533E+01  1.873315522E+02  1.250000000E+02  0.00000E+00  9.000E+00
      25     1     1     2     0     0  1.477494063E+02 -2.269461389E+01 -1.283513870E+02  2.333324047E+02  1.250000000E+02  0.00000E+00  9.000E+00
      21     1     1     2   512   502 -1.507665509E+01 -8.948183314E+00  5.328857621E+01  5.609855495E+01  0.000000000E+00  0.00000E+00  9.000E+00
#rwgt            1           1   3.8810946228117815E-002           7      224139           0
</event>
<event>
      5   9999  3.79277E-02  8.80704E+01 -1.00000E+00  1.26361E-01
      21    -1     0     0   511   501  0.000000000E+00  0.000000000E+00  4.896154727E+01  4.896154727E+01  0.000000000E+00  0.00000E+00  9.000E+00
      21    -1     0     0   501   502  0.000000000E+00  0.000000000E+00 -9.792358081E+02  9.792358081E+02  0.000000000E+00  0.00000E+00  9.000E+00
      25     1     1     2     0     0  1.334853839E+02  2.789865308E+01 -4.789999763E+02  5.134809246E+02  1.250000000E+02  0.00000E+00  9.000E+00
      25     1     1     2     0     0 -8.002355428E+01  4.208866605E+01 -3.353327633E+02  3.691182563E+02  1.250000000E+02  0.00000E+00  9.000E+00
      21     1     1     2   511   502 -5.346182958E+01 -6.998731913E+01 -1.159415212E+02  1.455981744E+02  0.000000000E+00  0.00000E+00  9.000E+00
#rwgt            1           1   4.1080144518394458E-002           7      224349           0
</event>
<event>
      5   9999  3.79277E-02  1.61833E+02 -1.00000E+00  1.15102E-01
      21    -1     0     0   512   501  0.000000000E+00  0.000000000E+00  1.128558239E+02  1.128558239E+02  0.000000000E+00  0.00000E+00  9.000E+00
      21    -1     0     0   501   502  0.000000000E+00  0.000000000E+00 -1.159096289E+03  1.159096289E+03  0.000000000E+00  0.00000E+00  9.000E+00
      25     1     1     2     0     0  2.804807822E+01  2.554263428E+02 -6.303472506E+02  6.920924560E+02  1.250000000E+02  0.00000E+00  9.000E+00
      25     1     1     2     0     0 -1.005265808E+02 -1.107309375E+02 -3.586642355E+02  4.082057910E+02  1.250000000E+02  0.00000E+00  9.000E+00
      21     1     1     2   512   502  7.247850258E+01 -1.446954053E+02 -5.722897900E+01  1.716538660E+02  3.568322551E-06  0.00000E+00  9.000E+00
#rwgt            1           1   3.6014967923034290E-002           7      224457           0
</event>
<event>
      5   9999  3.79277E-02  3.71245E+01 -1.00000E+00  1.46879E-01
      21    -1     0     0   502   511  0.000000000E+00  0.000000000E+00  6.288463163E+02  6.288463163E+02  0.000000000E+00  0.00000E+00  9.000E+00
      21    -1     0     0   501   502  0.000000000E+00  0.000000000E+00 -1.177358558E+02  1.177358558E+02  0.000000000E+00  0.00000E+00  9.000E+00
      25     1     1     2     0     0 -3.063712826E+01 -1.627347692E+02  3.462029305E+01  2.103444875E+02  1.250000000E+02  0.00000E+00  9.000E+00
      25     1     1     2     0     0 -6.470416475E+00  1.638570242E+02  4.288117213E+02  4.758103435E+02  1.250000000E+02  0.00000E+00  9.000E+00
      21     1     1     2   501   511  3.710754474E+01 -1.122255042E+00  4.767844618E+01  6.042734118E+01  9.536743164E-07  0.00000E+00  9.000E+00
#rwgt            1           1   3.7568563714779075E-002           7      224700           0
</event>
<event>
      5   9999  3.79277E-02  6.59162E+01 -1.00000E+00  1.32557E-01
      21    -1     0     0   512   501  0.000000000E+00  0.000000000E+00  9.559865816E+01  9.559865816E+01  0.000000000E+00  0.00000E+00  9.000E+00
      21    -1     0     0   501   502  0.000000000E+00  0.000000000E+00 -4.228744461E+02  4.228744461E+02  0.000000000E+00  0.00000E+00  9.000E+00
      25     1     1     2     0     0 -1.542542840E+01  5.278374582E+01 -2.932227837E+02  3.234635506E+02  1.250000000E+02  0.00000E+00  9.000E+00
      25     1     1     2     0     0  3.290266334E+00  1.200577463E+01 -1.576683942E+01  1.266039403E+02  1.250000000E+02  0.00000E+00  9.000E+00
      21     1     1     2   512   502  1.213516207E+01 -6.478952045E+01 -1.828616482E+01  6.840561338E+01  9.233911863E-07  0.00000E+00  9.000E+00
#rwgt            1           1   5.6034922070836109E-002           7      224816           0
</event>
<event>
      5   9999  3.79277E-02  7.44923E+01 -1.00000E+00  1.29867E-01
      21    -1     0     0   502   501  0.000000000E+00  0.000000000E+00  6.909738054E+01  6.909738054E+01  0.000000000E+00  0.00000E+00  9.000E+00
       1    -1     0     0   501     0  0.000000000E+00  0.000000000E+00 -3.475780913E+03  3.475780913E+03  0.000000000E+00  0.00000E+00  9.000E+00
      25     1     1     2     0     0 -2.073142200E+02  5.471649139E+01 -3.870819338E+02  4.598157280E+02  1.250000000E+02  0.00000E+00  9.000E+00
      25     1     1     2     0     0  1.334063917E+02 -6.402934727E+01 -2.588381643E+02  3.232943209E+02  1.250000000E+02  0.00000E+00  9.000E+00
       1     1     1     2   502     0  7.390782834E+01  9.312855872E+00 -2.760763434E+03  2.761768245E+03  6.103515625E-05  0.00000E+00  9.000E+00
#rwgt            1           1   3.3444405465792729E-003           7      224871           0
</event>
<event>
      5   9999  3.79277E-02  6.66118E+01 -1.00000E+00  1.32321E-01
      21    -1     0     0   511   501  0.000000000E+00  0.000000000E+00  7.540714038E+01  7.540714038E+01  0.000000000E+00  0.00000E+00  9.000E+00
      21    -1     0     0   501   502  0.000000000E+00  0.000000000E+00 -6.373329829E+02  6.373329829E+02  0.000000000E+00  0.00000E+00  9.000E+00
      25     1     1     2     0     0 -1.056606124E+02 -4.261562142E+01 -4.343802254E+02  4.661452954E+02  1.250000000E+02  0.00000E+00  9.000E+00
      25     1     1     2     0     0  6.082894704E+01 -6.651569250E+00 -1.108449472E+02  1.779213492E+02  1.250000000E+02  0.00000E+00  9.000E+00
      21     1     1     2   511   502  4.483166541E+01  4.926719067E+01 -1.670066991E+01  6.867347869E+01  1.168007728E-06  0.00000E+00  9.000E+00
#rwgt            1           1   4.6777404419958188E-002           7      224947           0
</event>
<event>
      5   9999  3.79277E-02  1.60715E+02 -1.00000E+00  1.15218E-01
      21    -1     0     0   512   501  0.000000000E+00  0.000000000E+00  5.200414149E+01  5.200414149E+01  0.000000000E+00  0.00000E+00  9.000E+00
      21    -1     0     0   501   502  0.000000000E+00  0.000000000E+00 -1.519308619E+03  1.519308619E+03  0.000000000E+00  0.00000E+00  9.000E+00
      25     1     1     2     0     0  1.278922681E+02  9.791462670E+01 -4.761843395E+02  5.179963625E+02  1.250000000E+02  0.00000E+00  9.000E+00
      25     1     1     2     0     0  2.741906032E+01 -1.392387725E+02 -6.360209028E+02  6.635411286E+02  1.250000000E+02  0.00000E+00  9.000E+00
      21     1     1     2   512   502 -1.553113284E+02  4.132414584E+01 -3.550992355E+02  3.897752696E+02  3.814697266E-06  0.00000E+00  9.000E+00
#rwgt            1           1   4.5524366344323240E-002           7      225039           0
</event>
<event>
      5   9999  3.79277E-02  1.22112E+02 -1.00000E+00  1.20048E-01
      21    -1     0     0   502   511  0.000000000E+00  0.000000000E+00  8.328565398E+02  8.328565398E+02  0.000000000E+00  0.00000E+00  9.000E+00
      21    -1     0     0   501   502  0.000000000E+00  0.000000000E+00 -3.175627053E+02  3.175627053E+02  0.000000000E+00  0.00000E+00  9.000E+00
      25     1     1     2     0     0  5.619738622E+01 -1.463808316E+02 -8.647775646E+01  2.183778754E+02  1.250000000E+02  0.00000E+00  9.000E+00
      25     1     1     2     0     0  2.217468369E+01  2.400240348E+02 -4.378508679E+01  2.750370661E+02  1.250000000E+02  0.00000E+00  9.000E+00
      21     1     1     2   501   511 -7.837206990E+01 -9.364320321E+01  6.455566777E+02  6.570043036E+02  1.078959322E-05  0.00000E+00  9.000E+00
#rwgt            1           1   3.9241834843932934E-002           7      225202           0
</event>
<event>
      5   9999  3.79277E-02  1.34374E+01 -1.00000E+00  1.82006E-01
      21    -1     0     0   502   501  0.000000000E+00  0.000000000E+00  5.293995751E+01  5.293995751E+01  0.000000000E+00  0.00000E+00  9.000E+00
      21    -1     0     0   501   512  0.000000000E+00  0.000000000E+00 -9.930510928E+02  9.930510928E+02  0.000000000E+00  0.00000E+00  9.000E+00
      25     1     1     2     0     0  7.115063315E+01  4.923738351E+01 -6.212229719E+02  6.395543083E+02  1.250000000E+02  0.00000E+00  9.000E+00
      25     1     1     2     0     0 -7.209121666E+01 -6.264186958E+01 -9.842191548E+01  1.855613666E+02  1.250000000E+02  0.00000E+00  9.000E+00
      21     1     1     2   502   512  9.405835146E-01  1.340448607E+01 -2.204662479E+02  2.208753753E+02  2.697398305E-06  0.00000E+00  9.000E+00
#rwgt            1           1   3.7239969030682975E-002           7      225432           0
</event>
<event>
      5   9999  3.79277E-02  1.25440E+01 -1.00000E+00  1.85026E-01
      21    -1     0     0   502   501  0.000000000E+00  0.000000000E+00  1.459497522E+02  1.459497522E+02  0.000000000E+00  0.00000E+00  9.000E+00
      21    -1     0     0   501   511  0.000000000E+00  0.000000000E+00 -2.576453118E+02  2.576453118E+02  0.000000000E+00  0.00000E+00  9.000E+00
      25     1     1     2     0     0  1.088299802E+02 -5.941139786E+01 -6.227390023E+01  1.867530922E+02  1.250000000E+02  0.00000E+00  9.000E+00
      25     1     1     2     0     0 -1.125322749E+02  4.742615180E+01 -9.514070114E+00  1.750093435E+02  1.250000000E+02  0.00000E+00  9.000E+00
      21     1     1     2   502   511  3.702294732E+00  1.198524606E+01 -3.990758932E+01  4.183262835E+01  0.000000000E+00  0.00000E+00  9.000E+00
#rwgt            1           1   4.0035005478417485E-002           7      225692           0
</event>
<event>
      5   9999  3.79277E-02  1.67379E+02 -1.00000E+00  1.14538E-01
      21    -1     0     0   502   501  0.000000000E+00  0.000000000E+00  9.643427274E+02  9.643427274E+02  0.000000000E+00  0.00000E+00  9.000E+00
      21    -1     0     0   501   512  0.000000000E+00  0.000000000E+00 -1.666793425E+03  1.666793425E+03  0.000000000E+00  0.00000E+00  9.000E+00
      25     1     1     2     0     0 -6.277537621E+01 -1.128730892E+02  3.033159708E+02  3.525714967E+02  1.250000000E+02  0.00000E+00  9.000E+00
      25     1     1     2     0     0 -9.698131948E+01  1.628068770E+02  6.116966869E+02  6.524640161E+02  1.250000000E+02  0.00000E+00  9.000E+00
      21     1     1     2   502   512  1.597566957E+02 -4.993378788E+01 -1.617463355E+03  1.626100640E+03  0.000000000E+00  0.00000E+00  9.000E+00
#rwgt            1           1   3.0980860303014505E-002           7      225836           0
</event>
<event>
      5   9999  3.79277E-02  1.44424E+01 -1.00000E+00  1.78948E-01
      21    -1     0     0   502   501  0.000000000E+00  0.000000000E+00  3.572488855E+02  3.572488855E+02  0.000000000E+00  0.00000E+00  9.000E+00
      21    -1     0     0   501   511  0.000000000E+00  0.000000000E+00 -4.038016190E+02  4.038016190E+02  0.000000000E+00  0.00000E+00  9.000E+00
      25     1     1     2     0     0  2.849129667E+02  1.455773715E+02 -1.799564699E+02  3.877853797E+02  1.250000000E+02  0.00000E+00  9.000E+00
      25     1     1     2     0     0 -2.705216439E+02 -1.443632957E+02  1.370461754E+02  3.583704440E+02  1.250000000E+02  0.00000E+00  9.000E+00
      21     1     1     2   502   511 -1.439132279E+01 -1.214075815E+00 -3.642438933E+00  1.489468070E+01  3.674277069E-07  0.00000E+00  9.000E+00
#rwgt            1           1   4.6408636994661238E-002           7      225953           0
</event>
<event>
      5   9999  3.79277E-02  1.43371E+01 -1.00000E+00  1.79253E-01
      21    -1     0     0   502   512  0.000000000E+00  0.000000000E+00  1.035581714E+02  1.035581714E+02  0.000000000E+00  0.00000E+00  9.000E+00
      21    -1     0     0   501   502  0.000000000E+00  0.000000000E+00 -3.837535818E+02  3.837535818E+02  0.000000000E+00  0.00000E+00  9.000E+00
      25     1     1     2     0     0 -8.960731744E+01 -7.610458993E+01 -1.871887765E+02  2.539409734E+02  1.250000000E+02  0.00000E+00  9.000E+00
      25     1     1     2     0     0  7.622384403E+01  8.124619166E+01 -1.178029286E+02  2.047279855E+02  1.250000000E+02  0.00000E+00  9.000E+00
      21     1     1     2   501   512  1.338347341E+01 -5.141601722E+00  2.479629472E+01  2.864279422E+01  0.000000000E+00  0.00000E+00  9.000E+00
#rwgt            1           1  0.14338879997692386                7      226346           0
</event>
<event>
      5   9999  3.79277E-02  6.03693E+01 -1.00000E+00  1.34561E-01
      21    -1     0     0   502   501  0.000000000E+00  0.000000000E+00  1.068221774E+03  1.068221774E+03  0.000000000E+00  0.00000E+00  9.000E+00
      21    -1     0     0   511   502  0.000000000E+00  0.000000000E+00 -2.456205457E+02  2.456205457E+02  0.000000000E+00  0.00000E+00  9.000E+00
      25     1     1     2     0     0  1.398852546E+02  5.569752605E+01  8.261739686E+02  8.490338775E+02  1.250000000E+02  0.00000E+00  9.000E+00
      25     1     1     2     0     0 -7.963607505E+01 -5.950349342E+01  1.980029250E+02  2.543869661E+02  1.250000000E+02  0.00000E+00  9.000E+00
      21     1     1     2   511   501 -6.024917958E+01  3.805967378E+00 -2.015756650E+02  2.104214764E+02  0.000000000E+00  0.00000E+00  9.000E+00
#rwgt            1           1   4.8408658001781082E-002           7      226604           0
</event>
<event>
      5   9999  3.79277E-02  2.36680E+01 -1.00000E+00  1.60553E-01
      21    -1     0     0   502   501  0.000000000E+00  0.000000000E+00  3.154522873E+02  3.154522873E+02  0.000000000E+00  0.00000E+00  9.000E+00
      21    -1     0     0   512   502  0.000000000E+00  0.000000000E+00 -8.759886694E+02  8.759886694E+02  0.000000000E+00  0.00000E+00  9.000E+00
      25     1     1     2     0     0  2.155380372E+02  1.851144334E+02  1.372444028E+02  3.393891941E+02  1.250000000E+02  0.00000E+00  9.000E+00
      25     1     1     2     0     0 -2.198869659E+02 -2.083794471E+02 -2.727658436E+02  4.263783264E+02  1.250000000E+02  0.00000E+00  9.000E+00
      21     1     1     2   512   501  4.348928698E+00  2.326501377E+01 -4.250149412E+02  4.256734362E+02  0.000000000E+00  0.00000E+00  9.000E+00
#rwgt            1           1   2.3699829836201888E-002           7      226793           0
</event>
<event>
      5   9999  3.79277E-02  3.31102E+01 -1.00000E+00  1.50123E-01
      21    -1     0     0   502   501  0.000000000E+00  0.000000000E+00  2.830866525E+02  2.830866525E+02  0.000000000E+00  0.00000E+00  9.000E+00
      21    -1     0     0   501   511  0.000000000E+00  0.000000000E+00 -9.518519316E+02  9.518519316E+02  0.000000000E+00  0.00000E+00  9.000E+00
      25     1     1     2     0     0  4.673782708E+01  1.728347718E+02  4.185986982E+00  2.184005616E+02  1.250000000E+02  0.00000E+00  9.000E+00
      25     1     1     2     0     0 -7.339431295E+01 -1.531950269E+02  1.065797029E+02  2.363041991E+02  1.250000000E+02  0.00000E+00  9.000E+00
      21     1     1     2   502   511  2.665648588E+01 -1.963974487E+01 -7.795309689E+02  7.802338234E+02  0.000000000E+00  0.00000E+00  9.000E+00
#rwgt            1           1   4.4298844160690083E-002           7      226971           0
</event>
<event>
      5   9999  3.79277E-02  6.57287E+01 -1.00000E+00  1.32621E-01
      21    -1     0     0   512   501  0.000000000E+00  0.000000000E+00  6.738050613E+01  6.738050613E+01  0.000000000E+00  0.00000E+00  9.000E+00
      21    -1     0     0   501   502  0.000000000E+00  0.000000000E+00 -1.077388304E+03  1.077388304E+03  0.000000000E+00  0.00000E+00  9.000E+00
      25     1     1     2     0     0  1.063678381E+02 -6.700217683E+01 -1.375679765E+02  2.243955366E+02  1.250000000E+02  0.00000E+00  9.000E+00
      25     1     1     2     0     0 -4.400712994E+01  8.777241662E+01 -8.227819671E+02  8.379951014E+02  1.250000000E+02  0.00000E+00  9.000E+00
      21     1     1     2   512   502 -6.236070819E+01 -2.077023979E+01 -4.965785475E+01  8.237817262E+01  9.536743164E-07  0.00000E+00  9.000E+00
#rwgt            1           1   3.9349662351330868E-002           7      227081           0
</event>
<event>
      5   9999  3.79277E-02  1.74273E+01 -1.00000E+00  1.71459E-01
      21    -1     0     0   502   511  0.000000000E+00  0.000000000E+00  9.741144141E+01  9.741144141E+01  0.000000000E+00  0.00000E+00  9.000E+00
      21    -1     0     0   501   502  0.000000000E+00  0.000000000E+00 -6.632523799E+02  6.632523799E+02  0.000000000E+00  0.00000E+00  9.000E+00
      25     1     1     2     0     0 -1.426140212E+02  1.674967865E+01 -1.035992129E+02  2.167420303E+02  1.250000000E+02  0.00000E+00  9.000E+00
      25     1     1     2     0     0  1.565855444E+02 -6.333074344E+00 -4.793026396E+02  5.195335994E+02  1.250000000E+02  0.00000E+00  9.000E+00
      21     1     1     2   501   511 -1.397152321E+01 -1.041660430E+01  1.706091399E+01  2.438819165E+01  4.129530925E-07  0.00000E+00  9.000E+00
#rwgt            1           1   3.4865192761287585E-002           7      227337           0
</event>
<event>
      5   9999  3.79277E-02  5.79414E+01 -1.00000E+00  1.35519E-01
      21    -1     0     0   502   512  0.000000000E+00  0.000000000E+00  2.597532480E+02  2.597532480E+02  0.000000000E+00  0.00000E+00  9.000E+00
      21    -1     0     0   501   502  0.000000000E+00  0.000000000E+00 -4.571628040E+02  4.571628040E+02  0.000000000E+00  0.00000E+00  9.000E+00
      25     1     1     2     0     0  2.394693990E+02 -8.707950650E+01 -1.595352169E+02  3.255839661E+02  1.250000000E+02  0.00000E+00  9.000E+00
      25     1     1     2     0     0 -2.283411875E+02  1.439422379E+02 -9.269075948E+01  3.115696433E+02  1.250000000E+02  0.00000E+00  9.000E+00
      21     1     1     2   501   512 -1.112821157E+01 -5.686273137E+01  5.481642039E+01  7.976244265E+01  9.536743164E-07  0.00000E+00  9.000E+00
#rwgt            1           1   3.2235617492673091E-002           7      227580           0
</event>
<event>
      5   9999  3.79277E-02  1.53129E+02 -1.00000E+00  1.16039E-01
      21    -1     0     0   502   501  0.000000000E+00  0.000000000E+00  5.063829859E+02  5.063829859E+02  0.000000000E+00  0.00000E+00  9.000E+00
       2    -1     0     0   501     0  0.000000000E+00  0.000000000E+00 -6.399727025E+02  6.399727025E+02  0.000000000E+00  0.00000E+00  9.000E+00
      25     1     1     2     0     0 -1.576513109E+00 -3.074728650E+01 -5.560214413E+01  1.402300947E+02  1.250000000E+02  0.00000E+00  9.000E+00
      25     1     1     2     0     0  3.969747364E+01  1.790557205E+02  4.254774135E+02  4.798883931E+02  1.250000000E+02  0.00000E+00  9.000E+00
       2     1     1     2   502     0 -3.812096053E+01 -1.483084340E+02 -5.034649860E+02  5.262372006E+02  5.394796609E-06  0.00000E+00  9.000E+00
#rwgt            1           1   4.8743837000447342E-002           7      227707           0
</event>
<event>
      5   9999  3.79277E-02  4.01539E+01 -1.00000E+00  1.44737E-01
      21    -1     0     0   502   501  0.000000000E+00  0.000000000E+00  5.960036499E+02  5.960036499E+02  0.000000000E+00  0.00000E+00  9.000E+00
      -3    -1     0     0     0   502  0.000000000E+00  0.000000000E+00 -2.478772229E+02  2.478772229E+02  0.000000000E+00  0.00000E+00  9.000E+00
      25     1     1     2     0     0 -1.709124831E+02  1.605116728E+02  1.914373781E+02  3.274879291E+02  1.250000000E+02  0.00000E+00  9.000E+00
      25     1     1     2     0     0  1.483009300E+02 -1.936938558E+02  2.769157605E+02  3.896380552E+02  1.250000000E+02  0.00000E+00  9.000E+00
      -3     1     1     2     0   501  2.261155307E+01  3.318218304E+01 -1.202267115E+02  1.267548885E+02  2.697398305E-06  0.00000E+00  9.000E+00
#rwgt            1           1   3.9812289925220200E-002           7      227761           0
</event>
<event>
      5   9999  3.79277E-02  1.08537E+01 -1.00000E+00  1.91732E-01
      21    -1     0     0   502   501  0.000000000E+00  0.000000000E+00  2.104549971E+02  2.104549971E+02  0.000000000E+00  0.00000E+00  9.000E+00
       1    -1     0     0   501     0  0.000000000E+00  0.000000000E+00 -2.961966848E+03  2.961966848E+03  0.000000000E+00  0.00000E+00  9.000E+00
      25     1     1     2     0     0 -1.154519033E+02 -4.168381579E+01 -3.645414963E+02  4.044529454E+02  1.250000000E+02  0.00000E+00  9.000E+00
      25     1     1     2     0     0  1.234095972E+02  3.430286510E+01  1.484486926E+02  2.325266212E+02  1.250000000E+02  0.00000E+00  9.000E+00
       1     1     1     2   502     0 -7.957693902E+00  7.380950692E+00 -2.535419047E+03  2.535442278E+03  3.051757812E-05  0.00000E+00  9.000E+00
#rwgt            1           1   4.1038007371359202E-002           7      227975           0
</event>
<event>
      5   9999  3.79277E-02  5.11725E+01 -1.00000E+00  1.38504E-01
       1    -1     0     0   502     0  0.000000000E+00  0.000000000E+00  2.586589064E+02  2.586589064E+02  0.000000000E+00  0.00000E+00  9.000E+00
      21    -1     0     0   501   502  0.000000000E+00  0.000000000E+00 -6.236040376E+02  6.236040376E+02  0.000000000E+00  0.00000E+00  9.000E+00
      25     1     1     2     0     0 -3.160235655E+02 -5.884507231E+01 -3.575180098E+02  4.967673136E+02  1.250000000E+02  0.00000E+00  9.000E+00
      25     1     1     2     0     0  2.820216334E+02  2.060253737E+01 -5.685064076E+01  3.143527661E+02  1.250000000E+02  0.00000E+00  9.000E+00
       1     1     1     2   501     0  3.400193211E+01  3.824253495E+01  4.942351942E+01  7.114286428E+01  6.743495762E-07  0.00000E+00  9.000E+00
#rwgt            1           1   3.0154297114804180E-002           7      228202           0
</event>
<event>
      5   9999  3.79277E-02  2.13879E+01 -1.00000E+00  1.64000E-01
      21    -1     0     0   511   501  0.000000000E+00  0.000000000E+00  3.534612199E+01  3.534612199E+01  0.000000000E+00  0.00000E+00  9.000E+00
      21    -1     0     0   501   502  0.000000000E+00  0.000000000E+00 -3.463997683E+03  3.463997683E+03  0.000000000E+00  0.00000E+00  9.000E+00
      25     1     1     2     0     0  1.897916694E+02 -2.264523205E+01 -5.832617803E+02  6.263808655E+02  1.250000000E+02  0.00000E+00  9.000E+00
      25     1     1     2     0     0 -2.098901307E+02  1.533115206E+01 -2.840495216E+03  2.851022094E+03  1.250000000E+02  0.00000E+00  9.000E+00
      21     1     1     2   511   502  2.009846135E+01  7.314079985E+00 -4.894564666E+00  2.194084497E+01  3.264680848E-07  0.00000E+00  9.000E+00
#rwgt            1           1   1.9955384410121336E-002           7      228531           0
</event>
<event>
      5   9999  3.79277E-02  3.11369E+01 -1.00000E+00  1.51926E-01
      21    -1     0     0   502   501  0.000000000E+00  0.000000000E+00  1.890044781E+02  1.890044781E+02  0.000000000E+00  0.00000E+00  9.000E+00
       1    -1     0     0   501     0  0.000000000E+00  0.000000000E+00 -9.612137979E+02  9.612137979E+02  0.000000000E+00  0.00000E+00  9.000E+00
      25     1     1     2     0     0 -1.056569049E+02  1.300087447E+02 -3.827903171E+01  2.124992695E+02  1.250000000E+02  0.00000E+00  9.000E+00
      25     1     1     2     0     0  1.075544499E+02 -9.892973910E+01  1.054688071E+01  1.925909906E+02  1.250000000E+02  0.00000E+00  9.000E+00
       1     1     1     2   502     0 -1.897544994E+00 -3.107900560E+01 -7.444771687E+02  7.451280159E+02  1.525878906E-05  0.00000E+00  9.000E+00
#rwgt            1           1   3.1436811248159738E-002           7      228744           0
</event>
<event>
      5   9999  3.79277E-02  1.08342E+01 -1.00000E+00  1.91819E-01
      21    -1     0     0   502   501  0.000000000E+00  0.000000000E+00  4.603110339E+01  4.603110339E+01  0.000000000E+00  0.00000E+00  9.000E+00
      21    -1     0     0   511   502  0.000000000E+00  0.000000000E+00 -8.200278556E+02  8.200278556E+02  0.000000000E+00  0.00000E+00  9.000E+00
      25     1     1     2     0     0  1.048704715E+02 -4.740440483E+01 -2.089974767E+02  2.693509581E+02  1.250000000E+02  0.00000E+00  9.000E+00
      25     1     1     2     0     0 -1.075295914E+02  5.790717993E+01 -4.762821249E+02  5.073317623E+02  1.250000000E+02  0.00000E+00  9.000E+00
      21     1     1     2   511   501  2.659119831E+00 -1.050277510E+01 -8.871715069E+01  8.937623862E+01  1.348699152E-06  0.00000E+00  9.000E+00
#rwgt            1           1   3.7500446126175951E-002           7      228929           0
</event>
<event>
      5   9999  3.79277E-02  1.78296E+01 -1.00000E+00  1.70593E-01
      21    -1     0     0   502   512  0.000000000E+00  0.000000000E+00  4.014699445E+02  4.014699445E+02  0.000000000E+00  0.00000E+00  9.000E+00
      21    -1     0     0   501   502  0.000000000E+00  0.000000000E+00 -9.888341717E+01  9.888341717E+01  0.000000000E+00  0.00000E+00  9.000E+00
      25     1     1     2     0     0  1.965919205E+01 -1.182138039E+01 -3.408889166E+01  1.315799430E+02  1.250000000E+02  0.00000E+00  9.000E+00
      25     1     1     2     0     0 -3.743136192E+01  1.039150653E+01  2.748483312E+02  3.044268310E+02  1.250000000E+02  0.00000E+00  9.000E+00
      21     1     1     2   501   512  1.777216987E+01  1.429873860E+00  6.182708780E+01  6.434658769E+01  9.536743164E-07  0.00000E+00  9.000E+00
#rwgt            1           1   3.7170204610876272E-002           7      229111           0
</event>
<event>
      5   9999  3.79277E-02  3.31181E+01 -1.00000E+00  1.50116E-01
      21    -1     0     0   502   511  0.000000000E+00  0.000000000E+00  3.494104927E+01  3.494104927E+01  0.000000000E+00  0.00000E+00  9.000E+00
      21    -1     0     0   501   502  0.000000000E+00  0.000000000E+00 -2.686984232E+03  2.686984232E+03  0.000000000E+00  0.00000E+00  9.000E+00
      25     1     1     2     0     0 -6.525767861E+01  2.531534631E+02 -1.066990211E+03  1.105639341E+03  1.250000000E+02  0.00000E+00  9.000E+00
      25     1     1     2     0     0  3.773909972E+01 -2.347270079E+02 -1.517077496E+03  1.540671976E+03  1.250000000E+02  0.00000E+00  9.000E+00
      21     1     1     2   501   511  2.751857889E+01 -1.842645517E+01 -6.797547534E+01  7.561396486E+01  0.000000000E+00  0.00000E+00  9.000E+00
#rwgt            1           1   7.2213771030326682E-002           7      229244           0
</event>
<event>
      5   9999  3.79277E-02  1.10021E+02 -1.00000E+00  1.21991E-01
      21    -1     0     0   502   501  0.000000000E+00  0.000000000E+00  1.279656329E+02  1.279656329E+02  0.000000000E+00  0.00000E+00  9.000E+00
       2    -1     0     0   501     0  0.000000000E+00  0.000000000E+00 -6.373444199E+02  6.373444199E+02  0.000000000E+00  0.00000E+00  9.000E+00
      25     1     1     2     0     0  6.672711348E+01 -7.445411254E+01 -2.218968581E+01  1.615961160E+02  1.250000000E+02  0.00000E+00  9.000E+00
      25     1     1     2     0     0 -1.279616333E+02  1.658594254E+02 -3.009021185E+02  3.873636709E+02  1.250000000E+02  0.00000E+00  9.000E+00
       2     1     1     2   502     0  6.123451983E+01 -9.140531290E+01 -1.862869827E+02  2.163502660E+02  3.814697266E-06  0.00000E+00  9.000E+00
#rwgt            2          13   9.9301203621775559E-005           7      229369           0
</event>
<event>
      5   9999  3.79277E-02  5.44786E+01 -1.00000E+00  1.36983E-01
       1    -1     0     0   502     0  0.000000000E+00  0.000000000E+00  9.951970188E+02  9.951970188E+02  0.000000000E+00  0.00000E+00  9.000E+00
      21    -1     0     0   501   502  0.000000000E+00  0.000000000E+00 -4.234520261E+02  4.234520261E+02  0.000000000E+00  0.00000E+00  9.000E+00
      25     1     1     2     0     0 -1.152629877E+02  1.804856113E+00 -3.964607362E+01  1.746013316E+02  1.250000000E+02  0.00000E+00  9.000E+00
      25     1     1     2     0     0  1.084121546E+02 -5.585102701E+01 -2.913416583E+02  3.396726282E+02  1.250000000E+02  0.00000E+00  9.000E+00
       1     1     1     2   501     0  6.850833122E+00  5.404617089E+01  9.027327246E+02  9.043750851E+02  1.078959322E-05  0.00000E+00  9.000E+00
#rwgt            1           1   3.2537828782998150E-002           7      229463           0
</event>
<event>
      5   9999  3.79277E-02  1.53434E+02 -1.00000E+00  1.16005E-01
      21    -1     0     0   502   501  0.000000000E+00  0.000000000E+00  1.267070386E+03  1.267070386E+03  0.000000000E+00  0.00000E+00  9.000E+00
       1    -1     0     0   501     0  0.000000000E+00  0.000000000E+00 -3.159386892E+02  3.159386892E+02  0.000000000E+00  0.00000E+00  9.000E+00
      25     1     1     2     0     0  1.643392207E+02 -1.488993577E+02  1.040358055E+03  1.071050084E+03  1.250000000E+02  0.00000E+00  9.000E+00
      25     1     1     2     0     0 -6.147674741E+01  3.505193807E+01  1.626695289E+02  2.170124523E+02  1.250000000E+02  0.00000E+00  9.000E+00
       1     1     1     2   502     0 -1.028624733E+02  1.138474196E+02 -2.518958871E+02  2.949465397E+02  6.031565972E-06  0.00000E+00  9.000E+00
#rwgt            1           1   4.3159674941245257E-002           7      229570           0
</event>
<event>
      5   9999  3.79277E-02  1.17641E+01 -1.00000E+00  1.87939E-01
      21    -1     0     0   502   501  0.000000000E+00  0.000000000E+00  3.093737923E+02  3.093737923E+02  0.000000000E+00  0.00000E+00  9.000E+00
      21    -1     0     0   501   511  0.000000000E+00  0.000000000E+00 -2.333570158E+02  2.333570158E+02  0.000000000E+00  0.00000E+00  9.000E+00
      25     1     1     2     0     0 -9.992005615E+01  1.366925363E+02  1.001619627E+02  2.330799989E+02  1.250000000E+02  0.00000E+00  9.000E+00
      25     1     1     2     0     0  9.260841175E+01 -1.459084519E+02  6.246591384E+01  2.222444255E+02  1.250000000E+02  0.00000E+00  9.000E+00
      21     1     1     2   502   511  7.311644404E+00  9.215915652E+00 -8.661110015E+01  8.740638371E+01  9.536743164E-07  0.00000E+00  9.000E+00
#rwgt            1           1   3.7561450776420202E-002           7      229687           0
</event>
<event>
      5   9999  3.79277E-02  1.41103E+02 -1.00000E+00  1.17456E-01
       2    -1     0     0   502     0  0.000000000E+00  0.000000000E+00  1.807249927E+03  1.807249927E+03  0.000000000E+00  0.00000E+00  9.000E+00
      21    -1     0     0   501   502  0.000000000E+00  0.000000000E+00 -1.744258161E+02  1.744258161E+02  0.000000000E+00  0.00000E+00  9.000E+00
      25     1     1     2     0     0  4.134255419E+02  3.876378274E+01  5.322701884E+02  6.865565257E+02  1.250000000E+02  0.00000E+00  9.000E+00
      25     1     1     2     0     0 -3.613653474E+02 -1.699120077E+02  3.943994505E+02  5.750051576E+02  1.250000000E+02  0.00000E+00  9.000E+00
       2     1     1     2   501     0 -5.206019444E+01  1.311482249E+02  7.061544724E+02  7.201140602E+02  7.629394531E-06  0.00000E+00  9.000E+00
#rwgt            1           1   3.1564554059817861E-002           7      229926           0
</event>
<event>
      5   9999  3.79277E-02  8.75671E+01 -1.00000E+00  1.26478E-01
      21    -1     0     0   502   501  0.000000000E+00  0.000000000E+00  2.903695187E+02  2.903695187E+02  0.000000000E+00  0.00000E+00  9.000E+00
      21    -1     0     0   511   502  0.000000000E+00  0.000000000E+00 -4.578575198E+02  4.578575198E+02  0.000000000E+00  0.00000E+00  9.000E+00
      25     1     1     2     0     0  1.192012112E+02 -1.020883325E+02  1.622634972E+02  2.580414674E+02  1.250000000E+02  0.00000E+00  9.000E+00
      25     1     1     2     0     0 -5.696249190E+01  1.636865361E+02 -8.453422012E+01  2.298021800E+02  1.250000000E+02  0.00000E+00  9.000E+00
      21     1     1     2   511   501 -6.223871928E+01 -6.159820354E+01 -2.452172782E+02  2.603833911E+02  0.000000000E+00  0.00000E+00  9.000E+00
#rwgt            1           1   3.3767501324194975E-002           7      230047           0
</event>
<event>
      5   9999  3.79277E-02  2.66186E+01 -1.00000E+00  1.56737E-01
      21    -1     0     0   512   501  0.000000000E+00  0.000000000E+00  4.451498995E+02  4.451498995E+02  0.000000000E+00  0.00000E+00  9.000E+00
      21    -1     0     0   501   502  0.000000000E+00  0.000000000E+00 -2.198614252E+02  2.198614252E+02  0.000000000E+00  0.00000E+00  9.000E+00
      25     1     1     2     0     0  1.177777847E+02 -1.128819466E+02  3.498377539E+02  4.057405508E+02  1.250000000E+02  0.00000E+00  9.000E+00
      25     1     1     2     0     0 -1.093548407E+02  8.763112983E+01 -1.343607587E+02  2.309015149E+02  1.250000000E+02  0.00000E+00  9.000E+00
      21     1     1     2   512   502 -8.422943948E+00  2.525081681E+01  9.811479046E+00  2.836925899E+01  3.371747881E-07  0.00000E+00  9.000E+00
#rwgt            1           1   3.4877820559505654E-002           7      230156           0
</event>
<event>
      5   9999  3.79277E-02  3.84569E+01 -1.00000E+00  1.45908E-01
      21    -1     0     0   511   501  0.000000000E+00  0.000000000E+00  3.641360617E+02  3.641360617E+02  0.000000000E+00  0.00000E+00  9.000E+00
      21    -1     0     0   501   502  0.000000000E+00  0.000000000E+00 -2.125886081E+02  2.125886081E+02  0.000000000E+00  0.00000E+00  9.000E+00
      25     1     1     2     0     0 -1.575449095E+02 -8.054089338E+01  1.910349470E+01  2.174791427E+02  1.250000000E+02  0.00000E+00  9.000E+00
      25     1     1     2     0     0  1.204255051E+02  7.048682429E+01 -3.227372984E+01  1.900981018E+02  1.250000000E+02  0.00000E+00  9.000E+00
      21     1     1     2   511   502  3.711940441E+01  1.005406909E+01  1.647176888E+02  1.691474253E+02  1.907348633E-06  0.00000E+00  9.000E+00
#rwgt            1           1   2.7960911936379337E-002           7      230345           0
</event>
<event>
      5   9999  3.79277E-02  5.01215E+01 -1.00000E+00  1.39015E-01
      21    -1     0     0   502   501  0.000000000E+00  0.000000000E+00  7.698185081E+02  7.698185081E+02  0.000000000E+00  0.00000E+00  9.000E+00
       2    -1     0     0   501     0  0.000000000E+00  0.000000000E+00 -2.373447042E+03  2.373447042E+03  0.000000000E+00  0.00000E+00  9.000E+00
      25     1     1     2     0     0  8.805904841E+01 -4.703561555E+01 -1.406740634E+02  2.130280199E+02  1.250000000E+02  0.00000E+00  9.000E+00
      25     1     1     2     0     0 -1.155953945E+02  5.155819434E+00  7.234635090E+02  7.432451323E+02  1.250000000E+02  0.00000E+00  9.000E+00
       2     1     1     2   502     0  2.753634610E+01  4.187979612E+01 -2.186417979E+03  2.186992398E+03  4.315837288E-05  0.00000E+00  9.000E+00
#rwgt            1           1   4.2079931709021030E-002           7      230438           0
</event>
<event>
      5   9999  3.79277E-02  2.03053E+01 -1.00000E+00  1.65828E-01
      21    -1     0     0   511   501  0.000000000E+00  0.000000000E+00  1.641161508E+02  1.641161508E+02  0.000000000E+00  0.00000E+00  9.000E+00
      21    -1     0     0   501   502  0.000000000E+00  0.000000000E+00 -1.210605431E+03  1.210605431E+03  0.000000000E+00  0.00000E+00  9.000E+00
      25     1     1     2     0     0  1.684131369E+01 -1.224479001E+02 -7.431843083E+02  7.636917141E+02  1.250000000E+02  0.00000E+00  9.000E+00
      25     1     1     2     0     0  2.403444200E+00  1.159713248E+02 -4.404917553E+02  4.723485061E+02  1.250000000E+02  0.00000E+00  9.000E+00
      21     1     1     2   511   502 -1.924475789E+01  6.476575297E+00  1.371867830E+02  1.386813620E+02  6.031565972E-06  0.00000E+00  9.000E+00
#rwgt            1           1   3.5807736189955662E-002           7      230537           0
</event>
<event>
      5   9999  3.79277E-02  3.61443E+01 -1.00000E+00  1.47624E-01
       2    -1     0     0   502     0  0.000000000E+00  0.000000000E+00  3.940516706E+02  3.940516706E+02  0.000000000E+00  0.00000E+00  9.000E+00
      21    -1     0     0   501   502  0.000000000E+00  0.000000000E+00 -2.087682191E+03  2.087682191E+03  0.000000000E+00  0.00000E+00  9.000E+00
      25     1     1     2     0     0  1.430681038E+02  2.204792447E+01 -1.221201078E+03  1.236087241E+03  1.250000000E+02  0.00000E+00  9.000E+00
      25     1     1     2     0     0 -1.328597746E+02  1.262488322E+01 -8.484308965E+02  8.679119157E+02  1.250000000E+02  0.00000E+00  9.000E+00
       2     1     1     2   501     0 -1.020832922E+01 -3.467280769E+01  3.760014545E+02  3.777347050E+02  1.078959322E-05  0.00000E+00  9.000E+00
#rwgt            1           1  0.11228570551188043                7      230654           0
</event>
<event>
      5   9999  3.79277E-02  1.39271E+02 -1.00000E+00  1.17685E-01
      21    -1     0     0   502   501  0.000000000E+00  0.000000000E+00  2.045164323E+02  2.045164323E+02  0.000000000E+00  0.00000E+00  9.000E+00
       1    -1     0     0   501     0  0.000000000E+00  0.000000000E+00 -7.469519954E+02  7.469519954E+02  0.000000000E+00  0.00000E+00  9.000E+00
      25     1     1     2     0     0  2.917100506E+02 -4.985730570E+01 -1.023365504E+02  3.371620887E+02  1.250000000E+02  0.00000E+00  9.000E+00
      25     1     1     2     0     0 -1.702984884E+02 -1.837564876E+01 -7.730671957E+01  2.257001739E+02  1.250000000E+02  0.00000E+00  9.000E+00
       1     1     1     2   502     0 -1.214115622E+02  6.823295446E+01 -3.627922932E+02  3.886061651E+02  5.394796609E-06  0.00000E+00  9.000E+00
#rwgt            1           1   7.0152528283770457E-002           7      231012           0
</event>
<event>
      5   9999  3.79277E-02  2.25215E+01 -1.00000E+00  1.62224E-01
      21    -1     0     0   511   501  0.000000000E+00  0.000000000E+00  3.490357602E+02  3.490357602E+02  0.000000000E+00  0.00000E+00  9.000E+00
      21    -1     0     0   501   502  0.000000000E+00  0.000000000E+00 -1.724945998E+02  1.724945998E+02  0.000000000E+00  0.00000E+00  9.000E+00
      25     1     1     2     0     0  1.366911436E+02  9.403038006E+00 -3.723086220E+01  1.891666539E+02  1.250000000E+02  0.00000E+00  9.000E+00
      25     1     1     2     0     0 -1.257799287E+02  1.029877671E+01  7.674450108E+01  1.934977356E+02  1.250000000E+02  0.00000E+00  9.000E+00
      21     1     1     2   511   502 -1.091121495E+01 -1.970181472E+01  1.370275214E+02  1.388659704E+02  1.907348633E-06  0.00000E+00  9.000E+00
#rwgt            1           1   4.7385755554664385E-002           7      231045           0
</event>
<event>
      5   9999  3.79277E-02  7.40935E+01 -1.00000E+00  1.29983E-01
      21    -1     0     0   502   512  0.000000000E+00  0.000000000E+00  1.241483473E+02  1.241483473E+02  0.000000000E+00  0.00000E+00  9.000E+00
      21    -1     0     0   501   502  0.000000000E+00  0.000000000E+00 -6.195684143E+02  6.195684143E+02  0.000000000E+00  0.00000E+00  9.000E+00
      25     1     1     2     0     0 -5.327058841E+01 -1.720496197E+01 -2.992707016E+01  1.401941362E+02  1.250000000E+02  0.00000E+00  9.000E+00
      25     1     1     2     0     0  1.024518751E+02  7.262203788E+01 -4.934749586E+02  5.243213537E+02  1.250000000E+02  0.00000E+00  9.000E+00
      21     1     1     2   501   512 -4.918128670E+01 -5.541707591E+01  2.798196181E+01  7.920127177E+01  1.966049969E-06  0.00000E+00  9.000E+00
#rwgt            2          11   1.7383203188452196E-003           7      231301           0
</event>
<event>
      5   9999  3.79277E-02  7.83203E+01 -1.00000E+00  1.28797E-01
       2    -1     0     0   502     0  0.000000000E+00  0.000000000E+00  1.040475193E+02  1.040475193E+02  0.000000000E+00  0.00000E+00  9.000E+00
      21    -1     0     0   501   502  0.000000000E+00  0.000000000E+00 -7.998486803E+02  7.998486803E+02  0.000000000E+00  0.00000E+00  9.000E+00
      25     1     1     2     0     0 -9.409353844E+01 -9.233383742E+01 -2.143794972E+02  2.810030255E+02  1.250000000E+02  0.00000E+00  9.000E+00
      25     1     1     2     0     0  2.706020639E+01  1.328382355E+02 -5.078044068E+02  5.402486161E+02  1.250000000E+02  0.00000E+00  9.000E+00
       2     1     1     2   501     0  6.703333205E+01 -4.050439809E+01  2.638274297E+01  8.264455818E+01  2.611744678E-06  0.00000E+00  9.000E+00
#rwgt            1           1   3.6773743789274539E-002           7      231336           0
</event>
<event>
      5   9999  3.79277E-02  7.75315E+01 -1.00000E+00  1.29012E-01
      21    -1     0     0   502   511  0.000000000E+00  0.000000000E+00  1.321987326E+02  1.321987326E+02  0.000000000E+00  0.00000E+00  9.000E+00
      21    -1     0     0   501   502  0.000000000E+00  0.000000000E+00 -5.470378612E+02  5.470378612E+02  0.000000000E+00  0.00000E+00  9.000E+00
      25     1     1     2     0     0 -1.683982603E+02 -8.661648197E+01 -5.777360615E+01  2.341435000E+02  1.250000000E+02  0.00000E+00  9.000E+00
      25     1     1     2     0     0  9.556692956E+01  6.003195345E+01 -3.142328471E+02  3.565166976E+02  1.250000000E+02  0.00000E+00  9.000E+00
      21     1     1     2   501   511  7.283133073E+01  2.658452851E+01 -4.283267544E+01  8.857639628E+01  4.768371582E-07  0.00000E+00  9.000E+00
#rwgt            1           1   2.7300376736866565E-002           7      231566           0
</event>
<event>
      5   9999  3.79277E-02  1.08622E+01 -1.00000E+00  1.91695E-01
      21    -1     0     0   502   512  0.000000000E+00  0.000000000E+00  7.889761391E+02  7.889761391E+02  0.000000000E+00  0.00000E+00  9.000E+00
      21    -1     0     0   501   502  0.000000000E+00  0.000000000E+00 -6.931046602E+01  6.931046602E+01  0.000000000E+00  0.00000E+00  9.000E+00
      25     1     1     2     0     0 -1.347482073E+02 -1.192364771E+01  1.359386939E+02  2.289182851E+02  1.250000000E+02  0.00000E+00  9.000E+00
      25     1     1     2     0     0  1.360395664E+02  1.138490273E+00  3.533428363E+02  3.987282530E+02  1.250000000E+02  0.00000E+00  9.000E+00
      21     1     1     2   501   512 -1.291359104E+00  1.078515744E+01  2.303841428E+02  2.306400670E+02  4.672030912E-06  0.00000E+00  9.000E+00
#rwgt            1           1   3.1300160275184639E-002           7      231638           0
</event>
<event>
      5   9999  3.79277E-02  1.81329E+01 -1.00000E+00  1.69959E-01
      21    -1     0     0   502   511  0.000000000E+00  0.000000000E+00  1.664846683E+02  1.664846683E+02  0.000000000E+00  0.00000E+00  9.000E+00
      21    -1     0     0   501   502  0.000000000E+00  0.000000000E+00 -4.628110295E+02  4.628110295E+02  0.000000000E+00  0.00000E+00  9.000E+00
      25     1     1     2     0     0  2.692867152E+01  1.585344473E+02 -3.548240841E+02  4.091252314E+02  1.250000000E+02  0.00000E+00  9.000E+00
      25     1     1     2     0     0 -2.274390732E+01 -1.408910793E+02  6.553885909E+01  2.007185183E+02  1.250000000E+02  0.00000E+00  9.000E+00
      21     1     1     2   501   511 -4.184764196E+00 -1.764336799E+01 -7.041136216E+00  1.945194809E+01  1.884864366E-07  0.00000E+00  9.000E+00
#rwgt            1           1   3.6471157046649945E-002           7      231828           0
</event>
<event>
      5   9999  3.79277E-02  2.65687E+02 -1.00000E+00  1.07335E-01
      21    -1     0     0   502   501  0.000000000E+00  0.000000000E+00  9.238505096E+02  9.238505096E+02  0.000000000E+00  0.00000E+00  9.000E+00
      21    -1     0     0   512   502  0.000000000E+00  0.000000000E+00 -3.503250786E+02  3.503250786E+02  0.000000000E+00  0.00000E+00  9.000E+00
      25     1     1     2     0     0 -7.290428913E+01 -8.162880352E+01  6.990260373E+02  7.184989198E+02  1.250000000E+02  0.00000E+00  9.000E+00
      25     1     1     2     0     0 -1.921624558E+02  9.977161374E+01  2.340966385E+01  2.511051507E+02  1.250000000E+02  0.00000E+00  9.000E+00
      21     1     1     2   512   501  2.650667449E+02 -1.814281022E+01 -1.489102702E+02  3.045715177E+02  5.046370146E-06  0.00000E+00  9.000E+00
#rwgt            1           1   4.5408450090953692E-002           7      232049           0
</event>
<event>
      5   9999  3.79277E-02  2.01500E+01 -1.00000E+00  1.66102E-01
      21    -1     0     0   502   501  0.000000000E+00  0.000000000E+00  1.150481930E+02  1.150481930E+02  0.000000000E+00  0.00000E+00  9.000E+00
      21    -1     0     0   511   502  0.000000000E+00  0.000000000E+00 -4.603333737E+02  4.603333737E+02  0.000000000E+00  0.00000E+00  9.000E+00
      25     1     1     2     0     0  4.401367208E+01  7.047204679E+01  4.076301040E+01  1.555317837E+02  1.250000000E+02  0.00000E+00  9.000E+00
      25     1     1     2     0     0 -2.517629707E+01 -6.331840416E+01 -3.091493513E+02  3.403547967E+02  1.250000000E+02  0.00000E+00  9.000E+00
      21     1     1     2   511   501 -1.883737501E+01 -7.153642630E+00 -7.689883981E+01  7.949498641E+01  0.000000000E+00  0.00000E+00  9.000E+00
#rwgt            1           1   3.9503433592665026E-002           7      232091           0
</event>
<event>
      5   9999  3.79277E-02  2.45104E+01 -1.00000E+00  1.59397E-01
      21    -1     0     0   502   501  0.000000000E+00  0.000000000E+00  2.420693323E+02  2.420693323E+02  0.000000000E+00  0.00000E+00  9.000E+00
      -2    -1     0     0     0   502  0.000000000E+00  0.000000000E+00 -5.555061245E+02  5.555061245E+02  0.000000000E+00  0.00000E+00  9.000E+00
      25     1     1     2     0     0  1.801685470E+01  5.923333414E+01  1.737398303E+02  2.228087152E+02  1.250000000E+02  0.00000E+00  9.000E+00
      25     1     1     2     0     0 -3.937916884E+01 -7.125051144E+01 -8.469385081E+01  1.715383417E+02  1.250000000E+02  0.00000E+00  9.000E+00
      -2     1     1     2     0   501  2.136231414E+01  1.201717730E+01 -4.024827717E+02  4.032283999E+02  5.394796609E-06  0.00000E+00  9.000E+00
#rwgt            1           1   4.9771771847282320E-002           7      232258           0
</event>
<event>
      5   9999  3.79277E-02  6.29091E+01 -1.00000E+00  1.33614E-01
      21    -1     0     0   502   511  0.000000000E+00  0.000000000E+00  6.245165506E+02  6.245165506E+02  0.000000000E+00  0.00000E+00  9.000E+00
      21    -1     0     0   501   502  0.000000000E+00  0.000000000E+00 -1.152700747E+02  1.152700747E+02  0.000000000E+00  0.00000E+00  9.000E+00
      25     1     1     2     0     0 -2.716035346E+00  1.372815058E+02  1.725567527E+02  2.534845589E+02  1.250000000E+02  0.00000E+00  9.000E+00
      25     1     1     2     0     0 -7.805969161E+00 -1.993044306E+02  1.271769844E+02  2.675484527E+02  1.250000000E+02  0.00000E+00  9.000E+00
      21     1     1     2   501   511  1.052200451E+01  6.202292482E+01  2.095127387E+02  2.187536136E+02  2.697398305E-06  0.00000E+00  9.000E+00
#rwgt            1           1   3.6013184476197328E-002           7      232528           0
</event>
<event>
      5   9999  3.79277E-02  2.16472E+01 -1.00000E+00  1.63582E-01
      21    -1     0     0   502   501  0.000000000E+00  0.000000000E+00  9.286283212E+01  9.286283212E+01  0.000000000E+00  0.00000E+00  9.000E+00
      21    -1     0     0   501   512  0.000000000E+00  0.000000000E+00 -3.858545104E+02  3.858545104E+02  0.000000000E+00  0.00000E+00  9.000E+00
      25     1     1     2     0     0  7.236101435E+01 -9.755250700E+01 -9.316155816E+01  1.976276396E+02  1.250000000E+02  0.00000E+00  9.000E+00
      25     1     1     2     0     0 -5.121331830E+01  1.021760078E+02 -1.480205276E+02  2.249395855E+02  1.250000000E+02  0.00000E+00  9.000E+00
      21     1     1     2   502   512 -2.114769604E+01 -4.623500794E+00 -5.180959256E+01  5.615011744E+01  6.743495762E-07  0.00000E+00  9.000E+00
#rwgt            1           1   4.0420566647413766E-002           7      232594           0
</event>
<event>
      5   9999  3.79277E-02  1.80458E+01 -1.00000E+00  1.70140E-01
      21    -1     0     0   502   501  0.000000000E+00  0.000000000E+00  6.880355280E+02  6.880355280E+02  0.000000000E+00  0.00000E+00  9.000E+00
      21    -1     0     0   501   511  0.000000000E+00  0.000000000E+00 -3.066047972E+02  3.066047972E+02  0.000000000E+00  0.00000E+00  9.000E+00
      25     1     1     2     0     0 -4.719846084E+01 -6.260849005E+01  5.937688984E+01  1.590538675E+02  1.250000000E+02  0.00000E+00  9.000E+00
      25     1     1     2     0     0  6.338193849E+01  5.462435386E+01  5.687124541E+02  5.882685998E+02  1.250000000E+02  0.00000E+00  9.000E+00
      21     1     1     2   502   511 -1.618347764E+01  7.984136190E+00 -2.466586131E+02  2.473178579E+02  5.394796609E-06  0.00000E+00  9.000E+00
#rwgt            1           1   4.0178684612410961E-002           7      232733           0
</event>
<event>
      5   9999  3.79277E-02  1.18337E+02 -1.00000E+00  1.20626E-01
      21    -1     0     0   512   501  0.000000000E+00  0.000000000E+00  6.726245673E+02  6.726245673E+02  0.000000000E+00  0.00000E+00  9.000E+00
      21    -1     0     0   501   502  0.000000000E+00  0.000000000E+00 -1.529645666E+02  1.529645666E+02  0.000000000E+00  0.00000E+00  9.000E+00
      25     1     1     2     0     0  1.941908933E+02  8.096379820E+01  2.259616466E+01  2.457657957E+02  1.250000000E+02  0.00000E+00  9.000E+00
      25     1     1     2     0     0 -1.118516526E+02  4.030035224E+00  2.064056526E+02  2.659987346E+02  1.250000000E+02  0.00000E+00  9.000E+00
      21     1     1     2   512   502 -8.233924077E+01 -8.499383342E+01  2.906581834E+02  3.138246036E+02  5.394796609E-06  0.00000E+00  9.000E+00
#rwgt            1           1   4.0825487474667445E-002           7      232900           0
</event>
<event>
      5   9999  3.79277E-02  1.33728E+02 -1.00000E+00  1.18405E-01
      21    -1     0     0   502   501  0.000000000E+00  0.000000000E+00  1.737574362E+02  1.737574362E+02  0.000000000E+00  0.00000E+00  9.000E+00
       1    -1     0     0   501     0  0.000000000E+00  0.000000000E+00 -6.150901297E+02  6.150901297E+02  0.000000000E+00  0.00000E+00  9.000E+00
      25     1     1     2     0     0 -1.045096236E+02 -2.422745252E+02 -1.410210729E+02  3.242393406E+02  1.250000000E+02  0.00000E+00  9.000E+00
      25     1     1     2     0     0  1.347546006E+02  1.120112847E+02 -1.443617708E+02  2.591730139E+02  1.250000000E+02  0.00000E+00  9.000E+00
       1     1     1     2   502     0 -3.024497694E+01  1.302632405E+02 -1.559498497E+02  2.054352114E+02  1.907348633E-06  0.00000E+00  9.000E+00
#rwgt            1           1   2.9067886126414116E-002           7      233198           0
</event>
<event>
      5   9999  3.79277E-02  1.35150E+02 -1.00000E+00  1.18217E-01
      21    -1     0     0   502   501  0.000000000E+00  0.000000000E+00  1.281194355E+02  1.281194355E+02  0.000000000E+00  0.00000E+00  9.000E+00
      21    -1     0     0   501   511  0.000000000E+00  0.000000000E+00 -1.014208048E+03  1.014208048E+03  0.000000000E+00  0.00000E+00  9.000E+00
      25     1     1     2     0     0  9.108643952E+01  2.501167679E+02 -4.210504996E+02  5.135792639E+02  1.250000000E+02  0.00000E+00  9.000E+00
      25     1     1     2     0     0 -1.929660211E+02 -1.613128074E+02 -2.572101597E+02  3.808408768E+02  1.250000000E+02  0.00000E+00  9.000E+00
      21     1     1     2   502   511  1.018795816E+02 -8.880396043E+01 -2.078279533E+02  2.479073430E+02  0.000000000E+00  0.00000E+00  9.000E+00
#rwgt            1           1   2.7283996737952534E-002           7      233330           0
</event>
<event>
      5   9999  3.79277E-02  2.89562E+01 -1.00000E+00  1.54116E-01
      21    -1     0     0   502   501  0.000000000E+00  0.000000000E+00  2.141557862E+02  2.141557862E+02  0.000000000E+00  0.00000E+00  9.000E+00
      21    -1     0     0   501   512  0.000000000E+00  0.000000000E+00 -2.017685082E+02  2.017685082E+02  0.000000000E+00  0.00000E+00  9.000E+00
      25     1     1     2     0     0 -5.307906056E+01  7.093314909E+01 -8.367704276E+01  1.745730386E+02  1.250000000E+02  0.00000E+00  9.000E+00
      25     1     1     2     0     0  5.173588497E+01 -9.985816302E+01  1.176635745E+02  2.052266339E+02  1.250000000E+02  0.00000E+00  9.000E+00
      21     1     1     2   502   512  1.343175586E+00  2.892501393E+01 -2.159925368E+01  3.612462194E+01  0.000000000E+00  0.00000E+00  9.000E+00
#rwgt            1           1   4.0593177501843040E-002           7      233399           0
</event>
<event>
      5   9999  3.79277E-02  9.03343E+01 -1.00000E+00  1.25847E-01
      21    -1     0     0   511   501  0.000000000E+00  0.000000000E+00  2.631548837E+02  2.631548837E+02  0.000000000E+00  0.00000E+00  9.000E+00
      21    -1     0     0   501   502  0.000000000E+00  0.000000000E+00 -4.350430917E+02  4.350430917E+02  0.000000000E+00  0.00000E+00  9.000E+00
      25     1     1     2     0     0  4.452777925E+01 -1.791495912E+02 -2.169133280E+02  3.110525535E+02  1.250000000E+02  0.00000E+00  9.000E+00
      25     1     1     2     0     0 -1.781476534E+01  2.654438259E+02  4.023281623E+01  2.966841251E+02  1.250000000E+02  0.00000E+00  9.000E+00
      21     1     1     2   511   502 -2.671301391E+01 -8.629423470E+01  4.792303743E+00  9.046129686E+01  1.962432579E-06  0.00000E+00  9.000E+00
#rwgt            1           1   8.6163699070160249E-002           7      233628           0
</event>
<event>
      5   9999  3.79277E-02  1.28058E+02 -1.00000E+00  1.19182E-01
      21    -1     0     0   502   501  0.000000000E+00  0.000000000E+00  2.277461688E+02  2.277461688E+02  0.000000000E+00  0.00000E+00  9.000E+00
      21    -1     0     0   501   512  0.000000000E+00  0.000000000E+00 -9.129701254E+02  9.129701254E+02  0.000000000E+00  0.00000E+00  9.000E+00
      25     1     1     2     0     0  1.950285921E+01  3.010184051E+01  1.226089782E+02  1.787300866E+02  1.250000000E+02  0.00000E+00  9.000E+00
      25     1     1     2     0     0 -9.837703837E+01 -1.309869324E+02 -7.693333110E+01  2.199530758E+02  1.250000000E+02  0.00000E+00  9.000E+00
      21     1     1     2   502   512  7.887417915E+01  1.008850919E+02 -7.308996037E+02  7.420331318E+02  1.078959322E-05  0.00000E+00  9.000E+00
#rwgt            1           1   3.8407147359215091E-002           7      233728           0
</event>
<event>
      5   9999  3.79277E-02  2.10572E+01 -1.00000E+00  1.64544E-01
      21    -1     0     0   511   501  0.000000000E+00  0.000000000E+00  2.718017263E+02  2.718017263E+02  0.000000000E+00  0.00000E+00  9.000E+00
      21    -1     0     0   501   502  0.000000000E+00  0.000000000E+00 -2.657619707E+02  2.657619707E+02  0.000000000E+00  0.00000E+00  9.000E+00
      25     1     1     2     0     0 -1.609493821E+02  7.353064794E+01 -6.544154546E+01  2.263162735E+02  1.250000000E+02  0.00000E+00  9.000E+00
      25     1     1     2     0     0  1.808896735E+02 -8.029740008E+01 -2.740213329E+00  2.340966792E+02  1.250000000E+02  0.00000E+00  9.000E+00
      21     1     1     2   511   502 -1.994029132E+01  6.766752140E+00  7.422151433E+01  7.715074427E+01  0.000000000E+00  0.00000E+00  9.000E+00
#rwgt            1           1   4.4310872986857194E-002           7      233845           0
</event>
<event>
      5   9999 -3.79277E-02  5.60153E+01 -1.00000E+00  1.36318E-01
      21    -1     0     0   502   512  0.000000000E+00  0.000000000E+00  5.880195510E+01  5.880195510E+01  0.000000000E+00  0.00000E+00  9.000E+00
      21    -1     0     0   501   502  0.000000000E+00  0.000000000E+00 -1.170662824E+03  1.170662824E+03  0.000000000E+00  0.00000E+00  9.000E+00
      25     1     1     2     0     0 -9.456725599E+01 -1.132079710E+02 -4.497456115E+02  4.895458361E+02  1.250000000E+02  0.00000E+00  9.000E+00
      25     1     1     2     0     0  1.075621538E+02  1.676950561E+02 -6.360397871E+02  6.781318895E+02  1.250000000E+02  0.00000E+00  9.000E+00
      21     1     1     2   501   512 -1.299489784E+01 -5.448708511E+01 -2.607547010E+01  6.178705330E+01  0.000000000E+00  0.00000E+00  9.000E+00
#rwgt            1           1  -2.3640281646373450E-002           7      233967           0
</event>
<event>
      5   9999  3.79277E-02  1.32116E+01 -1.00000E+00  1.82740E-01
      21    -1     0     0   502   501  0.000000000E+00  0.000000000E+00  1.029409769E+02  1.029409769E+02  0.000000000E+00  0.00000E+00  9.000E+00
      21    -1     0     0   511   502  0.000000000E+00  0.000000000E+00 -5.397388046E+02  5.397388046E+02  0.000000000E+00  0.00000E+00  9.000E+00
      25     1     1     2     0     0 -3.808733289E+01 -1.066636405E+02 -6.107007392E+00  1.687900254E+02  1.250000000E+02  0.00000E+00  9.000E+00
      25     1     1     2     0     0  5.099760681E+01  1.094692220E+02 -3.361062423E+02  3.783869350E+02  1.250000000E+02  0.00000E+00  9.000E+00
      21     1     1     2   511   501 -1.291027392E+01 -2.805581573E+00 -9.458457802E+01  9.550282121E+01  1.348699152E-06  0.00000E+00  9.000E+00
#rwgt            1           1   4.2106799552383063E-002           7      234272           0
</event>
<event>
      5   9999  3.79277E-02  2.63586E+01 -1.00000E+00  1.57048E-01
       2    -1     0     0   502     0  0.000000000E+00  0.000000000E+00  4.428892218E+03  4.428892218E+03  0.000000000E+00  0.00000E+00  9.000E+00
      21    -1     0     0   501   502  0.000000000E+00  0.000000000E+00 -4.718013664E+01  4.718013664E+01  0.000000000E+00  0.00000E+00  9.000E+00
      25     1     1     2     0     0  4.770093039E+01 -1.006310813E+02  2.001213285E+02  2.609128962E+02  1.250000000E+02  0.00000E+00  9.000E+00
      25     1     1     2     0     0 -3.196229474E+01  1.217751479E+02  4.533933534E+02  4.868688816E+02  1.250000000E+02  0.00000E+00  9.000E+00
       2     1     1     2   501     0 -1.573863565E+01 -2.114406661E+01  3.728197400E+03  3.728290577E+03  0.000000000E+00  0.00000E+00  9.000E+00
#rwgt            1           1   3.5095778740202387E-002           7      234528           0
</event>
<event>
      5   9999  3.79277E-02  3.58936E+01 -1.00000E+00  1.47819E-01
      21    -1     0     0   502   501  0.000000000E+00  0.000000000E+00  1.634649558E+02  1.634649558E+02  0.000000000E+00  0.00000E+00  9.000E+00
      21    -1     0     0   511   502  0.000000000E+00  0.000000000E+00 -2.198058944E+02  2.198058944E+02  0.000000000E+00  0.00000E+00  9.000E+00
      25     1     1     2     0     0 -3.602334904E+01  2.503502988E+01  7.314505144E+01  1.513262467E+02  1.250000000E+02  0.00000E+00  9.000E+00
      25     1     1     2     0     0  6.989114633E+01 -1.314711949E+01 -6.430998857E+01  1.575385468E+02  1.250000000E+02  0.00000E+00  9.000E+00
      21     1     1     2   511   501 -3.386779729E+01 -1.188791039E+01 -6.517600143E+01  7.440605667E+01  1.348699152E-06  0.00000E+00  9.000E+00
#rwgt            1           1   3.4104490762874216E-002           7      234670           0
</event>
<event>
      5   9999  3.79277E-02  5.95670E+01 -1.00000E+00  1.34872E-01
      21    -1     0     0   502   501  0.000000000E+00  0.000000000E+00  4.594555946E+02  4.594555946E+02  0.000000000E+00  0.00000E+00  9.000E+00
      21    -1     0     0   512   502  0.000000000E+00  0.000000000E+00 -1.018311025E+02  1.018311025E+02  0.000000000E+00  0.00000E+00  9.000E+00
      25     1     1     2     0     0 -2.172799202E+01  1.116896961E+02  1.096159852E+02  2.014630440E+02  1.250000000E+02  0.00000E+00  9.000E+00
      25     1     1     2     0     0  4.095965452E+01 -5.531270334E+01  2.622673507E+02  2.985738630E+02  1.250000000E+02  0.00000E+00  9.000E+00
      21     1     1     2   512   501 -1.923166250E+01 -5.637699281E+01 -1.425884386E+01  6.124979011E+01  1.272806913E-06  0.00000E+00  9.000E+00
#rwgt            1           1   4.5884215441786586E-002           7      234844           0
</event>
<event>
      5   9999  3.79277E-02  6.96982E+01 -1.00000E+00  1.31316E-01
      21    -1     0     0   502   501  0.000000000E+00  0.000000000E+00  4.435039953E+02  4.435039953E+02  0.000000000E+00  0.00000E+00  9.000E+00
      21    -1     0     0   501   511  0.000000000E+00  0.000000000E+00 -2.293887063E+02  2.293887063E+02  0.000000000E+00  0.00000E+00  9.000E+00
      25     1     1     2     0     0 -1.761722757E+02  1.509637557E+02  1.562317379E+02  3.063659286E+02  1.250000000E+02  0.00000E+00  9.000E+00
      25     1     1     2     0     0  2.367511054E+02 -1.164957871E+02  5.215952347E+01  2.965939484E+02  1.250000000E+02  0.00000E+00  9.000E+00
      21     1     1     2   502   511 -6.057882967E+01 -3.446796862E+01  5.724027654E+00  6.993282461E+01  1.687979967E-06  0.00000E+00  9.000E+00
#rwgt            1           1   5.2931895067010650E-003           7      234954           0
</event>
<event>
      5   9999  3.79277E-02  2.97170E+01 -1.00000E+00  1.53326E-01
      21    -1     0     0   502   501  0.000000000E+00  0.000000000E+00  1.812161034E+02  1.812161034E+02  0.000000000E+00  0.00000E+00  9.000E+00
      21    -1     0     0   512   502  0.000000000E+00  0.000000000E+00 -5.519621051E+02  5.519621051E+02  0.000000000E+00  0.00000E+00  9.000E+00
      25     1     1     2     0     0 -1.873343131E+02  1.439784442E+02 -7.798522720E+01  2.784432310E+02  1.250000000E+02  0.00000E+00  9.000E+00
      25     1     1     2     0     0  2.170504565E+02 -1.437469389E+02 -1.850280624E+02  3.429788142E+02  1.250000000E+02  0.00000E+00  9.000E+00
      21     1     1     2   512   501 -2.971614344E+01 -2.315052785E-01 -1.077327121E+02  1.117561633E+02  0.000000000E+00  0.00000E+00  9.000E+00
#rwgt            1           1   3.0614721738425922E-002           7      235029           0
</event>
<event>
      5   9999  3.79277E-02  1.00054E+02 -1.00000E+00  1.23817E-01
      21    -1     0     0   502   511  0.000000000E+00  0.000000000E+00  6.599725668E+02  6.599725668E+02  0.000000000E+00  0.00000E+00  9.000E+00
      21    -1     0     0   501   502  0.000000000E+00  0.000000000E+00 -9.635806153E+01  9.635806153E+01  0.000000000E+00  0.00000E+00  9.000E+00
      25     1     1     2     0     0 -3.931318183E+01 -1.157341950E+02  1.055552829E+02  2.042225451E+02  1.250000000E+02  0.00000E+00  9.000E+00
      25     1     1     2     0     0 -5.220825558E+01  1.561653101E+02  2.829005766E+02  3.503869892E+02  1.250000000E+02  0.00000E+00  9.000E+00
      21     1     1     2   501   511  9.152143741E+01 -4.043111502E+01  1.751586458E+02  2.017210940E+02  1.907348633E-06  0.00000E+00  9.000E+00
#rwgt            1           1   3.3541183029848744E-002           7      235178           0
</event>
<event>
      5   9999  3.79277E-02  1.35745E+02 -1.00000E+00  1.18139E-01
      21    -1     0     0   502   501  0.000000000E+00  0.000000000E+00  1.079828101E+03  1.079828101E+03  0.000000000E+00  0.00000E+00  9.000E+00
      21    -1     0     0   501   512  0.000000000E+00  0.000000000E+00 -1.935711620E+02  1.935711620E+02  0.000000000E+00  0.00000E+00  9.000E+00
      25     1     1     2     0     0  2.026001845E+02  1.697932396E+02  1.796561951E+02  3.431878893E+02  1.250000000E+02  0.00000E+00  9.000E+00
      25     1     1     2     0     0 -1.165292171E+02 -6.482398379E+01  7.619875885E+02  7.836014882E+02  1.250000000E+02  0.00000E+00  9.000E+00
      21     1     1     2   502   512 -8.607096741E+01 -1.049692558E+02 -5.538684420E+01  1.466098858E+02  2.780414531E-06  0.00000E+00  9.000E+00
#rwgt            1           1   2.5671858158419276E-002           7      235305           0
</event>
<event>
      5   9999  3.79277E-02  3.15306E+01 -1.00000E+00  1.51554E-01
       1    -1     0     0   502     0  0.000000000E+00  0.000000000E+00  2.261598886E+03  2.261598886E+03  0.000000000E+00  0.00000E+00  9.000E+00
      21    -1     0     0   501   502  0.000000000E+00  0.000000000E+00 -5.208675921E+01  5.208675921E+01  0.000000000E+00  0.00000E+00  9.000E+00
      25     1     1     2     0     0  3.410799324E+01  1.336848707E+02  2.313557182E+02  2.969603815E+02  1.250000000E+02  0.00000E+00  9.000E+00
      25     1     1     2     0     0 -7.175411496E+00 -1.500804599E+02  4.804059122E+02  5.186429132E+02  1.250000000E+02  0.00000E+00  9.000E+00
       1     1     1     2   501     0 -2.693258174E+01  1.639558925E+01  1.497750497E+03  1.498082351E+03  0.000000000E+00  0.00000E+00  9.000E+00
#rwgt            1           1   3.7671435980214503E-002           7      235362           0
</event>
<event>
      5   9999  3.79277E-02  2.15495E+01 -1.00000E+00  1.63739E-01
      21    -1     0     0   502   501  0.000000000E+00  0.000000000E+00  2.517251320E+02  2.517251320E+02  0.000000000E+00  0.00000E+00  9.000E+00
      21    -1     0     0   501   511  0.000000000E+00  0.000000000E+00 -1.560730607E+02  1.560730607E+02  0.000000000E+00  0.00000E+00  9.000E+00
      25     1     1     2     0     0  6.146843264E+01 -1.047035882E+02 -1.280265651E+01  1.747286972E+02  1.250000000E+02  0.00000E+00  9.000E+00
      25     1     1     2     0     0 -8.298362150E+01  1.034876739E+02  1.072653038E+02  2.114871757E+02  1.250000000E+02  0.00000E+00  9.000E+00
      21     1     1     2   502   511  2.151518887E+01  1.215914365E+00  1.189424004E+00  2.158231983E+01  3.411031706E-07  0.00000E+00  9.000E+00
#rwgt            1           1   4.2393342863212072E-002           7      235482           0
</event>
<event>
      5   9999  3.79277E-02  8.61031E+00 -1.00000E+00  2.03582E-01
      21    -1     0     0   502   501  0.000000000E+00  0.000000000E+00  2.131017155E+02  2.131017155E+02  0.000000000E+00  0.00000E+00  9.000E+00
      21    -1     0     0   501   512  0.000000000E+00  0.000000000E+00 -5.762703148E+02  5.762703148E+02  0.000000000E+00  0.00000E+00  9.000E+00
      25     1     1     2     0     0  1.042904482E+02 -2.996545855E+02 -2.609377224E+02  4.293982571E+02  1.250000000E+02  0.00000E+00  9.000E+00
      25     1     1     2     0     0 -9.606234322E+01  2.971177091E+02 -9.774836749E+01  3.502665416E+02  1.250000000E+02  0.00000E+00  9.000E+00
      21     1     1     2   502   512 -8.228104996E+00  2.536876469E+00 -4.482509374E+00  9.707231548E+00  1.460009660E-07  0.00000E+00  9.000E+00
#rwgt            1           1   3.5928789702538412E-002           7      235708           0
</event>
<event>
      5   9999  3.79277E-02  3.98120E+01 -1.00000E+00  1.44967E-01
      21    -1     0     0   502   511  0.000000000E+00  0.000000000E+00  1.067535800E+02  1.067535800E+02  0.000000000E+00  0.00000E+00  9.000E+00
      21    -1     0     0   501   502  0.000000000E+00  0.000000000E+00 -7.897811321E+02  7.897811321E+02  0.000000000E+00  0.00000E+00  9.000E+00
      25     1     1     2     0     0  1.054848207E+02 -2.384751660E+01 -5.254283466E+01  1.734401941E+02  1.250000000E+02  0.00000E+00  9.000E+00
      25     1     1     2     0     0 -1.247347972E+02 -1.100117131E+01 -6.535549709E+02  6.770811587E+02  1.250000000E+02  0.00000E+00  9.000E+00
      21     1     1     2   501   511  1.924997654E+01  3.484868791E+01  2.307025348E+01  4.601335938E+01  3.371747881E-07  0.00000E+00  9.000E+00
#rwgt            1           1   4.7332541528736692E-002           7      236189           0
</event>
<event>
      5   9999  3.79277E-02  4.13704E+01 -1.00000E+00  1.43939E-01
      21    -1     0     0   502   501  0.000000000E+00  0.000000000E+00  3.079529550E+02  3.079529550E+02  0.000000000E+00  0.00000E+00  9.000E+00
      21    -1     0     0   512   502  0.000000000E+00  0.000000000E+00 -2.136460767E+02  2.136460767E+02  0.000000000E+00  0.00000E+00  9.000E+00
      25     1     1     2     0     0  2.441707570E+01 -1.269438173E+02 -1.042528494E+02  2.078571214E+02  1.250000000E+02  0.00000E+00  9.000E+00
      25     1     1     2     0     0 -5.978627182E+01  1.054839406E+02  2.080332347E+02  2.713007312E+02  1.250000000E+02  0.00000E+00  9.000E+00
      21     1     1     2   512   501  3.536919613E+01  2.145987666E+01 -9.473507055E+00  4.244117902E+01  8.344650269E-07  0.00000E+00  9.000E+00
#rwgt            1           1   4.6047505137746643E-002           7      236311           0
</event>
<event>
      5   9999  3.79277E-02  1.23804E+01 -1.00000E+00  1.85614E-01
      21    -1     0     0   511   501  0.000000000E+00  0.000000000E+00  2.475554276E+02  2.475554276E+02  0.000000000E+00  0.00000E+00  9.000E+00
      21    -1     0     0   501   502  0.000000000E+00  0.000000000E+00 -1.919975830E+02  1.919975830E+02  0.000000000E+00  0.00000E+00  9.000E+00
      25     1     1     2     0     0  3.398743057E+01 -1.625681807E+02  2.508552965E+01  2.093748853E+02  1.250000000E+02  0.00000E+00  9.000E+00
      25     1     1     2     0     0 -2.215970336E+01  1.662261017E+02  1.407415909E+01  2.096312269E+02  1.250000000E+02  0.00000E+00  9.000E+00
      21     1     1     2   511   502 -1.182772721E+01 -3.657921032E+00  1.639815586E+01  2.054689837E+01  3.371747881E-07  0.00000E+00  9.000E+00
#rwgt            1           1   3.5422723003784032E-002           7      236541           0
</event>
<event>
      5   9999  3.79277E-02  2.84574E+01 -1.00000E+00  1.54649E-01
      -3    -1     0     0     0   501  0.000000000E+00  0.000000000E+00  1.105923220E+02  1.105923220E+02  0.000000000E+00  0.00000E+00  9.000E+00
      21    -1     0     0   501   502  0.000000000E+00  0.000000000E+00 -1.342325666E+03  1.342325666E+03  0.000000000E+00  0.00000E+00  9.000E+00
      25     1     1     2     0     0  2.003248517E+02 -1.533794650E+02 -9.176727836E+02  9.598977259E+02  1.250000000E+02  0.00000E+00  9.000E+00
      25     1     1     2     0     0 -1.832334858E+02  1.761326586E+02 -3.480228140E+02  4.487116031E+02  1.250000000E+02  0.00000E+00  9.000E+00
      -3     1     1     2     0   502 -1.709136596E+01 -2.275319362E+01  3.396225339E+01  4.430865904E+01  8.259061849E-07  0.00000E+00  9.000E+00
#rwgt            1           1   3.2590201119636057E-002           7      236838           0
</event>
<event>
      5   9999  3.79277E-02  9.05903E+01 -1.00000E+00  1.25790E-01
      21    -1     0     0   511   501  0.000000000E+00  0.000000000E+00  4.041821654E+02  4.041821654E+02  0.000000000E+00  0.00000E+00  9.000E+00
      21    -1     0     0   501   502  0.000000000E+00  0.000000000E+00 -4.066016899E+02  4.066016899E+02  0.000000000E+00  0.00000E+00  9.000E+00
      25     1     1     2     0     0 -2.639996889E+02 -5.299245573E+01 -1.079647620E+02  3.158883124E+02  1.250000000E+02  0.00000E+00  9.000E+00
      25     1     1     2     0     0  2.506374482E+02  1.425918631E+02 -4.669878405E+01  3.177378578E+02  1.250000000E+02  0.00000E+00  9.000E+00
      21     1     1     2   511   502  1.336224065E+01 -8.959940737E+01  1.522440216E+02  1.771576851E+02  1.907348633E-06  0.00000E+00  9.000E+00
#rwgt            1           1   3.3185870810394751E-002           7      236980           0
</event>
<event>
      5   9999  3.79277E-02  1.07147E+01 -1.00000E+00  1.92354E-01
      21    -1     0     0   502   501  0.000000000E+00  0.000000000E+00  2.968375842E+02  2.968375842E+02  0.000000000E+00  0.00000E+00  9.000E+00
      21    -1     0     0   512   502  0.000000000E+00  0.000000000E+00 -1.073761462E+03  1.073761462E+03  0.000000000E+00  0.00000E+00  9.000E+00
      25     1     1     2     0     0 -1.102188532E+02 -3.137273969E+02 -4.153007438E+02  5.465096366E+02  1.250000000E+02  0.00000E+00  9.000E+00
      25     1     1     2     0     0  1.167902370E+02  3.221903229E+02  8.725777924E+01  3.750806362E+02  1.250000000E+02  0.00000E+00  9.000E+00
      21     1     1     2   512   501 -6.571383790E+00 -8.462926001E+00 -4.488809136E+02  4.490087736E+02  5.394796609E-06  0.00000E+00  9.000E+00
#rwgt            1           1   3.5881578921535887E-002           7      237146           0
</event>
<event>
      5   9999  3.79277E-02  9.14513E+01 -1.00000E+00  1.25599E-01
      21    -1     0     0   502   511  0.000000000E+00  0.000000000E+00  2.239126351E+02  2.239126351E+02  0.000000000E+00  0.00000E+00  9.000E+00
      21    -1     0     0   501   502  0.000000000E+00  0.000000000E+00 -5.196807599E+02  5.196807599E+02  0.000000000E+00  0.00000E+00  9.000E+00
      25     1     1     2     0     0  5.105662984E+01  2.185999089E+02 -8.444789590E+01  2.704609893E+02  1.250000000E+02  0.00000E+00  9.000E+00
      25     1     1     2     0     0  1.168071068E+01 -2.851383637E+02 -2.198074306E+02  3.812881220E+02  1.250000000E+02  0.00000E+00  9.000E+00
      21     1     1     2   501   511 -6.273734053E+01  6.653845474E+01  8.487201732E+00  9.184428370E+01  1.651812370E-06  0.00000E+00  9.000E+00
#rwgt            1           1   3.8527483822202717E-002           7      237428           0
</event>
<event>
      5   9999  3.79277E-02  1.90808E+02 -1.00000E+00  1.12397E-01
      21    -1     0     0   512   501  0.000000000E+00  0.000000000E+00  6.567191154E+02  6.567191154E+02  0.000000000E+00  0.00000E+00  9.000E+00
      21    -1     0     0   501   502  0.000000000E+00  0.000000000E+00 -1.166832967E+03  1.166832967E+03  0.000000000E+00  0.00000E+00  9.000E+00
      25     1     1     2     0     0  1.066968704E+02  7.721443896E+01 -2.233231643E+02  2.878272528E+02  1.250000000E+02  0.00000E+00  9.000E+00
      25     1     1     2     0     0 -2.884259752E+02 -1.905764399E+01 -8.683342605E+02  9.236785831E+02  1.250000000E+02  0.00000E+00  9.000E+00
      21     1     1     2   512   502  1.817291048E+02 -5.815679497E+01  5.815435732E+02  6.120462465E+02  7.629394531E-06  0.00000E+00  9.000E+00
#rwgt            1           1   3.1062202941306148E-002           7      237654           0
</event>
<event>
      5   9999  3.79277E-02  7.82022E+01 -1.00000E+00  1.28829E-01
      21    -1     0     0   502   511  0.000000000E+00  0.000000000E+00  1.463531732E+03  1.463531732E+03  0.000000000E+00  0.00000E+00  9.000E+00
      21    -1     0     0   501   502  0.000000000E+00  0.000000000E+00 -1.700249947E+02  1.700249947E+02  0.000000000E+00  0.00000E+00  9.000E+00
      25     1     1     2     0     0  7.693863933E+01  1.120085953E+02 -1.796796233E+01  1.855082944E+02  1.250000000E+02  0.00000E+00  9.000E+00
      25     1     1     2     0     0  1.238911996E+00 -1.139710295E+02  3.955307187E+01  1.737250009E+02  1.250000000E+02  0.00000E+00  9.000E+00
      21     1     1     2   501   511 -7.817755133E+01  1.962434194E+00  1.271921627E+03  1.274323431E+03  1.525878906E-05  0.00000E+00  9.000E+00
#rwgt            1           1   3.8701431728423968E-002           7      237745           0
</event>
<event>
      5   9999  3.79277E-02  1.94495E+01 -1.00000E+00  1.67376E-01
      21    -1     0     0   502   501  0.000000000E+00  0.000000000E+00  8.486768724E+01  8.486768724E+01  0.000000000E+00  0.00000E+00  9.000E+00
      21    -1     0     0   501   512  0.000000000E+00  0.000000000E+00 -1.137519086E+03  1.137519086E+03  0.000000000E+00  0.00000E+00  9.000E+00
      25     1     1     2     0     0  1.462036572E+01 -2.511704516E+02 -5.036122341E+02  5.766720326E+02  1.250000000E+02  0.00000E+00  9.000E+00
      25     1     1     2     0     0 -9.974654955E+00  2.700569237E+02 -4.177986859E+02  5.130409123E+02  1.250000000E+02  0.00000E+00  9.000E+00
      21     1     1     2   502   512 -4.645710769E+00 -1.888647203E+01 -1.312404784E+02  1.326738280E+02  0.000000000E+00  0.00000E+00  9.000E+00
#rwgt            1           1   3.5315080516662482E-002           7      237826           0
</event>
<event>
      5   9999  3.79277E-02  1.90907E+02 -1.00000E+00  1.12389E-01
      21    -1     0     0   511   501  0.000000000E+00  0.000000000E+00  4.880629181E+02  4.880629181E+02  0.000000000E+00  0.00000E+00  9.000E+00
      21    -1     0     0   501   502  0.000000000E+00  0.000000000E+00 -2.956270519E+02  2.956270519E+02  0.000000000E+00  0.00000E+00  9.000E+00
      25     1     1     2     0     0  7.054246313E+01 -1.641630897E+02 -1.180635827E+02  2.479713062E+02  1.250000000E+02  0.00000E+00  9.000E+00
      25     1     1     2     0     0  9.284944057E+01  6.542772405E+01 -2.702346993E+00  1.689204202E+02  1.250000000E+02  0.00000E+00  9.000E+00
      21     1     1     2   511   502 -1.633919037E+02  9.873536567E+01  3.132017958E+02  3.667982436E+02  3.814697266E-06  0.00000E+00  9.000E+00
#rwgt            2          11   1.9279429629412189E-003           7      237928           0
</event>
<event>
      5   9999  3.79277E-02  7.19235E+01 -1.00000E+00  1.30627E-01
      21    -1     0     0   502   501  0.000000000E+00  0.000000000E+00  1.066248302E+02  1.066248302E+02  0.000000000E+00  0.00000E+00  9.000E+00
      21    -1     0     0   501   512  0.000000000E+00  0.000000000E+00 -5.170826245E+02  5.170826245E+02  0.000000000E+00  0.00000E+00  9.000E+00
      25     1     1     2     0     0 -4.424927760E+01  1.460050038E+02 -2.115214971E+02  2.892089270E+02  1.250000000E+02  0.00000E+00  9.000E+00
      25     1     1     2     0     0 -2.692410467E+01 -1.356447327E+02 -9.812601330E+01  2.106611388E+02  1.250000000E+02  0.00000E+00  9.000E+00
      21     1     1     2   502   512  7.117338226E+01 -1.036027117E+01 -1.008102839E+02  1.238373889E+02  0.000000000E+00  0.00000E+00  9.000E+00
#rwgt            1           1  0.13112187842274303                7      238023           0
</event>
<event>
      5   9999  3.79277E-02  9.17186E+01 -1.00000E+00  1.25540E-01
      21    -1     0     0   502   511  0.000000000E+00  0.000000000E+00  1.813179157E+02  1.813179157E+02  0.000000000E+00  0.00000E+00  9.000E+00
      21    -1     0     0   501   502  0.000000000E+00  0.000000000E+00 -1.134201673E+03  1.134201673E+03  0.000000000E+00  0.00000E+00  9.000E+00
      25     1     1     2     0     0 -7.738194999E+01  1.942733735E+02  3.648486475E+01  2.463458041E+02  1.250000000E+02  0.00000E+00  9.000E+00
      25     1     1     2     0     0  3.612952486E+01 -1.123554933E+02 -9.563719883E+02  9.717003033E+02  1.250000000E+02  0.00000E+00  9.000E+00
      21     1     1     2   501   511  4.125242513E+01 -8.191788022E+01 -3.299663360E+01  9.747348105E+01  1.348699152E-06  0.00000E+00  9.000E+00
#rwgt            1           1   4.2335103771831743E-002           7      238113           0
</event>
<event>
      5   9999  3.79277E-02  4.04878E+01 -1.00000E+00  1.44514E-01
      21    -1     0     0   502   512  0.000000000E+00  0.000000000E+00  8.541536510E+02  8.541536510E+02  0.000000000E+00  0.00000E+00  9.000E+00
      21    -1     0     0   501   502  0.000000000E+00  0.000000000E+00 -2.823921916E+02  2.823921916E+02  0.000000000E+00  0.00000E+00  9.000E+00
      25     1     1     2     0     0  3.772928019E+02  1.592210263E+02  4.870970268E+02  6.485288792E+02  1.250000000E+02  0.00000E+00  9.000E+00
      25     1     1     2     0     0 -3.595488430E+02 -1.956134736E+02  4.334436211E+01  4.301671016E+02  1.250000000E+02  0.00000E+00  9.000E+00
      21     1     1     2   501   512 -1.774395885E+01  3.639244730E+01  4.132007051E+01  5.784986191E+01  0.000000000E+00  0.00000E+00  9.000E+00
#rwgt            1           1  0.15367277725604847                7      238227           0
</event>
<event>
      5   9999  3.79277E-02  2.28697E+01 -1.00000E+00  1.61704E-01
      21    -1     0     0   502   511  0.000000000E+00  0.000000000E+00  8.100520347E+02  8.100520347E+02  0.000000000E+00  0.00000E+00  9.000E+00
      21    -1     0     0   501   502  0.000000000E+00  0.000000000E+00 -8.288359044E+01  8.288359044E+01  0.000000000E+00  0.00000E+00  9.000E+00
      25     1     1     2     0     0  1.887056694E+02  2.662722949E+01  4.451244034E+02  5.000795672E+02  1.250000000E+02  0.00000E+00  9.000E+00
      25     1     1     2     0     0 -2.086405290E+02 -3.783541411E+01  2.338873621E+02  3.395448233E+02  1.250000000E+02  0.00000E+00  9.000E+00
      21     1     1     2   501   511  1.993485956E+01  1.120818462E+01  4.815667864E+01  5.331123452E+01  9.536743164E-07  0.00000E+00  9.000E+00
#rwgt            1           1  0.22675815114221284                7      238349           0
</event>
<event>
      5   9999  3.79277E-02  4.07629E+01  7.55638E-03  1.44333E-01
      -1    -1     0     0     0   501  0.000000000E+00  0.000000000E+00  3.174542490E+01  3.174542490E+01  0.000000000E+00  0.00000E+00  9.000E+00
       1    -1     0     0   502     0  0.000000000E+00  0.000000000E+00 -1.341353796E+03  1.341353796E+03  0.000000000E+00  0.00000E+00  9.000E+00
      25     1     1     2     0     0 -9.436458444E+01 -9.796024367E+01 -7.200056768E+02  7.433263474E+02  1.250000000E+02  0.00000E+00  9.000E+00
      25     1     1     2     0     0  5.846101332E+01  7.865884444E+01 -5.517026357E+02  5.741129698E+02  1.250000000E+02  0.00000E+00  9.000E+00
      21     1     1     2   502   501  3.590357111E+01  1.930139924E+01 -3.790005852E+01  5.565990359E+01  8.259061849E-07  0.00000E+00  9.000E+00
#rwgt            3           5   9.2675981317829598E-005           7      238491           0
</event>
<event>
      5   9999  3.79277E-02  9.90169E+01 -1.00000E+00  1.24021E-01
       2    -1     0     0   502     0  0.000000000E+00  0.000000000E+00  7.299002573E+02  7.299002573E+02  0.000000000E+00  0.00000E+00  9.000E+00
      21    -1     0     0   501   502  0.000000000E+00  0.000000000E+00 -7.450027315E+02  7.450027315E+02  0.000000000E+00  0.00000E+00  9.000E+00
      25     1     1     2     0     0 -1.610469405E+02  9.983085343E+01 -3.555446781E+02  4.218285605E+02  1.250000000E+02  0.00000E+00  9.000E+00
      25     1     1     2     0     0  2.013137362E+02 -1.902903888E+02 -2.869152924E+02  4.179509989E+02  1.250000000E+02  0.00000E+00  9.000E+00
       2     1     1     2   501     0 -4.026679571E+01  9.045953541E+01  6.273574963E+02  6.351234294E+02  0.000000000E+00  0.00000E+00  9.000E+00
#rwgt            1           1   2.4806059629364434E-002           7      238525           0
</event>
<event>
      5   9999 -3.79277E-02  5.98394E+01 -1.00000E+00  1.34766E-01
      21    -1     0     0   502   501  0.000000000E+00  0.000000000E+00  1.203014615E+02  1.203014615E+02  0.000000000E+00  0.00000E+00  9.000E+00
      21    -1     0     0   511   502  0.000000000E+00  0.000000000E+00 -5.860103131E+02  5.860103131E+02  0.000000000E+00  0.00000E+00  9.000E+00
      25     1     1     2     0     0  1.502529549E+02  4.627526542E+01 -2.814422437E+02  3.457630506E+02  1.250000000E+02  0.00000E+00  9.000E+00
      25     1     1     2     0     0 -1.971814995E+02 -9.147532627E+00 -9.312430923E+01  2.515181069E+02  1.250000000E+02  0.00000E+00  9.000E+00
      21     1     1     2   511   501  4.692854465E+01 -3.712773279E+01 -9.114229868E+01  1.090306170E+02  1.348699152E-06  0.00000E+00  9.000E+00
#rwgt            1           1 -0.12076561431542354                7      238820           0
</event>
<event>
      5   9999  3.79277E-02  4.59548E+01 -1.00000E+00  1.41199E-01
      21    -1     0     0   502   501  0.000000000E+00  0.000000000E+00  1.476206992E+02  1.476206992E+02  0.000000000E+00  0.00000E+00  9.000E+00
      -1    -1     0     0     0   502  0.000000000E+00  0.000000000E+00 -8.262018281E+02  8.262018281E+02  0.000000000E+00  0.00000E+00  9.000E+00
      25     1     1     2     0     0 -1.875621514E+02 -1.487629444E+02 -4.506495242E+01  2.737988754E+02  1.250000000E+02  0.00000E+00  9.000E+00
      25     1     1     2     0     0  1.440917088E+02  1.636682599E+02 -5.200380258E+02  5.775935146E+02  1.250000000E+02  0.00000E+00  9.000E+00
      -1     1     1     2     0   501  4.347044258E+01 -1.490531545E+01 -1.134781507E+02  1.224301372E+02  1.348699152E-06  0.00000E+00  9.000E+00
#rwgt            1           1   3.2727499548841125E-002           7      238898           0
</event>
<event>
      5   9999  3.79277E-02  2.37600E+01 -1.00000E+00  1.60424E-01
      21    -1     0     0   502   501  0.000000000E+00  0.000000000E+00  6.031792814E+01  6.031792814E+01  0.000000000E+00  0.00000E+00  9.000E+00
      21    -1     0     0   501   511  0.000000000E+00  0.000000000E+00 -2.071273609E+03  2.071273609E+03  0.000000000E+00  0.00000E+00  9.000E+00
      25     1     1     2     0     0  5.271487649E+01 -2.853438565E+02 -7.927012475E+02  8.533464961E+02  1.250000000E+02  0.00000E+00  9.000E+00
      25     1     1     2     0     0 -3.995166700E+01  2.653029045E+02 -7.072332509E+02  7.666717929E+02  1.250000000E+02  0.00000E+00  9.000E+00
      21     1     1     2   502   511 -1.276320950E+01  2.004095198E+01 -5.110211827E+02  5.115732484E+02  9.344061824E-06  0.00000E+00  9.000E+00
#rwgt            2          11   3.8519325111883361E-004           7      239076           0
</event>
<event>
      5   9999 -3.79277E-02  3.57406E+01 -1.00000E+00  1.47939E-01
      21    -1     0     0   502   512  0.000000000E+00  0.000000000E+00  6.380254520E+01  6.380254520E+01  0.000000000E+00  0.00000E+00  9.000E+00
      21    -1     0     0   501   502  0.000000000E+00  0.000000000E+00 -1.140205483E+03  1.140205483E+03  0.000000000E+00  0.00000E+00  9.000E+00
      25     1     1     2     0     0 -4.935322414E+01 -1.491788991E+02 -6.819927930E+02  7.109354783E+02  1.250000000E+02  0.00000E+00  9.000E+00
      25     1     1     2     0     0  2.230570681E+01  1.725417785E+02 -4.029218471E+02  4.563323622E+02  1.250000000E+02  0.00000E+00  9.000E+00
      21     1     1     2   501   512  2.704751733E+01 -2.336287939E+01  8.511702180E+00  3.674018782E+01  1.410503336E-06  0.00000E+00  9.000E+00
#rwgt            1           1 -0.20277998460979552                7      239126           0
</event>
<event>
      5   9999  3.79277E-02  1.31511E+01 -1.00000E+00  1.82940E-01
      21    -1     0     0   502   511  0.000000000E+00  0.000000000E+00  2.747080734E+01  2.747080734E+01  0.000000000E+00  0.00000E+00  9.000E+00
      21    -1     0     0   501   502  0.000000000E+00  0.000000000E+00 -2.064628076E+03  2.064628076E+03  0.000000000E+00  0.00000E+00  9.000E+00
      25     1     1     2     0     0 -1.221989026E+02  2.583412366E+01 -1.680370537E+03  1.689636090E+03  1.250000000E+02  0.00000E+00  9.000E+00
      25     1     1     2     0     0  1.135263074E+02 -3.572032507E+01 -3.381847093E+02  3.796815267E+02  1.250000000E+02  0.00000E+00  9.000E+00
      21     1     1     2   501   511  8.672595170E+00  9.886201409E+00 -1.860202158E+01  2.278126625E+01  3.371747881E-07  0.00000E+00  9.000E+00
#rwgt            1           1   9.7290870676874946E-002           7      239293           0
</event>
<event>
      5   9999  3.79277E-02  5.50484E+01 -1.00000E+00  1.36733E-01
      21    -1     0     0   502   501  0.000000000E+00  0.000000000E+00  2.788056142E+02  2.788056142E+02  0.000000000E+00  0.00000E+00  9.000E+00
       2    -1     0     0   501     0  0.000000000E+00  0.000000000E+00 -6.906075034E+02  6.906075034E+02  0.000000000E+00  0.00000E+00  9.000E+00
      25     1     1     2     0     0  2.458053896E+01 -5.437511366E+01 -3.152851205E+01  1.420559853E+02  1.250000000E+02  0.00000E+00  9.000E+00
      25     1     1     2     0     0  2.591015766E+01  7.630723421E+01  1.973505111E+02  2.471160750E+02  1.250000000E+02  0.00000E+00  9.000E+00
       2     1     1     2   502     0 -5.049069662E+01 -2.193212055E+01 -5.776238883E+02  5.802410574E+02  0.000000000E+00  0.00000E+00  9.000E+00
#rwgt            1           1   4.5984505613134934E-002           7      239545           0
</event>
<event>
      5   9999  3.79277E-02  6.24952E+01 -1.00000E+00  1.33765E-01
      21    -1     0     0   502   511  0.000000000E+00  0.000000000E+00  2.319465230E+02  2.319465230E+02  0.000000000E+00  0.00000E+00  9.000E+00
      21    -1     0     0   501   502  0.000000000E+00  0.000000000E+00 -3.785072842E+02  3.785072842E+02  0.000000000E+00  0.00000E+00  9.000E+00
      25     1     1     2     0     0  1.045566944E+02  1.689186124E+02 -2.311392472E+02  3.294175945E+02  1.250000000E+02  0.00000E+00  9.000E+00
      25     1     1     2     0     0 -5.486220795E+01 -1.310225672E+02  1.854808669E+01  1.901205052E+02  1.250000000E+02  0.00000E+00  9.000E+00
      21     1     1     2   501   511 -4.969448647E+01 -3.789604521E+01  6.603039941E+01  9.091570752E+01  2.132480600E-06  0.00000E+00  9.000E+00
#rwgt            1           1   4.3281314785484963E-002           7      239645           0
</event>
<event>
      5   9999  3.79277E-02  8.10566E+01 -1.00000E+00  1.28074E-01
      21    -1     0     0   502   501  0.000000000E+00  0.000000000E+00  4.840586068E+02  4.840586068E+02  0.000000000E+00  0.00000E+00  9.000E+00
      21    -1     0     0   501   512  0.000000000E+00  0.000000000E+00 -1.591396215E+02  1.591396215E+02  0.000000000E+00  0.00000E+00  9.000E+00
      25     1     1     2     0     0  1.626311243E+02 -3.589149487E+01  2.776651144E+02  3.470734760E+02  1.250000000E+02  0.00000E+00  9.000E+00
      25     1     1     2     0     0 -1.217956296E+02  1.059103569E+02  6.280481021E+01  2.135898483E+02  1.250000000E+02  0.00000E+00  9.000E+00
      21     1     1     2   502   512 -4.083549470E+01 -7.001886205E+01 -1.555093939E+01  8.253490404E+01  6.529361695E-07  0.00000E+00  9.000E+00
#rwgt            1           1   3.9346443173351849E-002           7      239808           0
</event>
<event>
      5   9999  3.79277E-02  6.83883E+01 -1.00000E+00  1.31735E-01
      21    -1     0     0   511   501  0.000000000E+00  0.000000000E+00  4.142993191E+02  4.142993191E+02  0.000000000E+00  0.00000E+00  9.000E+00
      21    -1     0     0   501   502  0.000000000E+00  0.000000000E+00 -4.496754655E+02  4.496754655E+02  0.000000000E+00  0.00000E+00  9.000E+00
      25     1     1     2     0     0  1.277192701E+02  1.130383164E+02 -7.239264329E+01  2.235074221E+02  1.250000000E+02  0.00000E+00  9.000E+00
      25     1     1     2     0     0 -7.928307818E+01 -6.475898596E+01 -2.761379810E+02  3.199323637E+02  1.250000000E+02  0.00000E+00  9.000E+00
      21     1     1     2   511   502 -4.843619193E+01 -4.827933047E+01  3.131544779E+02  3.205349988E+02  6.607249480E-06  0.00000E+00  9.000E+00
#rwgt            1           1   4.6908949547170065E-002           7      239881           0
</event>
<event>
      5   9999  3.79277E-02  4.26814E+01 -1.00000E+00  1.43114E-01
      21    -1     0     0   502   501  0.000000000E+00  0.000000000E+00  2.945547838E+02  2.945547838E+02  0.000000000E+00  0.00000E+00  9.000E+00
      21    -1     0     0   512   502  0.000000000E+00  0.000000000E+00 -2.624712004E+02  2.624712004E+02  0.000000000E+00  0.00000E+00  9.000E+00
      25     1     1     2     0     0 -1.425060270E+02 -8.420464737E+01  1.524204198E+02  2.574011942E+02  1.250000000E+02  0.00000E+00  9.000E+00
      25     1     1     2     0     0  1.688775948E+02  5.064514106E+01 -5.746318710E+01  2.236327127E+02  1.250000000E+02  0.00000E+00  9.000E+00
      21     1     1     2   512   501 -2.637156775E+01  3.355950631E+01 -6.287364923E+01  7.599207733E+01  6.743495762E-07  0.00000E+00  9.000E+00
#rwgt            1           1   3.0951935022895439E-002           7      239967           0
</event>
<event>
      5   9999  3.79277E-02  5.16000E+01 -1.00000E+00  1.38299E-01
      21    -1     0     0   502   501  0.000000000E+00  0.000000000E+00  1.243126241E+03  1.243126241E+03  0.000000000E+00  0.00000E+00  9.000E+00
      21    -1     0     0   511   502  0.000000000E+00  0.000000000E+00 -7.264029993E+01  7.264029993E+01  0.000000000E+00  0.00000E+00  9.000E+00
      25     1     1     2     0     0 -4.838841121E+01 -1.671274990E+02  4.448204990E+02  4.937239265E+02  1.250000000E+02  0.00000E+00  9.000E+00
      25     1     1     2     0     0  9.367027141E+01  1.423866213E+02  7.390958454E+02  7.687234472E+02  1.250000000E+02  0.00000E+00  9.000E+00
      21     1     1     2   511   501 -4.528186020E+01  2.474087775E+01 -1.343040303E+01  5.331916748E+01  1.488923549E-06  0.00000E+00  9.000E+00
#rwgt            1           1   4.9537873068469004E-002           7      240120           0
</event>
<event>
      5   9999  3.79277E-02  1.87680E+02 -1.00000E+00  1.12663E-01
      21    -1     0     0   502   512  0.000000000E+00  0.000000000E+00  9.034738908E+02  9.034738908E+02  0.000000000E+00  0.00000E+00  9.000E+00
      21    -1     0     0   501   502  0.000000000E+00  0.000000000E+00 -1.191467100E+02  1.191467100E+02  0.000000000E+00  0.00000E+00  9.000E+00
      25     1     1     2     0     0  1.367963947E+02 -1.712853233E+01  1.730698928E+02  2.541354521E+02  1.250000000E+02  0.00000E+00  9.000E+00
      25     1     1     2     0     0 -8.316777907E+01  1.969830419E+02  2.070135343E+02  3.227983917E+02  1.250000000E+02  0.00000E+00  9.000E+00
      21     1     1     2   501   512 -5.362861561E+01 -1.798545096E+02  4.042437537E+02  4.456867570E+02  5.394796609E-06  0.00000E+00  9.000E+00
#rwgt            2          11   1.4977354296739167E-003           7      240339           0
</event>
<event>
      5   9999  3.79277E-02  2.23344E+01 -1.00000E+00  1.62508E-01
      21    -1     0     0   502   501  0.000000000E+00  0.000000000E+00  3.157051521E+02  3.157051521E+02  0.000000000E+00  0.00000E+00  9.000E+00
      21    -1     0     0   511   502  0.000000000E+00  0.000000000E+00 -2.124491153E+02  2.124491153E+02  0.000000000E+00  0.00000E+00  9.000E+00
      25     1     1     2     0     0 -1.721638223E+02 -9.084119547E+01  1.374654013E+02  2.690989429E+02  1.250000000E+02  0.00000E+00  9.000E+00
      25     1     1     2     0     0  1.639417373E+02  1.116070663E+02 -3.029798599E+01  2.363810450E+02  1.250000000E+02  0.00000E+00  9.000E+00
      21     1     1     2   511   501  8.222084968E+00 -2.076587081E+01 -3.911378534E+00  2.267427956E+01  1.519626234E-07  0.00000E+00  9.000E+00
#rwgt            1           1   2.7797038837823838E-002           7      240359           0
</event>
<event>
      5   9999  3.79277E-02  3.08719E+01 -1.00000E+00  1.52181E-01
      21    -1     0     0   512   501  0.000000000E+00  0.000000000E+00  5.477726702E+02  5.477726702E+02  0.000000000E+00  0.00000E+00  9.000E+00
      21    -1     0     0   501   502  0.000000000E+00  0.000000000E+00 -2.381589387E+02  2.381589387E+02  0.000000000E+00  0.00000E+00  9.000E+00
      25     1     1     2     0     0 -1.629263929E+02 -7.220853460E+01 -1.408740104E+02  2.592866537E+02  1.250000000E+02  0.00000E+00  9.000E+00
      25     1     1     2     0     0  1.926928878E+02  6.402143127E+01  3.672463842E+02  4.378632199E+02  1.250000000E+02  0.00000E+00  9.000E+00
      21     1     1     2   512   502 -2.976649485E+01  8.187103338E+00  8.324135770E+01  8.878173522E+01  0.000000000E+00  0.00000E+00  9.000E+00
#rwgt            1           1   3.0309190848825780E-002           7      240577           0
</event>
<event>
      5   9999  3.79277E-02  5.74227E+01 -1.00000E+00  1.35730E-01
      21    -1     0     0   502   501  0.000000000E+00  0.000000000E+00  1.639535628E+02  1.639535628E+02  0.000000000E+00  0.00000E+00  9.000E+00
      21    -1     0     0   511   502  0.000000000E+00  0.000000000E+00 -4.959326081E+02  4.959326081E+02  0.000000000E+00  0.00000E+00  9.000E+00
      25     1     1     2     0     0 -1.201736281E+02  8.324797417E+01  3.218369232E+01  1.950197840E+02  1.250000000E+02  0.00000E+00  9.000E+00
      25     1     1     2     0     0  1.772444476E+02 -7.690075209E+01 -3.086983565E+02  3.850311613E+02  1.250000000E+02  0.00000E+00  9.000E+00
      21     1     1     2   511   501 -5.707081949E+01 -6.347222080E+00 -5.546438119E+01  7.983522560E+01  6.743495762E-07  0.00000E+00  9.000E+00
#rwgt            1           1   2.1426265415041397E-002           7      240750           0
</event>
<event>
      5   9999  3.79277E-02  4.08136E+01 -1.00000E+00  1.44300E-01
      21    -1     0     0   512   501  0.000000000E+00  0.000000000E+00  9.887553004E+02  9.887553004E+02  0.000000000E+00  0.00000E+00  9.000E+00
      21    -1     0     0   501   502  0.000000000E+00  0.000000000E+00 -6.473997161E+01  6.473997161E+01  0.000000000E+00  0.00000E+00  9.000E+00
      25     1     1     2     0     0  6.341676621E+01 -8.986170435E-02  3.664519794E+02  3.923439148E+02  1.250000000E+02  0.00000E+00  9.000E+00
      25     1     1     2     0     0 -1.040368893E+02 -3.879472451E+00  7.898870689E+01  1.808395434E+02  1.250000000E+02  0.00000E+00  9.000E+00
      21     1     1     2   512   502  4.062012305E+01  3.969334155E+00  4.785746425E+02  4.803118138E+02  5.394796609E-06  0.00000E+00  9.000E+00
#rwgt            1           1   3.3845840856766063E-002           7      240894           0
</event>
<event>
      5   9999  3.79277E-02  2.64870E+01 -1.00000E+00  1.56894E-01
      21    -1     0     0   502   501  0.000000000E+00  0.000000000E+00  6.061940809E+02  6.061940809E+02  0.000000000E+00  0.00000E+00  9.000E+00
      21    -1     0     0   511   502  0.000000000E+00  0.000000000E+00 -1.040363930E+02  1.040363930E+02  0.000000000E+00  0.00000E+00  9.000E+00
      25     1     1     2     0     0 -6.139966694E+01 -7.394866411E+01  4.808603850E+02  5.060533903E+02  1.250000000E+02  0.00000E+00  9.000E+00
      25     1     1     2     0     0  8.717970963E+01  8.002745812E+01  3.318831753E+00  1.721647771E+02  1.250000000E+02  0.00000E+00  9.000E+00
      21     1     1     2   511   501 -2.578004270E+01 -6.078794011E+00  1.797847121E+01  3.201230646E+01  3.371747881E-07  0.00000E+00  9.000E+00
#rwgt            1           1   3.8175588969057629E-002           7      241053           0
</event>
<event>
      5   9999  3.79277E-02  6.34992E+01 -1.00000E+00  1.33401E-01
      21    -1     0     0   512   501  0.000000000E+00  0.000000000E+00  1.885192493E+03  1.885192493E+03  0.000000000E+00  0.00000E+00  9.000E+00
      21    -1     0     0   501   502  0.000000000E+00  0.000000000E+00 -4.784271849E+01  4.784271849E+01  0.000000000E+00  0.00000E+00  9.000E+00
      25     1     1     2     0     0 -1.923561003E+02  4.692988925E+01  9.442164200E+02  9.728170083E+02  1.250000000E+02  0.00000E+00  9.000E+00
      25     1     1     2     0     0  1.959747837E+02  1.646611580E+01  3.993320797E+02  4.623509043E+02  1.250000000E+02  0.00000E+00  9.000E+00
      21     1     1     2   512   502 -3.618683433E+00 -6.339600505E+01  4.938012751E+02  4.978672992E+02  7.629394531E-06  0.00000E+00  9.000E+00
#rwgt            1           1   3.3717405970154775E-002           7      241273           0
</event>
<event>
      5   9999  3.79277E-02  1.33341E+02 -1.00000E+00  1.18457E-01
      21    -1     0     0   511   501  0.000000000E+00  0.000000000E+00  3.898653236E+02  3.898653236E+02  0.000000000E+00  0.00000E+00  9.000E+00
      21    -1     0     0   501   502  0.000000000E+00  0.000000000E+00 -5.415976358E+02  5.415976358E+02  0.000000000E+00  0.00000E+00  9.000E+00
      25     1     1     2     0     0 -2.812876265E+02  5.378000211E+01 -4.043775927E+02  5.110393869E+02  1.250000000E+02  0.00000E+00  9.000E+00
      25     1     1     2     0     0  1.502047196E+02 -2.934227326E+01  1.143038989E+02  2.282822991E+02  1.250000000E+02  0.00000E+00  9.000E+00
      21     1     1     2   511   502  1.310829070E+02 -2.443772885E+01  1.383413816E+02  1.921412734E+02  3.303624740E-06  0.00000E+00  9.000E+00
#rwgt            1           1   2.3588879129893998E-002           7      241351           0
</event>
<event>
      5   9999  3.79277E-02  1.21953E+01 -1.00000E+00  1.86294E-01
      21    -1     0     0   512   501  0.000000000E+00  0.000000000E+00  3.969687651E+02  3.969687651E+02  0.000000000E+00  0.00000E+00  9.000E+00
      21    -1     0     0   501   502  0.000000000E+00  0.000000000E+00 -1.309808043E+02  1.309808043E+02  0.000000000E+00  0.00000E+00  9.000E+00
      25     1     1     2     0     0 -8.484565746E+01 -8.311377979E+01  2.094434916E+02  2.712899964E+02  1.250000000E+02  0.00000E+00  9.000E+00
      25     1     1     2     0     0  9.220261310E+01  7.338752637E+01 -2.553584080E+01  1.736782371E+02  1.250000000E+02  0.00000E+00  9.000E+00
      21     1     1     2   512   502 -7.356955647E+00  9.726253424E+00  8.208030999E+01  8.298133580E+01  1.907348633E-06  0.00000E+00  9.000E+00
#rwgt            1           1   2.5967581957295833E-002           7      241508           0
</event>
<event>
      5   9999  3.79277E-02  1.09596E+02 -1.00000E+00  1.22064E-01
      21    -1     0     0   502   501  0.000000000E+00  0.000000000E+00  1.896092212E+02  1.896092212E+02  0.000000000E+00  0.00000E+00  9.000E+00
      21    -1     0     0   511   502  0.000000000E+00  0.000000000E+00 -4.330674897E+02  4.330674897E+02  0.000000000E+00  0.00000E+00  9.000E+00
      25     1     1     2     0     0 -8.643931579E+01  1.469603877E+02 -1.591544051E+02  2.646209279E+02  1.250000000E+02  0.00000E+00  9.000E+00
      25     1     1     2     0     0  1.752076449E+02 -8.268374076E+01 -2.106496859E+01  2.315233309E+02  1.250000000E+02  0.00000E+00  9.000E+00
      21     1     1     2   511   501 -8.876832914E+01 -6.427664690E+01 -6.323889488E+01  1.265324520E+02  1.507891493E-06  0.00000E+00  9.000E+00
#rwgt            2          11   2.7540051631292817E-003           7      241778           0
</event>
<event>
      5   9999  3.79277E-02  2.00962E+01 -1.00000E+00  1.66197E-01
      21    -1     0     0   502   501  0.000000000E+00  0.000000000E+00  6.856515016E+02  6.856515016E+02  0.000000000E+00  0.00000E+00  9.000E+00
      -1    -1     0     0     0   502  0.000000000E+00  0.000000000E+00 -8.445006661E+01  8.445006661E+01  0.000000000E+00  0.00000E+00  9.000E+00
      25     1     1     2     0     0  4.408726256E+00 -7.978534847E+01  5.609903454E+02  5.802760604E+02  1.250000000E+02  0.00000E+00  9.000E+00
      25     1     1     2     0     0 -1.764915114E+01  9.490319526E+01  5.230622674E+01  1.663702208E+02  1.250000000E+02  0.00000E+00  9.000E+00
      -1     1     1     2     0   501  1.324042488E+01 -1.511784679E+01 -1.209513718E+01  2.345528695E+01  6.529361695E-07  0.00000E+00  9.000E+00
#rwgt            1           1   4.6565024178904083E-002           7      241963           0
</event>
<event>
      5   9999  3.79277E-02  1.19603E+02 -1.00000E+00  1.20429E-01
      21    -1     0     0   502   501  0.000000000E+00  0.000000000E+00  4.428686994E+01  4.428686994E+01  0.000000000E+00  0.00000E+00  9.000E+00
      21    -1     0     0   501   511  0.000000000E+00  0.000000000E+00 -1.908161454E+03  1.908161454E+03  0.000000000E+00  0.00000E+00  9.000E+00
      25     1     1     2     0     0  1.746190877E+00  1.627499149E+02 -4.102675498E+02  4.587319984E+02  1.250000000E+02  0.00000E+00  9.000E+00
      25     1     1     2     0     0  9.740598893E+01 -9.586317797E+01 -5.105632330E+02  5.431183024E+02  1.250000000E+02  0.00000E+00  9.000E+00
      21     1     1     2   502   511 -9.915217981E+01 -6.688673688E+01 -9.430438014E+02  9.505980232E+02  1.525878906E-05  0.00000E+00  9.000E+00
#rwgt            1           1   3.9680382951557423E-002           7      242161           0
</event>
<event>
      5   9999  3.79277E-02  3.13523E+01 -1.00000E+00  1.51722E-01
      21    -1     0     0   502   501  0.000000000E+00  0.000000000E+00  3.619869545E+02  3.619869545E+02  0.000000000E+00  0.00000E+00  9.000E+00
      21    -1     0     0   512   502  0.000000000E+00  0.000000000E+00 -1.617956846E+02  1.617956846E+02  0.000000000E+00  0.00000E+00  9.000E+00
      25     1     1     2     0     0 -2.371733654E+01  4.407281126E+01  1.774309177E+02  2.227367399E+02  1.250000000E+02  0.00000E+00  9.000E+00
      25     1     1     2     0     0  5.388310059E+01 -5.261635360E+01  1.262160175E+02  1.929439097E+02  1.250000000E+02  0.00000E+00  9.000E+00
      21     1     1     2   512   501 -3.016576406E+01  8.543542338E+00 -1.034556654E+02  1.081019895E+02  1.907348633E-06  0.00000E+00  9.000E+00
#rwgt            1           1   4.3573462360380837E-002           7      242300           0
</event>
<event>
      5   9999  3.79277E-02  6.63715E+01 -1.00000E+00  1.32402E-01
       2    -1     0     0   502     0  0.000000000E+00  0.000000000E+00  2.306561694E+03  2.306561694E+03  0.000000000E+00  0.00000E+00  9.000E+00
      21    -1     0     0   501   502  0.000000000E+00  0.000000000E+00 -4.598263878E+01  4.598263878E+01  0.000000000E+00  0.00000E+00  9.000E+00
      25     1     1     2     0     0 -7.824608762E+01 -3.443432780E+01  4.375416473E+02  4.630074149E+02  1.250000000E+02  0.00000E+00  9.000E+00
      25     1     1     2     0     0  1.214971920E+02 -1.590966454E+01  2.026099822E+02  2.677507983E+02  1.250000000E+02  0.00000E+00  9.000E+00
       2     1     1     2   501     0 -4.325110441E+01  5.034399234E+01  1.620427426E+03  1.621786120E+03  0.000000000E+00  0.00000E+00  9.000E+00
#rwgt            1           1   4.4873347705899354E-002           7      242348           0
</event>
<event>
      5   9999  3.79277E-02  1.03753E+02 -1.00000E+00  1.23113E-01
      21    -1     0     0   502   501  0.000000000E+00  0.000000000E+00  6.797874811E+01  6.797874811E+01  0.000000000E+00  0.00000E+00  9.000E+00
       5    -1     0     0   501     0  0.000000000E+00  0.000000000E+00 -2.420933134E+03  2.420933134E+03  0.000000000E+00  0.00000E+00  9.000E+00
      25     1     1     2     0     0 -1.013430156E+02  1.971684499E+02 -3.208758888E+02  4.095511451E+02  1.250000000E+02  0.00000E+00  9.000E+00
      25     1     1     2     0     0  1.313810277E+02 -9.785899298E+01 -4.621652245E+02  5.060227778E+02  1.250000000E+02  0.00000E+00  9.000E+00
       5     1     1     2   502     0 -3.003801209E+01 -9.930945689E+01 -1.569913273E+03  1.573337959E+03  0.000000000E+00  0.00000E+00  9.000E+00
#rwgt            1           1   3.5299732297864081E-002           7      242488           0
</event>
<event>
      5   9999  3.79277E-02  3.08457E+01 -1.00000E+00  1.52206E-01
       2    -1     0     0   502     0  0.000000000E+00  0.000000000E+00  2.039206590E+02  2.039206590E+02  0.000000000E+00  0.00000E+00  9.000E+00
      21    -1     0     0   501   502  0.000000000E+00  0.000000000E+00 -1.094210851E+03  1.094210851E+03  0.000000000E+00  0.00000E+00  9.000E+00
      25     1     1     2     0     0 -1.704632711E+02 -3.424541676E+01 -4.701315394E+02  5.166034647E+02  1.250000000E+02  0.00000E+00  9.000E+00
      25     1     1     2     0     0  1.578624493E+02  6.239991589E+01 -5.808407605E+02  6.179120418E+02  1.250000000E+02  0.00000E+00  9.000E+00
       2     1     1     2   501     0  1.260082177E+01 -2.815449913E+01  1.606821083E+02  1.636160031E+02  2.697398305E-06  0.00000E+00  9.000E+00
#rwgt            1           1   3.9274869929242749E-002           7      242743           0
</event>
<event>
      5   9999  3.79277E-02  1.52982E+02 -1.00000E+00  1.16056E-01
      21    -1     0     0   511   501  0.000000000E+00  0.000000000E+00  3.940134938E+02  3.940134938E+02  0.000000000E+00  0.00000E+00  9.000E+00
      21    -1     0     0   501   502  0.000000000E+00  0.000000000E+00 -3.409450340E+02  3.409450340E+02  0.000000000E+00  0.00000E+00  9.000E+00
      25     1     1     2     0     0  8.569090288E+01 -5.538793808E+01 -2.134338571E+02  2.675626392E+02  1.250000000E+02  0.00000E+00  9.000E+00
      25     1     1     2     0     0 -1.478923480E+02 -8.437758084E+01  2.255793015E+02  3.090351825E+02  1.250000000E+02  0.00000E+00  9.000E+00
      21     1     1     2   511   502  6.220144514E+01  1.397655189E+02  4.092301533E+01  1.583607061E+02  9.536743164E-07  0.00000E+00  9.000E+00
#rwgt            1           1   3.9086081098707967E-002           7      242829           0
</event>
<event>
      5   9999  3.79277E-02  4.76536E+01 -1.00000E+00  1.40277E-01
      21    -1     0     0   502   501  0.000000000E+00  0.000000000E+00  3.255986778E+02  3.255986778E+02  0.000000000E+00  0.00000E+00  9.000E+00
      21    -1     0     0   501   512  0.000000000E+00  0.000000000E+00 -2.098749645E+02  2.098749645E+02  0.000000000E+00  0.00000E+00  9.000E+00
      25     1     1     2     0     0 -3.393625097E+01  2.693308100E+01  7.122202926E+01  1.502485855E+02  1.250000000E+02  0.00000E+00  9.000E+00
      25     1     1     2     0     0  4.835028408E+01  1.848833264E+01  1.893616879E+02  2.327282047E+02  1.250000000E+02  0.00000E+00  9.000E+00
      21     1     1     2   502   512 -1.441403311E+01 -4.542141364E+01 -1.448600039E+02  1.524968521E+02  0.000000000E+00  0.00000E+00  9.000E+00
#rwgt            1           1   3.2213957853664606E-002           7      242940           0
</event>
<event>
      5   9999  3.79277E-02  1.65729E+01 -1.00000E+00  1.73398E-01
      21    -1     0     0   502   501  0.000000000E+00  0.000000000E+00  3.154031827E+01  3.154031827E+01  0.000000000E+00  0.00000E+00  9.000E+00
       1    -1     0     0   501     0  0.000000000E+00  0.000000000E+00 -2.601629921E+03  2.601629921E+03  0.000000000E+00  0.00000E+00  9.000E+00
      25     1     1     2     0     0  4.508166597E+01  3.928247702E+00 -2.345215050E+03  2.348979868E+03  1.250000000E+02  0.00000E+00  9.000E+00
      25     1     1     2     0     0 -5.190195483E+01  1.117626068E+01 -1.304098427E+02  1.882828957E+02  1.250000000E+02  0.00000E+00  9.000E+00
       1     1     1     2   502     0  6.820288869E+00 -1.510450838E+01 -9.446470919E+01  9.590747518E+01  0.000000000E+00  0.00000E+00  9.000E+00
#rwgt            1           1   6.7656514580036381E-002           7      243005           0
</event>
<event>
      5   9999  3.79277E-02  1.73443E+01 -1.00000E+00  1.71641E-01
      21    -1     0     0   502   501  0.000000000E+00  0.000000000E+00  2.019511366E+02  2.019511366E+02  0.000000000E+00  0.00000E+00  9.000E+00
      21    -1     0     0   501   511  0.000000000E+00  0.000000000E+00 -2.397309772E+02  2.397309772E+02  0.000000000E+00  0.00000E+00  9.000E+00
      25     1     1     2     0     0  4.004951560E+01  4.303608864E+01 -1.238804406E+02  1.855463074E+02  1.250000000E+02  0.00000E+00  9.000E+00
      25     1     1     2     0     0 -3.891139482E+01 -6.034304926E+01  1.391290883E+02  2.003429146E+02  1.250000000E+02  0.00000E+00  9.000E+00
      21     1     1     2   502   511 -1.138120787E+00  1.730696062E+01 -5.302848821E+01  5.579289172E+01  1.168007728E-06  0.00000E+00  9.000E+00
#rwgt            1           1   4.0746575639700161E-002           7      243329           0
</event>
<event>
      5   9999  3.79277E-02  3.46728E+01 -1.00000E+00  1.48798E-01
      21    -1     0     0   502   512  0.000000000E+00  0.000000000E+00  3.868825650E+02  3.868825650E+02  0.000000000E+00  0.00000E+00  9.000E+00
      21    -1     0     0   501   502  0.000000000E+00  0.000000000E+00 -3.631237843E+02  3.631237843E+02  0.000000000E+00  0.00000E+00  9.000E+00
      25     1     1     2     0     0 -4.688217554E+01  1.317054001E+02  1.346011062E+02  2.308391400E+02  1.250000000E+02  0.00000E+00  9.000E+00
      25     1     1     2     0     0  1.419280455E+01 -1.201464288E+02 -2.891904530E+02  3.374799522E+02  1.250000000E+02  0.00000E+00  9.000E+00
      21     1     1     2   501   512  3.268937099E+01 -1.155897124E+01  1.783481275E+02  1.816872571E+02  2.697398305E-06  0.00000E+00  9.000E+00
#rwgt            1           1   2.6881646106711853E-002           7      243490           0
</event>
<event>
      5   9999  3.79277E-02  2.12591E+01 -1.00000E+00  1.64211E-01
      21    -1     0     0   502   501  0.000000000E+00  0.000000000E+00  1.276791104E+03  1.276791104E+03  0.000000000E+00  0.00000E+00  9.000E+00
      21    -1     0     0   501   511  0.000000000E+00  0.000000000E+00 -5.036396863E+02  5.036396863E+02  0.000000000E+00  0.00000E+00  9.000E+00
      25     1     1     2     0     0 -5.996513484E+01  1.726735200E+02  8.293062430E+02  8.583622817E+02  1.250000000E+02  0.00000E+00  9.000E+00
      25     1     1     2     0     0  6.993942550E+01 -1.538995393E+02  4.071756416E+02  4.582505805E+02  1.250000000E+02  0.00000E+00  9.000E+00
      21     1     1     2   502   511 -9.974290656E+00 -1.877398078E+01 -4.633304669E+02  4.638179281E+02  0.000000000E+00  0.00000E+00  9.000E+00
#rwgt            1           1  0.21447360280103689                7      243622           0
</event>
<event>
      5   9999  3.79277E-02  3.36577E+01 -1.00000E+00  1.49649E-01
      21    -1     0     0   512   501  0.000000000E+00  0.000000000E+00  2.176852269E+01  2.176852269E+01  0.000000000E+00  0.00000E+00  9.000E+00
      21    -1     0     0   501   502  0.000000000E+00  0.000000000E+00 -3.233200272E+03  3.233200272E+03  0.000000000E+00  0.00000E+00  9.000E+00
      25     1     1     2     0     0  2.152490789E+01 -1.735253301E+02 -1.774939419E+03  1.787906402E+03  1.250000000E+02  0.00000E+00  9.000E+00
      25     1     1     2     0     0 -1.819064801E+01  2.070174967E+02 -1.381222197E+03  1.402350491E+03  1.250000000E+02  0.00000E+00  9.000E+00
      21     1     1     2   512   502 -3.334259879E+00 -3.349216652E+01 -5.527013409E+01  6.471190176E+01  2.023048729E-06  0.00000E+00  9.000E+00
#rwgt            1           1   2.8068748769450969E-002           7      243766           0
</event>
<event>
      5   9999  3.79277E-02  2.70709E+01 -1.00000E+00  1.56205E-01
      21    -1     0     0   502   511  0.000000000E+00  0.000000000E+00  2.405146683E+02  2.405146683E+02  0.000000000E+00  0.00000E+00  9.000E+00
      21    -1     0     0   501   502  0.000000000E+00  0.000000000E+00 -3.157178870E+02  3.157178870E+02  0.000000000E+00  0.00000E+00  9.000E+00
      25     1     1     2     0     0  1.810412203E+01 -1.514192484E+02  1.155631525E+02  2.285506295E+02  1.250000000E+02  0.00000E+00  9.000E+00
      25     1     1     2     0     0  7.705154569E+00  1.595871063E+02 -2.118917424E+02  2.933436967E+02  1.250000000E+02  0.00000E+00  9.000E+00
      21     1     1     2   501   511 -2.580927660E+01 -8.167857898E+00  2.112537127E+01  3.433822902E+01  4.768371582E-07  0.00000E+00  9.000E+00
#rwgt            1           1   3.6426979053574997E-002           7      243911           0
</event>
<event>
      5   9999 -3.79277E-02  1.75743E+01 -1.00000E+00  1.71139E-01
      21    -1     0     0   502   512  0.000000000E+00  0.000000000E+00  6.529707129E+02  6.529707129E+02  0.000000000E+00  0.00000E+00  9.000E+00
      21    -1     0     0   501   502  0.000000000E+00  0.000000000E+00 -1.181959593E+02  1.181959593E+02  0.000000000E+00  0.00000E+00  9.000E+00
      25     1     1     2     0     0 -2.197929569E+02 -8.079669001E+01  2.169715322E+02  3.428391675E+02  1.250000000E+02  0.00000E+00  9.000E+00
      25     1     1     2     0     0  2.272999302E+02  6.490642719E+01  2.830574120E+02  3.893900372E+02  1.250000000E+02  0.00000E+00  9.000E+00
      21     1     1     2   501   512 -7.506973322E+00  1.589026282E+01  3.474580949E+01  3.893746753E+01  0.000000000E+00  0.00000E+00  9.000E+00
#rwgt            1           1  -5.3329640288431811E-002           7      244061           0
</event>
<event>
      5   9999  3.79277E-02  1.12954E+02 -1.00000E+00  1.21494E-01
      21    -1     0     0   511   501  0.000000000E+00  0.000000000E+00  4.618315771E+02  4.618315771E+02  0.000000000E+00  0.00000E+00  9.000E+00
      21    -1     0     0   501   502  0.000000000E+00  0.000000000E+00 -2.401676469E+02  2.401676469E+02  0.000000000E+00  0.00000E+00  9.000E+00
      25     1     1     2     0     0 -1.408672566E+02 -6.809684835E+01  7.849756166E+01  2.150991212E+02  1.250000000E+02  0.00000E+00  9.000E+00
      25     1     1     2     0     0  2.362642285E+02  1.285781888E+02 -9.771908239E+00  2.967720110E+02  1.250000000E+02  0.00000E+00  9.000E+00
      21     1     1     2   511   502 -9.539697194E+01 -6.048134047E+01  1.529382767E+02  1.901280918E+02  0.000000000E+00  0.00000E+00  9.000E+00
#rwgt            1           1   3.6380907470133124E-002           7      244319           0
</event>
<event>
      5   9999 -3.79277E-02  3.45084E+01 -1.00000E+00  1.48933E-01
       2    -1     0     0   502     0  0.000000000E+00  0.000000000E+00  1.427780868E+03  1.427780868E+03  0.000000000E+00  0.00000E+00  9.000E+00
      21    -1     0     0   501   502  0.000000000E+00  0.000000000E+00 -3.420235173E+01  3.420235173E+01  0.000000000E+00  0.00000E+00  9.000E+00
      25     1     1     2     0     0 -9.046365905E+01  5.051701924E+01  6.263771058E+02  6.470772145E+02  1.250000000E+02  0.00000E+00  9.000E+00
      25     1     1     2     0     0  1.078979599E+02 -2.073656107E+01  2.745849213E+02  3.210823161E+02  1.250000000E+02  0.00000E+00  9.000E+00
       2     1     1     2   501     0 -1.743430087E+01 -2.978045817E+01  4.926164892E+02  4.938236891E+02  7.629394531E-06  0.00000E+00  9.000E+00
#rwgt            1           1  -4.9715268539527069E-002           7      244478           0
</event>
<event>
      5   9999  3.79277E-02  2.89281E+01 -1.00000E+00  1.54146E-01
      21    -1     0     0   511   501  0.000000000E+00  0.000000000E+00  2.251747443E+02  2.251747443E+02  0.000000000E+00  0.00000E+00  9.000E+00
      21    -1     0     0   501   502  0.000000000E+00  0.000000000E+00 -1.198874732E+03  1.198874732E+03  0.000000000E+00  0.00000E+00  9.000E+00
      25     1     1     2     0     0  4.140907399E+01  2.227507445E+02 -1.893535306E+02  3.206436731E+02  1.250000000E+02  0.00000E+00  9.000E+00
      25     1     1     2     0     0 -7.019554566E+01 -2.256094340E+02 -9.234328457E+02  9.613429419E+02  1.250000000E+02  0.00000E+00  9.000E+00
      21     1     1     2   511   502  2.878647167E+01  2.858689543E+00  1.390863886E+02  1.420628613E+02  1.907348633E-06  0.00000E+00  9.000E+00
#rwgt            1           1   3.4748022400964210E-002           7      244600           0
</event>
<event>
      5   9999  3.79277E-02  1.21971E+02 -1.00000E+00  1.20069E-01
      21    -1     0     0   502   501  0.000000000E+00  0.000000000E+00  1.553006955E+03  1.553006955E+03  0.000000000E+00  0.00000E+00  9.000E+00
      21    -1     0     0   501   512  0.000000000E+00  0.000000000E+00 -3.651147191E+02  3.651147191E+02  0.000000000E+00  0.00000E+00  9.000E+00
      25     1     1     2     0     0 -7.140555197E+01  3.491741234E+01  1.188484206E+03  1.197680127E+03  1.250000000E+02  0.00000E+00  9.000E+00
      25     1     1     2     0     0  1.933717696E+02 -3.594849267E+01  3.093823111E+02  3.873336415E+02  1.250000000E+02  0.00000E+00  9.000E+00
      21     1     1     2   502   512 -1.219662176E+02  1.031080325E+00 -3.099742815E+02  3.331079053E+02  7.629394531E-06  0.00000E+00  9.000E+00
#rwgt            1           1   3.2757303103554597E-002           7      244999           0
</event>
<event>
      5   9999  3.79277E-02  3.10035E+01 -1.00000E+00  1.52054E-01
       2    -1     0     0   502     0  0.000000000E+00  0.000000000E+00  9.180152360E+02  9.180152360E+02  0.000000000E+00  0.00000E+00  9.000E+00
      21    -1     0     0   501   502  0.000000000E+00  0.000000000E+00 -1.476593431E+02  1.476593431E+02  0.000000000E+00  0.00000E+00  9.000E+00
      25     1     1     2     0     0  4.484744463E+01  1.738587617E+02  5.320523477E+02  5.752763362E+02  1.250000000E+02  0.00000E+00  9.000E+00
      25     1     1     2     0     0 -6.473570162E+01 -1.500749134E+02 -4.063964287E+01  2.097373864E+02  1.250000000E+02  0.00000E+00  9.000E+00
       2     1     1     2   501     0  1.988825699E+01 -2.378384829E+01  2.789431881E+02  2.806608565E+02  5.394796609E-06  0.00000E+00  9.000E+00
#rwgt            1           1   1.6828007743085058E-002           7      245085           0
</event>
<event>
      5   9999  3.79277E-02  1.44890E+01 -1.00000E+00  1.78813E-01
      21    -1     0     0   502   501  0.000000000E+00  0.000000000E+00  2.513790869E+02  2.513790869E+02  0.000000000E+00  0.00000E+00  9.000E+00
      21    -1     0     0   511   502  0.000000000E+00  0.000000000E+00 -5.457115532E+02  5.457115532E+02  0.000000000E+00  0.00000E+00  9.000E+00
      25     1     1     2     0     0 -9.773224712E+01 -6.251398833E+01  2.004225700E+02  2.631611624E+02  1.250000000E+02  0.00000E+00  9.000E+00
      25     1     1     2     0     0  8.801847426E+01  5.176342949E+01 -3.183380546E+02  3.569185082E+02  1.250000000E+02  0.00000E+00  9.000E+00
      21     1     1     2   511   501  9.713772858E+00  1.075055884E+01 -1.764169816E+02  1.770109695E+02  1.907348633E-06  0.00000E+00  9.000E+00
#rwgt            1           1   2.7131797824436411E-002           7      245301           0
</event>
<event>
      5   9999  3.79277E-02  1.33529E+01 -1.00000E+00  1.82279E-01
      21    -1     0     0   512   501  0.000000000E+00  0.000000000E+00  8.699870159E+02  8.699870159E+02  0.000000000E+00  0.00000E+00  9.000E+00
      21    -1     0     0   501   502  0.000000000E+00  0.000000000E+00 -9.868841516E+01  9.868841516E+01  0.000000000E+00  0.00000E+00  9.000E+00
      25     1     1     2     0     0  1.703344464E+02 -2.632504586E+00  2.617386194E+02  3.363820129E+02  1.250000000E+02  0.00000E+00  9.000E+00
      25     1     1     2     0     0 -1.666506640E+02 -1.020219271E+01  1.162939820E+02  2.388007931E+02  1.250000000E+02  0.00000E+00  9.000E+00
      21     1     1     2   512   502 -3.683782416E+00  1.283469730E+01  3.932659994E+02  3.934926250E+02  7.629394531E-06  0.00000E+00  9.000E+00
#rwgt            1           1   3.1395126437509344E-002           7      245500           0
</event>
<event>
      5   9999  3.79277E-02  5.73043E+01 -1.00000E+00  1.35779E-01
      21    -1     0     0   511   501  0.000000000E+00  0.000000000E+00  2.464833016E+02  2.464833016E+02  0.000000000E+00  0.00000E+00  9.000E+00
      21    -1     0     0   501   502  0.000000000E+00  0.000000000E+00 -1.485750411E+02  1.485750411E+02  0.000000000E+00  0.00000E+00  9.000E+00
      25     1     1     2     0     0  5.193991493E+01 -4.177213444E+01  1.379745502E+02  1.977489380E+02  1.250000000E+02  0.00000E+00  9.000E+00
      25     1     1     2     0     0 -3.235996862E+00  1.157759175E+01 -5.649055655E+01  1.376978405E+02  1.250000000E+02  0.00000E+00  9.000E+00
      21     1     1     2   511   502 -4.870391807E+01  3.019454269E+01  1.642426688E+01  5.961156420E+01  4.129530925E-07  0.00000E+00  9.000E+00
#rwgt            2          11   2.0869572979388237E-003           7      245787           0
</event>
<event>
      5   9999  3.79277E-02  1.75389E+01 -1.00000E+00  1.71216E-01
      21    -1     0     0   502   512  0.000000000E+00  0.000000000E+00  1.136836169E+02  1.136836169E+02  0.000000000E+00  0.00000E+00  9.000E+00
      21    -1     0     0   501   502  0.000000000E+00  0.000000000E+00 -4.319958654E+02  4.319958654E+02  0.000000000E+00  0.00000E+00  9.000E+00
      25     1     1     2     0     0 -4.590658214E+00 -1.391377482E+02 -2.772146786E+02  3.344448611E+02  1.250000000E+02  0.00000E+00  9.000E+00
      25     1     1     2     0     0 -1.270374052E+01  1.420560228E+02 -3.823330314E+01  1.934633922E+02  1.250000000E+02  0.00000E+00  9.000E+00
      21     1     1     2   501   512  1.729439873E+01 -2.918274620E+00 -2.864266783E+00  1.777122895E+01  2.149076030E-07  0.00000E+00  9.000E+00
#rwgt            1           1   4.2962743100808623E-002           7      245852           0
</event>
<event>
      5   9999  3.79277E-02  9.52642E+00 -1.00000E+00  1.98225E-01
      -3    -1     0     0     0   501  0.000000000E+00  0.000000000E+00  3.440026124E+02  3.440026124E+02  0.000000000E+00  0.00000E+00  9.000E+00
      21    -1     0     0   501   502  0.000000000E+00  0.000000000E+00 -5.947629238E+02  5.947629238E+02  0.000000000E+00  0.00000E+00  9.000E+00
      25     1     1     2     0     0  2.408445514E+02  1.421033216E+01 -2.286027534E+02  3.550947062E+02  1.250000000E+02  0.00000E+00  9.000E+00
      25     1     1     2     0     0 -2.383034212E+02 -2.339157880E+01 -2.425752117E+02  3.630474072E+02  1.250000000E+02  0.00000E+00  9.000E+00
      -3     1     1     2     0   502 -2.541130203E+00  9.181246638E+00  2.204176538E+02  2.206234229E+02  3.814697266E-06  0.00000E+00  9.000E+00
#rwgt            1           1   2.0158786275670838E-002           7      246038           0
</event>
<event>
      5   9999  3.79277E-02  5.26090E+01 -1.00000E+00  1.37827E-01
      21    -1     0     0   502   501  0.000000000E+00  0.000000000E+00  2.314793388E+02  2.314793388E+02  0.000000000E+00  0.00000E+00  9.000E+00
       3    -1     0     0   501     0  0.000000000E+00  0.000000000E+00 -1.586268143E+03  1.586268143E+03  0.000000000E+00  0.00000E+00  9.000E+00
      25     1     1     2     0     0 -9.635996879E+01 -1.147125880E+02 -7.423900995E+02  7.676016423E+02  1.250000000E+02  0.00000E+00  9.000E+00
      25     1     1     2     0     0  6.347810484E+01  1.557794666E+02  1.676156823E+02  2.683593281E+02  1.250000000E+02  0.00000E+00  9.000E+00
       3     1     1     2   502     0  3.288186395E+01 -4.106687866E+01 -7.800143875E+02  7.817865119E+02  1.525878906E-05  0.00000E+00  9.000E+00
#rwgt            1           1   3.1676740565056601E-002           7      246386           0
</event>
<event>
      5   9999  3.79277E-02  2.15236E+01 -1.00000E+00  1.63781E-01
      21    -1     0     0   502   501  0.000000000E+00  0.000000000E+00  6.461711719E+01  6.461711719E+01  0.000000000E+00  0.00000E+00  9.000E+00
      21    -1     0     0   501   511  0.000000000E+00  0.000000000E+00 -1.489001762E+03  1.489001762E+03  0.000000000E+00  0.00000E+00  9.000E+00
      25     1     1     2     0     0  1.594800074E+01  1.062168880E+01 -3.911569911E+02  4.110911708E+02  1.250000000E+02  0.00000E+00  9.000E+00
      25     1     1     2     0     0 -3.516555460E+01 -9.288832230E-01 -2.276515505E+01  1.318360017E+02  1.250000000E+02  0.00000E+00  9.000E+00
      21     1     1     2   502   511  1.921755386E+01 -9.692805572E+00 -1.010462499E+03  1.010691707E+03  1.525878906E-05  0.00000E+00  9.000E+00
#rwgt            1           1   2.9257916136019892E-002           7      246518           0
</event>
<event>
      5   9999 -3.79277E-02  7.05396E+01 -1.00000E+00  1.31052E-01
      21    -1     0     0   512   501  0.000000000E+00  0.000000000E+00  7.841369671E+02  7.841369671E+02  0.000000000E+00  0.00000E+00  9.000E+00
      21    -1     0     0   501   502  0.000000000E+00  0.000000000E+00 -1.026703617E+02  1.026703617E+02  0.000000000E+00  0.00000E+00  9.000E+00
      25     1     1     2     0     0  1.950575544E+02  7.184272179E+01  1.791879855E+02  3.015661790E+02  1.250000000E+02  0.00000E+00  9.000E+00
      25     1     1     2     0     0 -1.768836516E+02 -3.684493349E+00  2.929261160E+02  3.643241841E+02  1.250000000E+02  0.00000E+00  9.000E+00
      21     1     1     2   512   502 -1.817390278E+01 -6.815822845E+01  2.093525038E+02  2.209169656E+02  0.000000000E+00  0.00000E+00  9.000E+00
#rwgt            1           1 -0.16544793397521690                7      246608           0
</event>
<event>
      5   9999  3.79277E-02  2.20425E+01 -1.00000E+00  1.62958E-01
      21    -1     0     0   511   501  0.000000000E+00  0.000000000E+00  1.097163181E+02  1.097163181E+02  0.000000000E+00  0.00000E+00  9.000E+00
      21    -1     0     0   501   502  0.000000000E+00  0.000000000E+00 -4.006511336E+02  4.006511336E+02  0.000000000E+00  0.00000E+00  9.000E+00
      25     1     1     2     0     0  1.421822362E+02 -4.166794949E+01 -1.766239839E+02  2.622461401E+02  1.250000000E+02  0.00000E+00  9.000E+00
      25     1     1     2     0     0 -1.361392885E+02  6.286597737E+01 -1.140161525E+02  2.260768011E+02  1.250000000E+02  0.00000E+00  9.000E+00
      21     1     1     2   511   502 -6.042947722E+00 -2.119802788E+01 -2.946791579E-01  2.204451040E+01  2.073484667E-07  0.00000E+00  9.000E+00
#rwgt            1           1   4.2587746756855817E-002           7      246693           0
</event>
<event>
      5   9999  3.79277E-02  1.71122E+01 -1.00000E+00  1.72158E-01
      21    -1     0     0   502   512  0.000000000E+00  0.000000000E+00  7.378082421E+02  7.378082421E+02  0.000000000E+00  0.00000E+00  9.000E+00
      21    -1     0     0   501   502  0.000000000E+00  0.000000000E+00 -4.896889762E+02  4.896889762E+02  0.000000000E+00  0.00000E+00  9.000E+00
      25     1     1     2     0     0 -3.527389128E+02  4.483827739E+02  2.192396979E+02  6.238292215E+02  1.250000000E+02  0.00000E+00  9.000E+00
      25     1     1     2     0     0  3.358194160E+02 -4.509434328E+02  7.165725068E+00  5.760217074E+02  1.250000000E+02  0.00000E+00  9.000E+00
      21     1     1     2   501   512  1.691949676E+01  2.560658938E+00  2.171384287E+01  2.764628939E+01  5.840038640E-07  0.00000E+00  9.000E+00
#rwgt            1           1   4.8617371822413658E-002           7      246877           0
</event>
<event>
      5   9999  3.79277E-02  4.57592E+01 -1.00000E+00  1.41308E-01
      21    -1     0     0   502   501  0.000000000E+00  0.000000000E+00  1.089754536E+02  1.089754536E+02  0.000000000E+00  0.00000E+00  9.000E+00
       1    -1     0     0   501     0  0.000000000E+00  0.000000000E+00 -5.751843648E+02  5.751843648E+02  0.000000000E+00  0.00000E+00  9.000E+00
      25     1     1     2     0     0 -1.074098405E+02  7.246987197E+01 -8.682194615E+01  1.998794800E+02  1.250000000E+02  0.00000E+00  9.000E+00
      25     1     1     2     0     0  8.564479187E+01 -1.127214121E+02 -1.265470646E+02  2.273330303E+02  1.250000000E+02  0.00000E+00  9.000E+00
       1     1     1     2   502     0  2.176504865E+01  4.025154018E+01 -2.528399005E+02  2.569473080E+02  5.394796609E-06  0.00000E+00  9.000E+00
#rwgt            1           1   4.8646888489678658E-002           7      247162           0
</event>
<event>
      5   9999  3.79277E-02  2.02716E+01 -1.00000E+00  1.65887E-01
      21    -1     0     0   502   511  0.000000000E+00  0.000000000E+00  5.998395693E+02  5.998395693E+02  0.000000000E+00  0.00000E+00  9.000E+00
      21    -1     0     0   501   502  0.000000000E+00  0.000000000E+00 -1.385691215E+02  1.385691215E+02  0.000000000E+00  0.00000E+00  9.000E+00
      25     1     1     2     0     0  8.019249984E+00 -8.706810373E+01  3.292424195E+02  3.628646220E+02  1.250000000E+02  0.00000E+00  9.000E+00
      25     1     1     2     0     0  8.409743892E+00  7.519275259E+01 -7.725497088E+01  1.652815911E+02  1.250000000E+02  0.00000E+00  9.000E+00
      21     1     1     2   501   511 -1.642899388E+01  1.187535114E+01  2.092829991E+02  2.102624777E+02  3.814697266E-06  0.00000E+00  9.000E+00
#rwgt            1           1   3.6918738580209477E-002           7      247293           0
</event>
<event>
      5   9999  3.79277E-02  7.47731E+01 -1.00000E+00  1.29786E-01
       2    -1     0     0   502     0  0.000000000E+00  0.000000000E+00  1.243134053E+02  1.243134053E+02  0.000000000E+00  0.00000E+00  9.000E+00
      21    -1     0     0   501   502  0.000000000E+00  0.000000000E+00 -1.282385099E+03  1.282385099E+03  0.000000000E+00  0.00000E+00  9.000E+00
      25     1     1     2     0     0 -2.628255725E+01 -1.589490798E+02 -5.997602469E+02  6.334768635E+02  1.250000000E+02  0.00000E+00  9.000E+00
      25     1     1     2     0     0  3.871163877E+00  8.761359908E+01 -6.426314094E+02  6.605234719E+02  1.250000000E+02  0.00000E+00  9.000E+00
       2     1     1     2   501     0  2.241139337E+01  7.133548077E+01  8.431996210E+01  1.126981694E+02  1.651812370E-06  0.00000E+00  9.000E+00
#rwgt            1           1   4.3892512125805271E-002           7      247554           0
</event>
<event>
      5   9999  3.79277E-02  2.48354E+01 -1.00000E+00  1.58966E-01
       1    -1     0     0   502     0  0.000000000E+00  0.000000000E+00  5.899671158E+02  5.899671158E+02  0.000000000E+00  0.00000E+00  9.000E+00
      21    -1     0     0   501   502  0.000000000E+00  0.000000000E+00 -1.151891119E+02  1.151891119E+02  0.000000000E+00  0.00000E+00  9.000E+00
      25     1     1     2     0     0 -4.916885191E+00 -7.169004149E+01  1.030864300E+02  1.772440404E+02  1.250000000E+02  0.00000E+00  9.000E+00
      25     1     1     2     0     0  1.508834565E+01  9.434696805E+01  1.958816825E+00  1.573462599E+02  1.250000000E+02  0.00000E+00  9.000E+00
       1     1     1     2   501     0 -1.017146046E+01 -2.265692656E+01  3.697327570E+02  3.705659274E+02  0.000000000E+00  0.00000E+00  9.000E+00
#rwgt            1           1   4.6308141024582458E-002           7      247623           0
</event>
<event>
      5   9999  3.79277E-02  4.94856E+01 -1.00000E+00  1.39332E-01
      21    -1     0     0   511   501  0.000000000E+00  0.000000000E+00  3.117912447E+02  3.117912447E+02  0.000000000E+00  0.00000E+00  9.000E+00
      21    -1     0     0   501   502  0.000000000E+00  0.000000000E+00 -6.594905508E+02  6.594905508E+02  0.000000000E+00  0.00000E+00  9.000E+00
      25     1     1     2     0     0 -5.069406370E+01  1.054773048E+02 -5.809918457E+02  6.056994921E+02  1.250000000E+02  0.00000E+00  9.000E+00
      25     1     1     2     0     0  8.205859746E+01 -6.720084896E+01  4.372985361E+01  1.696669314E+02  1.250000000E+02  0.00000E+00  9.000E+00
      21     1     1     2   511   502 -3.136453376E+01 -3.827645587E+01  1.895626860E+02  1.959153720E+02  3.814697266E-06  0.00000E+00  9.000E+00
#rwgt            1           1   2.9544700929570778E-002           7      247757           0
</event>
<event>
      5   9999 -3.79277E-02  9.07460E+01 -1.00000E+00  1.25755E-01
      21    -1     0     0   502   501  0.000000000E+00  0.000000000E+00  9.230210387E+02  9.230210387E+02  0.000000000E+00  0.00000E+00  9.000E+00
      21    -1     0     0   501   512  0.000000000E+00  0.000000000E+00 -7.104441172E+01  7.104441172E+01  0.000000000E+00  0.00000E+00  9.000E+00
      25     1     1     2     0     0 -1.864785136E+02  7.407945638E+01  3.185950025E+02  3.967238051E+02  1.250000000E+02  0.00000E+00  9.000E+00
      25     1     1     2     0     0  9.727503308E+01 -5.741909784E+01  4.171058205E+02  4.498462519E+02  1.250000000E+02  0.00000E+00  9.000E+00
      21     1     1     2   502   512  8.920348056E+01 -1.666035854E+01  1.162758039E+02  1.474953934E+02  3.303624740E-06  0.00000E+00  9.000E+00
#rwgt            1           1 -0.15353449825635529                7      247875           0
</event>
<event>
      5   9999  3.79277E-02  1.89610E+01 -1.00000E+00  1.68304E-01
      21    -1     0     0   511   501  0.000000000E+00  0.000000000E+00  1.358307620E+02  1.358307620E+02  0.000000000E+00  0.00000E+00  9.000E+00
      21    -1     0     0   501   502  0.000000000E+00  0.000000000E+00 -1.969326139E+03  1.969326139E+03  0.000000000E+00  0.00000E+00  9.000E+00
      25     1     1     2     0     0  6.154007637E+00 -2.291179084E+02 -1.157452451E+03  1.186530263E+03  1.250000000E+02  0.00000E+00  9.000E+00
      25     1     1     2     0     0 -2.311754814E+01  2.375889397E+02 -7.736303891E+02  8.192141993E+02  1.250000000E+02  0.00000E+00  9.000E+00
      21     1     1     2   511   502  1.696354050E+01 -8.471031316E+00  9.758746321E+01  9.941243913E+01  4.264961200E-06  0.00000E+00  9.000E+00
#rwgt            1           1   3.2150888429296892E-002           7      248067           0
</event>
<event>
      5   9999 -3.79277E-02  4.20275E+01 -1.00000E+00  1.43521E-01
      21    -1     0     0   502   501  0.000000000E+00  0.000000000E+00  4.994658950E+01  4.994658950E+01  0.000000000E+00  0.00000E+00  9.000E+00
      21    -1     0     0   501   512  0.000000000E+00  0.000000000E+00 -1.387149677E+03  1.387149677E+03  0.000000000E+00  0.00000E+00  9.000E+00
      25     1     1     2     0     0  1.636519356E+02 -1.487981840E+02 -5.849517473E+02  6.377432103E+02  1.250000000E+02  0.00000E+00  9.000E+00
      25     1     1     2     0     0 -1.219893654E+02  1.432715143E+02 -5.906742090E+02  6.323995203E+02  1.250000000E+02  0.00000E+00  9.000E+00
      21     1     1     2   502   512 -4.166257018E+01  5.526669659E+00 -1.615771317E+02  1.669535364E+02  2.697398305E-06  0.00000E+00  9.000E+00
#rwgt            1           1  -4.7445794807829171E-002           7      248243           0
</event>
<event>
      5   9999  3.79277E-02  2.53836E+01 -1.00000E+00  1.58257E-01
       2    -1     0     0   502     0  0.000000000E+00  0.000000000E+00  2.144789816E+03  2.144789816E+03  0.000000000E+00  0.00000E+00  9.000E+00
      21    -1     0     0   501   502  0.000000000E+00  0.000000000E+00 -7.391929465E+01  7.391929465E+01  0.000000000E+00  0.00000E+00  9.000E+00
      25     1     1     2     0     0  1.765220923E+02  8.819162868E+01  3.359725362E+02  4.091947672E+02  1.250000000E+02  0.00000E+00  9.000E+00
      25     1     1     2     0     0 -1.946172463E+02 -7.039020341E+01  3.557466700E+02  4.301294532E+02  1.250000000E+02  0.00000E+00  9.000E+00
       2     1     1     2   501     0  1.809515398E+01 -1.780142527E+01  1.379151316E+03  1.379384891E+03  2.157918644E-05  0.00000E+00  9.000E+00
#rwgt            1           1   9.1827107766156865E-002           7      248309           0
</event>
<event>
      5   9999  3.79277E-02  6.80322E+00 -1.00000E+00  2.17319E-01
      21    -1     0     0   502   501  0.000000000E+00  0.000000000E+00  1.403919290E+02  1.403919290E+02  0.000000000E+00  0.00000E+00  9.000E+00
      21    -1     0     0   501   511  0.000000000E+00  0.000000000E+00 -2.333195695E+02  2.333195695E+02  0.000000000E+00  0.00000E+00  9.000E+00
      25     1     1     2     0     0  3.942634035E+01  9.343552509E+01  3.556887880E+01  1.648477443E+02  1.250000000E+02  0.00000E+00  9.000E+00
      25     1     1     2     0     0 -4.154157275E+01 -8.696949159E+01 -1.237045274E+02  2.005422769E+02  1.250000000E+02  0.00000E+00  9.000E+00
      21     1     1     2   502   511  2.115232400E+00 -6.466033500E+00 -4.791991955E+00  8.321477286E+00  1.685873940E-07  0.00000E+00  9.000E+00
#rwgt            1           1   3.4628030843565777E-002           7      248454           0
</event>
<event>
      5   9999 -3.79277E-02  4.51534E+01 -1.00000E+00  1.41650E-01
      21    -1     0     0   502   501  0.000000000E+00  0.000000000E+00  3.793345001E+02  3.793345001E+02  0.000000000E+00  0.00000E+00  9.000E+00
      21    -1     0     0   501   512  0.000000000E+00  0.000000000E+00 -2.113116880E+02  2.113116880E+02  0.000000000E+00  0.00000E+00  9.000E+00
      25     1     1     2     0     0  2.492186262E+01  1.334405905E+02  2.654426557E+02  3.232836122E+02  1.250000000E+02  0.00000E+00  9.000E+00
      25     1     1     2     0     0 -6.837111315E+01 -1.457283297E+02 -7.831105314E+01  2.183322611E+02  1.250000000E+02  0.00000E+00  9.000E+00
      21     1     1     2   502   512  4.344925052E+01  1.228773923E+01 -1.910879047E+01  4.903031490E+01  4.129530925E-07  0.00000E+00  9.000E+00
#rwgt            1           1  -2.8553777399498659E-002           7      248845           0
</event>
<event>
      5   9999  3.79277E-02  5.41521E+00 -1.00000E+00  2.32618E-01
      21    -1     0     0   502   501  0.000000000E+00  0.000000000E+00  7.984948626E+01  7.984948626E+01  0.000000000E+00  0.00000E+00  9.000E+00
      21    -1     0     0   511   502  0.000000000E+00  0.000000000E+00 -5.173325271E+02  5.173325271E+02  0.000000000E+00  0.00000E+00  9.000E+00
      25     1     1     2     0     0 -1.008436568E+02 -1.132010505E+01 -3.574448033E+02  3.920323652E+02  1.250000000E+02  0.00000E+00  9.000E+00
      25     1     1     2     0     0  9.894677394E+01  1.639222343E+01 -4.057873835E+01  1.653203045E+02  1.250000000E+02  0.00000E+00  9.000E+00
      21     1     1     2   511   501  1.896882827E+00 -5.072118381E+00 -3.945949913E+01  3.982934371E+01  0.000000000E+00  0.00000E+00  9.000E+00
#rwgt            1           1   3.2029522061176104E-002           7      248976           0
</event>
<event>
      5   9999  3.79277E-02  6.19998E+01 -1.00000E+00  1.33947E-01
      21    -1     0     0   512   501  0.000000000E+00  0.000000000E+00  1.561095594E+02  1.561095594E+02  0.000000000E+00  0.00000E+00  9.000E+00
      21    -1     0     0   501   502  0.000000000E+00  0.000000000E+00 -5.187133663E+02  5.187133663E+02  0.000000000E+00  0.00000E+00  9.000E+00
      25     1     1     2     0     0 -1.206612810E+02 -5.085698988E+01 -3.527827649E+02  3.965176634E+02  1.250000000E+02  0.00000E+00  9.000E+00
      25     1     1     2     0     0  1.289353402E+02  1.123022585E+02  1.308775600E+01  2.122084083E+02  1.250000000E+02  0.00000E+00  9.000E+00
      21     1     1     2   512   502 -8.274059235E+00 -6.144526862E+01 -2.290879796E+01  6.609685405E+01  1.215700987E-06  0.00000E+00  9.000E+00
#rwgt            1           1   3.4404974361491890E-002           7      249376           0
</event>
<event>
      5   9999  3.79277E-02  1.30904E+01 -1.00000E+00  1.83142E-01
      21    -1     0     0   502   501  0.000000000E+00  0.000000000E+00  1.379944340E+02  1.379944340E+02  0.000000000E+00  0.00000E+00  9.000E+00
      21    -1     0     0   501   511  0.000000000E+00  0.000000000E+00 -4.677677751E+02  4.677677751E+02  0.000000000E+00  0.00000E+00  9.000E+00
      25     1     1     2     0     0 -1.067509210E+02 -1.603291444E+01  5.778004479E+01  1.749752756E+02  1.250000000E+02  0.00000E+00  9.000E+00
      25     1     1     2     0     0  1.196994491E+02  1.795512775E+01 -3.471335498E+02  3.883002010E+02  1.250000000E+02  0.00000E+00  9.000E+00
      21     1     1     2   502   511 -1.294852802E+01 -1.922213311E+00 -4.041983610E+01  4.248673242E+01  4.768371582E-07  0.00000E+00  9.000E+00
#rwgt            1           1   4.1197234690238518E-002           7      249485           0
</event>
<event>
      5   9999  3.79277E-02  6.76827E+01 -1.00000E+00  1.31965E-01
       2    -1     0     0   502     0  0.000000000E+00  0.000000000E+00  3.533992387E+03  3.533992387E+03  0.000000000E+00  0.00000E+00  9.000E+00
      21    -1     0     0   501   502  0.000000000E+00  0.000000000E+00 -9.766774517E+01  9.766774517E+01  0.000000000E+00  0.00000E+00  9.000E+00
      25     1     1     2     0     0 -3.876724541E+01  2.136604956E+02  3.241325627E+02  4.096835668E+02  1.250000000E+02  0.00000E+00  9.000E+00
      25     1     1     2     0     0 -2.459800041E+01 -2.374469745E+02  2.786630158E+02  3.876392701E+02  1.250000000E+02  0.00000E+00  9.000E+00
       2     1     1     2   501     0  6.336524582E+01  2.378647895E+01  2.833529063E+03  2.834337295E+03  4.315837288E-05  0.00000E+00  9.000E+00
#rwgt            1           1   2.9668909047476138E-002           7      249807           0
</event>
<event>
      5   9999  3.79277E-02  1.09074E+02 -1.00000E+00  1.22155E-01
       2    -1     0     0   502     0  0.000000000E+00  0.000000000E+00  1.232837323E+03  1.232837323E+03  0.000000000E+00  0.00000E+00  9.000E+00
      21    -1     0     0   501   502  0.000000000E+00  0.000000000E+00 -6.297104244E+01  6.297104244E+01  0.000000000E+00  0.00000E+00  9.000E+00
      25     1     1     2     0     0 -1.551300289E+02 -6.173984870E+01  6.417770487E+02  6.748184312E+02  1.250000000E+02  0.00000E+00  9.000E+00
      25     1     1     2     0     0  8.056636011E+01 -1.786838832E+01  1.021347585E+02  1.812918271E+02  1.250000000E+02  0.00000E+00  9.000E+00
       2     1     1     2   501     0  7.456366875E+01  7.960823702E+01  4.259544734E+02  4.396981072E+02  0.000000000E+00  0.00000E+00  9.000E+00
#rwgt            1           1   3.8052200287713979E-002           7      249886           0
</event>
<event>
      5   9999  3.79277E-02  3.76748E+01 -1.00000E+00  1.46472E-01
      21    -1     0     0   502   511  0.000000000E+00  0.000000000E+00  4.280238678E+02  4.280238678E+02  0.000000000E+00  0.00000E+00  9.000E+00
      21    -1     0     0   501   502  0.000000000E+00  0.000000000E+00 -4.847918508E+02  4.847918508E+02  0.000000000E+00  0.00000E+00  9.000E+00
      25     1     1     2     0     0 -2.399581696E+02  1.344216270E+02 -3.609317992E+02  4.706865843E+02  1.250000000E+02  0.00000E+00  9.000E+00
      25     1     1     2     0     0  2.346823108E+02 -9.711802113E+01  2.723330929E+02  3.928078545E+02  1.250000000E+02  0.00000E+00  9.000E+00
      21     1     1     2   501   511  5.275858844E+00 -3.730360588E+01  3.183072327E+01  4.932127981E+01  3.371747881E-07  0.00000E+00  9.000E+00
#rwgt            1           1   5.2043871516748087E-002           7      249998           0
</event>
<event>
      5   9999  3.79277E-02  3.14294E+01 -1.00000E+00  1.51649E-01
      21    -1     0     0   512   501  0.000000000E+00  0.000000000E+00  1.837856496E+02  1.837856496E+02  0.000000000E+00  0.00000E+00  9.000E+00
      21    -1     0     0   501   502  0.000000000E+00  0.000000000E+00 -5.466445799E+02  5.466445799E+02  0.000000000E+00  0.00000E+00  9.000E+00
      25     1     1     2     0     0  2.027672513E+02 -6.026784035E+01 -2.788646159E+02  3.716681917E+02  1.250000000E+02  0.00000E+00  9.000E+00
      25     1     1     2     0     0 -1.813615783E+02  3.725471020E+01 -1.611484843E+02  2.754519368E+02  1.250000000E+02  0.00000E+00  9.000E+00
      21     1     1     2   512   502 -2.140567291E+01  2.301313015E+01  7.715416984E+01  8.331010092E+01  1.907348633E-06  0.00000E+00  9.000E+00
#rwgt            1           1   3.7937647476208078E-002           7      250142           0
</event>
<event>
      5   9999  3.79277E-02  2.71522E+01 -1.00000E+00  1.56111E-01
      21    -1     0     0   502   501  0.000000000E+00  0.000000000E+00  3.755770793E+03  3.755770793E+03  0.000000000E+00  0.00000E+00  9.000E+00
      21    -1     0     0   501   511  0.000000000E+00  0.000000000E+00 -1.662118610E+02  1.662118610E+02  0.000000000E+00  0.00000E+00  9.000E+00
      25     1     1     2     0     0  1.773492477E+02 -1.260817073E+01  2.612270413E+03  2.621296136E+03  1.250000000E+02  0.00000E+00  9.000E+00
      25     1     1     2     0     0 -1.947962738E+02 -8.196729046E+00  1.125972222E+03  1.149543918E+03  1.250000000E+02  0.00000E+00  9.000E+00
      21     1     1     2   502   511  1.744702617E+01  2.080489977E+01 -1.486837021E+02  1.511426010E+02  5.046370146E-06  0.00000E+00  9.000E+00
#rwgt            1           1   1.4725293214717683E-002           7      250292           0
</event>
<event>
      5   9999  3.79277E-02  1.23043E+01 -1.00000E+00  1.85892E-01
      21    -1     0     0   502   512  0.000000000E+00  0.000000000E+00  5.906446546E+01  5.906446546E+01  0.000000000E+00  0.00000E+00  9.000E+00
      21    -1     0     0   501   502  0.000000000E+00  0.000000000E+00 -1.049985858E+03  1.049985858E+03  0.000000000E+00  0.00000E+00  9.000E+00
      25     1     1     2     0     0  3.323017660E+01  1.047329116E+02 -8.708523502E+02  8.866126794E+02  1.250000000E+02  0.00000E+00  9.000E+00
      25     1     1     2     0     0 -2.928823400E+01 -1.163886650E+02 -1.187277420E+02  2.100604644E+02  1.250000000E+02  0.00000E+00  9.000E+00
      21     1     1     2   501   512 -3.941942602E+00  1.165575346E+01 -1.341300871E+00  1.237718014E+01  3.017255177E-07  0.00000E+00  9.000E+00
#rwgt            1           1   3.7573785872200088E-002           7      250454           0
</event>
<event>
      5   9999  3.79277E-02  8.62356E+01 -1.00000E+00  1.26791E-01
      21    -1     0     0   511   501  0.000000000E+00  0.000000000E+00  2.782606474E+02  2.782606474E+02  0.000000000E+00  0.00000E+00  9.000E+00
      21    -1     0     0   501   502  0.000000000E+00  0.000000000E+00 -3.262652746E+02  3.262652746E+02  0.000000000E+00  0.00000E+00  9.000E+00
      25     1     1     2     0     0 -1.685602252E+02  1.468707057E+02 -8.711514135E+01  2.705505527E+02  1.250000000E+02  0.00000E+00  9.000E+00
      25     1     1     2     0     0  1.993155756E+02 -6.630589838E+01  4.028472088E+01  2.477317694E+02  1.250000000E+02  0.00000E+00  9.000E+00
      21     1     1     2   511   502 -3.075535047E+01 -8.056480736E+01 -1.174206746E+00  8.624359993E+01  1.442875676E-06  0.00000E+00  9.000E+00
#rwgt            1           1   3.4481570317438176E-002           7      250752           0
</event>
<event>
      5   9999  3.79277E-02  2.95683E+01 -1.00000E+00  1.53478E-01
      21    -1     0     0   502   501  0.000000000E+00  0.000000000E+00  8.536819177E+02  8.536819177E+02  0.000000000E+00  0.00000E+00  9.000E+00
       2    -1     0     0   501     0  0.000000000E+00  0.000000000E+00 -3.758629674E+02  3.758629674E+02  0.000000000E+00  0.00000E+00  9.000E+00
      25     1     1     2     0     0  2.160864129E+02  1.935453352E+02  5.387356030E+02  6.245111564E+02  1.250000000E+02  0.00000E+00  9.000E+00
      25     1     1     2     0     0 -2.225318536E+02 -1.646881086E+02  1.861147078E+02  3.562390818E+02  1.250000000E+02  0.00000E+00  9.000E+00
       2     1     1     2   502     0  6.445440787E+00 -2.885722668E+01 -2.470313605E+02  2.487946469E+02  0.000000000E+00  0.00000E+00  9.000E+00
#rwgt            1           1   3.3386084995103461E-002           7      250896           0
</event>
<event>
      5   9999  3.79277E-02  2.03647E+01 -1.00000E+00  1.65724E-01
      21    -1     0     0   502   511  0.000000000E+00  0.000000000E+00  3.057529030E+02  3.057529030E+02  0.000000000E+00  0.00000E+00  9.000E+00
      21    -1     0     0   501   502  0.000000000E+00  0.000000000E+00 -1.757958575E+02  1.757958575E+02  0.000000000E+00  0.00000E+00  9.000E+00
      25     1     1     2     0     0 -7.209519526E+01  9.376525234E+01  1.422806620E+02  2.232900054E+02  1.250000000E+02  0.00000E+00  9.000E+00
      25     1     1     2     0     0  8.727331459E+01 -8.018792188E+01 -7.829643210E+01  1.892143376E+02  1.250000000E+02  0.00000E+00  9.000E+00
      21     1     1     2   501   511 -1.517811932E+01 -1.357733046E+01  6.597281554E+01  6.904441758E+01  1.651812370E-06  0.00000E+00  9.000E+00
#rwgt            1           1   4.3536955990400604E-002           7      251166           0
</event>
<event>
      5   9999  3.79277E-02  1.98253E+01 -1.00000E+00  1.66684E-01
      21    -1     0     0   502   501  0.000000000E+00  0.000000000E+00  3.819275525E+01  3.819275525E+01  0.000000000E+00  0.00000E+00  9.000E+00
      21    -1     0     0   501   512  0.000000000E+00  0.000000000E+00 -2.216037513E+03  2.216037513E+03  0.000000000E+00  0.00000E+00  9.000E+00
      25     1     1     2     0     0 -3.726724560E+01 -1.978195159E+02 -6.034396148E+02  6.482945142E+02  1.250000000E+02  0.00000E+00  9.000E+00
      25     1     1     2     0     0  1.992389408E+01  2.074242848E+02 -9.298686476E+02  9.610944268E+02  1.250000000E+02  0.00000E+00  9.000E+00
      21     1     1     2   502   512  1.734335152E+01 -9.604768868E+00 -6.445364955E+02  6.448413273E+02  7.629394531E-06  0.00000E+00  9.000E+00
#rwgt            1           1   4.1001382844822951E-002           7      251460           0
</event>
<event>
      5   9999  3.79277E-02  3.36508E+01 -1.00000E+00  1.49655E-01
      21    -1     0     0   502   501  0.000000000E+00  0.000000000E+00  1.433181265E+02  1.433181265E+02  0.000000000E+00  0.00000E+00  9.000E+00
      21    -1     0     0   511   502  0.000000000E+00  0.000000000E+00 -2.707034675E+02  2.707034675E+02  0.000000000E+00  0.00000E+00  9.000E+00
      25     1     1     2     0     0  2.191996005E+01  2.429276498E+01  7.260618669E+01  1.482136344E+02  1.250000000E+02  0.00000E+00  9.000E+00
      25     1     1     2     0     0 -5.557017966E+01 -2.409192350E+01 -1.772594900E+02  2.251985623E+02  1.250000000E+02  0.00000E+00  9.000E+00
      21     1     1     2   511   501  3.365021961E+01 -2.008414769E-01 -2.273203760E+01  4.060939732E+01  5.840038640E-07  0.00000E+00  9.000E+00
#rwgt            1           1   3.7379428140235808E-002           7      251626           0
</event>
<event>
      5   9999  3.79277E-02  1.18460E+01 -1.00000E+00  1.87620E-01
       1    -1     0     0   502     0  0.000000000E+00  0.000000000E+00  2.762512531E+03  2.762512531E+03  0.000000000E+00  0.00000E+00  9.000E+00
      21    -1     0     0   501   502  0.000000000E+00  0.000000000E+00 -3.248484605E+02  3.248484605E+02  0.000000000E+00  0.00000E+00  9.000E+00
      25     1     1     2     0     0 -6.637877605E+01  6.751199091E+01  1.723224943E+02  2.329893836E+02  1.250000000E+02  0.00000E+00  9.000E+00
      25     1     1     2     0     0  6.729979140E+01 -5.570185377E+01 -2.747585364E+02  3.142438731E+02  1.250000000E+02  0.00000E+00  9.000E+00
       1     1     1     2   501     0 -9.210153472E-01 -1.181013714E+01  2.540100113E+03  2.540127735E+03  5.285799584E-05  0.00000E+00  9.000E+00
#rwgt            1           1   5.3124920732154288E-002           7      251760           0
</event>
<event>
      5   9999  3.79277E-02  3.16853E+01 -1.00000E+00  1.51409E-01
      21    -1     0     0   502   501  0.000000000E+00  0.000000000E+00  1.180467201E+02  1.180467201E+02  0.000000000E+00  0.00000E+00  9.000E+00
      21    -1     0     0   501   511  0.000000000E+00  0.000000000E+00 -4.521479684E+02  4.521479684E+02  0.000000000E+00  0.00000E+00  9.000E+00
      25     1     1     2     0     0  4.299822995E+01 -1.562221678E+02 -2.380839055E+02  3.139477019E+02  1.250000000E+02  0.00000E+00  9.000E+00
      25     1     1     2     0     0 -7.243611352E+01  1.445017931E+02 -7.260646603E+01  2.168512340E+02  1.250000000E+02  0.00000E+00  9.000E+00
      21     1     1     2   502   511  2.943788357E+01  1.172037464E+01 -2.341087684E+01  3.939575263E+01  7.539457465E-07  0.00000E+00  9.000E+00
#rwgt            1           1   3.1724166869913084E-002           7      251991           0
</event>
<event>
      5   9999  3.79277E-02  1.12271E+01 -1.00000E+00  1.90120E-01
      21    -1     0     0   502   501  0.000000000E+00  0.000000000E+00  1.037499713E+03  1.037499713E+03  0.000000000E+00  0.00000E+00  9.000E+00
      21    -1     0     0   512   502  0.000000000E+00  0.000000000E+00 -1.397020555E+02  1.397020555E+02  0.000000000E+00  0.00000E+00  9.000E+00
      25     1     1     2     0     0 -1.627769847E+01  1.631412840E+02  5.471275455E+02  5.846824720E+02  1.250000000E+02  0.00000E+00  9.000E+00
      25     1     1     2     0     0  1.458810791E+01 -1.520420593E+02  4.506161658E+02  4.919446408E+02  1.250000000E+02  0.00000E+00  9.000E+00
      21     1     1     2   512   501  1.689590555E+00 -1.109922474E+01 -9.994605433E+01  1.005746553E+02  4.473129043E-06  0.00000E+00  9.000E+00
#rwgt            1           1   6.8856524914135658E-002           7      252121           0
</event>
<event>
      5   9999  3.79277E-02  3.18671E+01 -1.00000E+00  1.51241E-01
      21    -1     0     0   502   501  0.000000000E+00  0.000000000E+00  3.594592070E+01  3.594592070E+01  0.000000000E+00  0.00000E+00  9.000E+00
       2    -1     0     0   501     0  0.000000000E+00  0.000000000E+00 -1.997877108E+03  1.997877108E+03  0.000000000E+00  0.00000E+00  9.000E+00
      25     1     1     2     0     0  3.641203329E+01 -1.141834200E+02 -9.889848275E+02  1.004031712E+03  1.250000000E+02  0.00000E+00  9.000E+00
      25     1     1     2     0     0 -6.282078997E+01  9.634837175E+01 -2.288002260E+02  2.849631622E+02  1.250000000E+02  0.00000E+00  9.000E+00
       2     1     1     2   502     0  2.640875668E+01  1.783504826E+01 -7.441461342E+02  7.448281550E+02  1.078959322E-05  0.00000E+00  9.000E+00
#rwgt            1           1   3.6795484757245325E-002           7      252426           0
</event>
<event>
      5   9999  3.79277E-02  7.82482E+01 -1.00000E+00  1.28817E-01
      21    -1     0     0   502   501  0.000000000E+00  0.000000000E+00  3.884824422E+02  3.884824422E+02  0.000000000E+00  0.00000E+00  9.000E+00
      21    -1     0     0   511   502  0.000000000E+00  0.000000000E+00 -2.174339713E+02  2.174339713E+02  0.000000000E+00  0.00000E+00  9.000E+00
      25     1     1     2     0     0  1.088440626E+02  5.961710977E+01  3.055771611E+02  3.527089893E+02  1.250000000E+02  0.00000E+00  9.000E+00
      25     1     1     2     0     0 -3.533750532E+01 -3.279236945E+01 -1.023721213E+02  1.686094007E+02  1.250000000E+02  0.00000E+00  9.000E+00
      21     1     1     2   511   501 -7.350655728E+01 -2.682474032E+01 -3.215656896E+01  8.459802352E+01  1.784161275E-06  0.00000E+00  9.000E+00
#rwgt            1           1   4.2465375715586465E-002           7      252536           0
</event>
<event>
      5   9999  3.79277E-02  9.79175E+01 -1.00000E+00  1.24240E-01
      21    -1     0     0   502   501  0.000000000E+00  0.000000000E+00  2.931482774E+02  2.931482774E+02  0.000000000E+00  0.00000E+00  9.000E+00
       2    -1     0     0   501     0  0.000000000E+00  0.000000000E+00 -5.959630675E+02  5.959630675E+02  0.000000000E+00  0.00000E+00  9.000E+00
      25     1     1     2     0     0 -4.267654775E-01  1.612630998E+02 -1.304594204E+02  2.421789212E+02  1.250000000E+02  0.00000E+00  9.000E+00
      25     1     1     2     0     0 -9.100990649E+01 -1.262320775E+02  1.875814799E+02  2.739144977E+02  1.250000000E+02  0.00000E+00  9.000E+00
       2     1     1     2   502     0  9.143667197E+01 -3.503102231E+01 -3.599368495E+02  3.730179260E+02  0.000000000E+00  0.00000E+00  9.000E+00
#rwgt            1           1   4.7069550972986034E-002           7      252784           0
</event>
<event>
      5   9999  3.79277E-02  6.00660E+01 -1.00000E+00  1.34678E-01
      21    -1     0     0   502   501  0.000000000E+00  0.000000000E+00  6.723534791E+01  6.723534791E+01  0.000000000E+00  0.00000E+00  9.000E+00
      21    -1     0     0   511   502  0.000000000E+00  0.000000000E+00 -4.803400476E+02  4.803400476E+02  0.000000000E+00  0.00000E+00  9.000E+00
      25     1     1     2     0     0 -9.164739037E+01  5.075258209E+01 -1.830491620E+02  2.451674213E+02  1.250000000E+02  0.00000E+00  9.000E+00
      25     1     1     2     0     0  4.523593556E+01 -1.262250752E+01 -1.343999542E+02  1.894570275E+02  1.250000000E+02  0.00000E+00  9.000E+00
      21     1     1     2   511   501  4.641145481E+01 -3.813007458E+01 -9.565558346E+01  1.129509467E+02  1.348699152E-06  0.00000E+00  9.000E+00
#rwgt            1           1   6.0020882948784264E-002           7      252849           0
</event>
<event>
      5   9999  3.79277E-02  1.63745E+01 -1.00000E+00  1.73870E-01
      21    -1     0     0   502   501  0.000000000E+00  0.000000000E+00  3.780531895E+02  3.780531895E+02  0.000000000E+00  0.00000E+00  9.000E+00
      21    -1     0     0   512   502  0.000000000E+00  0.000000000E+00 -1.175048487E+02  1.175048487E+02  0.000000000E+00  0.00000E+00  9.000E+00
      25     1     1     2     0     0 -1.496465274E+01  1.265336329E+02  2.205894632E+02  2.837594269E+02  1.250000000E+02  0.00000E+00  9.000E+00
      25     1     1     2     0     0  2.373389174E+00 -1.370019411E+02  5.062349401E+01  1.922573873E+02  1.250000000E+02  0.00000E+00  9.000E+00
      21     1     1     2   512   501  1.259126356E+01  1.046830819E+01 -1.066461632E+01  1.954122401E+01  4.460403188E-07  0.00000E+00  9.000E+00
#rwgt            1           1   4.0309855791368414E-002           7      252913           0
</event>
<event>
      5   9999  3.79277E-02  8.71767E+00 -1.00000E+00  2.02909E-01
      21    -1     0     0   502   501  0.000000000E+00  0.000000000E+00  1.224282894E+03  1.224282894E+03  0.000000000E+00  0.00000E+00  9.000E+00
      21    -1     0     0   501   511  0.000000000E+00  0.000000000E+00 -2.420270208E+01  2.420270208E+01  0.000000000E+00  0.00000E+00  9.000E+00
      25     1     1     2     0     0 -4.077469282E+01 -5.431411213E+01  2.740844727E+02  3.088039775E+02  1.250000000E+02  0.00000E+00  9.000E+00
      25     1     1     2     0     0  4.854131149E+01  5.035463511E+01  9.120939847E+02  9.232725953E+02  1.250000000E+02  0.00000E+00  9.000E+00
      21     1     1     2   502   511 -7.766618669E+00  3.959477029E+00  1.390173457E+01  1.640902337E+01  2.920019320E-07  0.00000E+00  9.000E+00
#rwgt            1           1   1.7731434487517288E-002           7      253124           0
</event>
<event>
      5   9999  3.79277E-02  4.04218E+01 -1.00000E+00  1.44558E-01
      21    -1     0     0   502   501  0.000000000E+00  0.000000000E+00  1.412555041E+03  1.412555041E+03  0.000000000E+00  0.00000E+00  9.000E+00
      -1    -1     0     0     0   502  0.000000000E+00  0.000000000E+00 -2.051643745E+02  2.051643745E+02  0.000000000E+00  0.00000E+00  9.000E+00
      25     1     1     2     0     0 -1.167122929E+02  1.947851251E+02  6.166978776E+02  6.689576044E+02  1.250000000E+02  0.00000E+00  9.000E+00
      25     1     1     2     0     0  8.877174199E+01 -2.239955799E+02  7.430797365E+02  7.911048836E+02  1.250000000E+02  0.00000E+00  9.000E+00
      -1     1     1     2     0   501  2.794055095E+01  2.921045485E+01 -1.523869475E+02  1.576569276E+02  3.303624740E-06  0.00000E+00  9.000E+00
#rwgt            2          10   2.3079593054328747E-004           7      253364           0
</event>
<event>
      5   9999  3.79277E-02  2.28309E+01 -1.00000E+00  1.61761E-01
      21    -1     0     0   502   501  0.000000000E+00  0.000000000E+00  7.104380312E+02  7.104380312E+02  0.000000000E+00  0.00000E+00  9.000E+00
      21    -1     0     0   511   502  0.000000000E+00  0.000000000E+00 -1.835078442E+03  1.835078442E+03  0.000000000E+00  0.00000E+00  9.000E+00
      25     1     1     2     0     0 -7.747518370E+01  1.435920151E+02  1.841484386E+02  2.759650672E+02  1.250000000E+02  0.00000E+00  9.000E+00
      25     1     1     2     0     0  6.568163513E+01 -1.631409267E+02  4.560760697E+02  5.045388196E+02  1.250000000E+02  0.00000E+00  9.000E+00
      21     1     1     2   511   501  1.179354857E+01  1.954891159E+01 -1.764864919E+03  1.765012587E+03  0.000000000E+00  0.00000E+00  9.000E+00
#rwgt            1           1   3.3684459734794121E-002           7      253383           0
</event>
<event>
      5   9999  3.79277E-02  2.94201E+01 -1.00000E+00  1.53631E-01
      21    -1     0     0   502   512  0.000000000E+00  0.000000000E+00  1.970329916E+02  1.970329916E+02  0.000000000E+00  0.00000E+00  9.000E+00
      21    -1     0     0   501   502  0.000000000E+00  0.000000000E+00 -1.114475228E+03  1.114475228E+03  0.000000000E+00  0.00000E+00  9.000E+00
      25     1     1     2     0     0 -7.869860667E+01 -9.817924207E+01 -3.702080622E+02  4.105016974E+02  1.250000000E+02  0.00000E+00  9.000E+00
      25     1     1     2     0     0  5.414001305E+01  1.143785040E+02 -7.118735637E+02  7.337591934E+02  1.250000000E+02  0.00000E+00  9.000E+00
      21     1     1     2   501   512  2.455859362E+01 -1.619926193E+01  1.646393892E+02  1.672473291E+02  4.264961200E-06  0.00000E+00  9.000E+00
#rwgt            1           1   4.3518449103616068E-002           7      253515           0
</event>
<event>
      5   9999  3.79277E-02  1.64832E+01 -1.00000E+00  1.73611E-01
      21    -1     0     0   502   511  0.000000000E+00  0.000000000E+00  1.026001472E+03  1.026001472E+03  0.000000000E+00  0.00000E+00  9.000E+00
      21    -1     0     0   501   502  0.000000000E+00  0.000000000E+00 -8.026622155E+01  8.026622155E+01  0.000000000E+00  0.00000E+00  9.000E+00
      25     1     1     2     0     0 -1.342034931E+02 -1.102838105E+02  5.687584954E+02  6.076876850E+02  1.250000000E+02  0.00000E+00  9.000E+00
      25     1     1     2     0     0  1.198648914E+02  1.184140567E+02  1.212326273E+02  2.423052433E+02  1.250000000E+02  0.00000E+00  9.000E+00
      21     1     1     2   501   511  1.433860172E+01 -8.130246284E+00  2.557441277E+02  2.562747652E+02  4.672030912E-06  0.00000E+00  9.000E+00
#rwgt            1           1   4.0884020049647196E-002           7      253706           0
</event>
<event>
      5   9999  3.79277E-02  4.98146E+01 -1.00000E+00  1.39168E-01
      21    -1     0     0   512   501  0.000000000E+00  0.000000000E+00  2.243695167E+02  2.243695167E+02  0.000000000E+00  0.00000E+00  9.000E+00
      21    -1     0     0   501   502  0.000000000E+00  0.000000000E+00 -1.651151792E+02  1.651151792E+02  0.000000000E+00  0.00000E+00  9.000E+00
      25     1     1     2     0     0 -1.949724709E+01 -1.002843308E+02  6.596388744E+01  1.743941630E+02  1.250000000E+02  0.00000E+00  9.000E+00
      25     1     1     2     0     0 -2.563172437E+01  7.919231181E+01 -3.970674028E+01  1.553384459E+02  1.250000000E+02  0.00000E+00  9.000E+00
      21     1     1     2   512   502  4.512897147E+01  2.109201897E+01  3.299719031E+01  5.975208698E+01  4.768371582E-07  0.00000E+00  9.000E+00
#rwgt            1           1   2.1998798387354832E-002           7      253963           0
</event>
<event>
      5   9999  3.79277E-02  6.04389E+01 -1.00000E+00  1.34534E-01
      21    -1     0     0   502   511  0.000000000E+00  0.000000000E+00  3.872095978E+02  3.872095978E+02  0.000000000E+00  0.00000E+00  9.000E+00
      21    -1     0     0   501   502  0.000000000E+00  0.000000000E+00 -1.530552486E+02  1.530552486E+02  0.000000000E+00  0.00000E+00  9.000E+00
      25     1     1     2     0     0  8.799564604E+01  9.360943660E+00  1.018349355E+02  1.839190449E+02  1.250000000E+02  0.00000E+00  9.000E+00
      25     1     1     2     0     0 -1.225999724E+02 -5.891295801E+01 -2.630523893E+01  1.865970403E+02  1.250000000E+02  0.00000E+00  9.000E+00
      21     1     1     2   501   511  3.460432634E+01  4.955201435E+01  1.586246526E+02  1.697487612E+02  0.000000000E+00  0.00000E+00  9.000E+00
#rwgt            1           1   3.6506895714443550E-002           7      254093           0
</event>
<event>
      5   9999  3.79277E-02  1.04800E+02 -1.00000E+00  1.22919E-01
      21    -1     0     0   502   512  0.000000000E+00  0.000000000E+00  6.198494172E+02  6.198494172E+02  0.000000000E+00  0.00000E+00  9.000E+00
      21    -1     0     0   501   502  0.000000000E+00  0.000000000E+00 -1.744099677E+02  1.744099677E+02  0.000000000E+00  0.00000E+00  9.000E+00
      25     1     1     2     0     0  2.506461709E+02 -3.721957197E+01  3.469274397E+02  4.474287071E+02  1.250000000E+02  0.00000E+00  9.000E+00
      25     1     1     2     0     0 -1.496562377E+02  9.217216474E+00 -1.065612793E+01  1.955006384E+02  1.250000000E+02  0.00000E+00  9.000E+00
      21     1     1     2   501   512 -1.009899332E+02  2.800235549E+01  1.091681377E+02  1.513300394E+02  1.907348633E-06  0.00000E+00  9.000E+00
#rwgt            1           1   2.7725103317868319E-002           7      254195           0
</event>
<event>
      5   9999  3.79277E-02  6.02602E+01 -1.00000E+00  1.34603E-01
      21    -1     0     0   502   511  0.000000000E+00  0.000000000E+00  4.121645145E+01  4.121645145E+01  0.000000000E+00  0.00000E+00  9.000E+00
      21    -1     0     0   501   502  0.000000000E+00  0.000000000E+00 -1.641290065E+03  1.641290065E+03  0.000000000E+00  0.00000E+00  9.000E+00
      25     1     1     2     0     0  9.226173937E+01 -1.627210797E+01 -1.351267622E+03  1.360266957E+03  1.250000000E+02  0.00000E+00  9.000E+00
      25     1     1     2     0     0 -6.271900394E+01 -3.624951406E+01 -1.785832379E+02  2.297056237E+02  1.250000000E+02  0.00000E+00  9.000E+00
      21     1     1     2   501   511 -2.954273543E+01  5.252162203E+01 -7.022275383E+01  9.253393514E+01  0.000000000E+00  0.00000E+00  9.000E+00
#rwgt            1           1   1.5067555019854071E-002           7      254352           0
</event>
<event>
      5   9999  3.79277E-02  1.32300E+01 -1.00000E+00  1.82680E-01
      21    -1     0     0   502   501  0.000000000E+00  0.000000000E+00  5.911188623E+02  5.911188623E+02  0.000000000E+00  0.00000E+00  9.000E+00
      21    -1     0     0   512   502  0.000000000E+00  0.000000000E+00 -1.887841420E+02  1.887841420E+02  0.000000000E+00  0.00000E+00  9.000E+00
      25     1     1     2     0     0  2.009791113E+02 -1.266773846E+01  2.867152734E+02  3.719996274E+02  1.250000000E+02  0.00000E+00  9.000E+00
      25     1     1     2     0     0 -2.060820354E+02  4.615125784E-01  2.056908697E+02  3.168655112E+02  1.250000000E+02  0.00000E+00  9.000E+00
      21     1     1     2   512   501  5.102924163E+00  1.220622588E+01 -9.007142279E+01  9.103786569E+01  1.651812370E-06  0.00000E+00  9.000E+00
#rwgt            1           1  0.26664812065951110                7      254447           0
</event>
<event>
      5   9999  3.79277E-02  2.00759E+01 -1.00000E+00  1.66233E-01
       1    -1     0     0   502     0  0.000000000E+00  0.000000000E+00  2.524610370E+03  2.524610370E+03  0.000000000E+00  0.00000E+00  9.000E+00
      21    -1     0     0   501   502  0.000000000E+00  0.000000000E+00 -2.143036602E+01  2.143036602E+01  0.000000000E+00  0.00000E+00  9.000E+00
      25     1     1     2     0     0  1.441664790E+02 -1.132526310E+02  9.713692629E+02  9.963901731E+02  1.250000000E+02  0.00000E+00  9.000E+00
      25     1     1     2     0     0 -1.277094123E+02  1.017544976E+02  1.221339907E+03  1.238531324E+03  1.250000000E+02  0.00000E+00  9.000E+00
       1     1     1     2   501     0 -1.645706670E+01  1.149813345E+01  3.104708336E+02  3.111192386E+02  3.814697266E-06  0.00000E+00  9.000E+00
#rwgt            1           1   9.9868511284336783E-002           7      254649           0
</event>
<event>
      5   9999  3.79277E-02  1.70781E+01 -1.00000E+00  1.72235E-01
      21    -1     0     0   502   501  0.000000000E+00  0.000000000E+00  5.851866637E+02  5.851866637E+02  0.000000000E+00  0.00000E+00  9.000E+00
      21    -1     0     0   511   502  0.000000000E+00  0.000000000E+00 -7.073799057E+01  7.073799057E+01  0.000000000E+00  0.00000E+00  9.000E+00
      25     1     1     2     0     0  1.028664821E+02  2.696373071E+01  7.984828968E+01  1.825083704E+02  1.250000000E+02  0.00000E+00  9.000E+00
      25     1     1     2     0     0 -9.879259558E+01 -4.354876363E+01  4.186228173E+02  4.500294823E+02  1.250000000E+02  0.00000E+00  9.000E+00
      21     1     1     2   511   501 -4.073886490E+00  1.658503292E+01  1.597756620E+01  2.338680161E+01  3.371747881E-07  0.00000E+00  9.000E+00
#rwgt            1           1   4.0821186787545295E-002           7      254833           0
</event>
<event>
      5   9999  3.79277E-02  1.08299E+01 -1.00000E+00  1.91838E-01
      21    -1     0     0   502   501  0.000000000E+00  0.000000000E+00  5.184148297E+01  5.184148297E+01  0.000000000E+00  0.00000E+00  9.000E+00
       1    -1     0     0   501     0  0.000000000E+00  0.000000000E+00 -1.010501098E+03  1.010501098E+03  0.000000000E+00  0.00000E+00  9.000E+00
      25     1     1     2     0     0 -1.784637665E+02  6.047939862E+01 -4.244561260E+02  4.809314676E+02  1.250000000E+02  0.00000E+00  9.000E+00
      25     1     1     2     0     0  1.698925679E+02 -5.385959903E+01 -4.952955602E+02  5.410240595E+02  1.250000000E+02  0.00000E+00  9.000E+00
       1     1     1     2   502     0  8.571198548E+00 -6.619799591E+00 -3.890792841E+01  4.038705342E+01  6.743495762E-07  0.00000E+00  9.000E+00
#rwgt            1           1   4.2725365901627461E-002           7      255255           0
</event>
<event>
      5   9999  3.79277E-02  6.48763E+01 -1.00000E+00  1.32915E-01
      21    -1     0     0   502   501  0.000000000E+00  0.000000000E+00  5.553897550E+02  5.553897550E+02  0.000000000E+00  0.00000E+00  9.000E+00
      -4    -1     0     0     0   502  0.000000000E+00  0.000000000E+00 -3.826893788E+02  3.826893788E+02  0.000000000E+00  0.00000E+00  9.000E+00
      25     1     1     2     0     0 -9.743834384E+01  1.679472376E+02  4.433865538E+02  4.999171347E+02  1.250000000E+02  0.00000E+00  9.000E+00
      25     1     1     2     0     0  3.388382470E+01 -1.809765050E+02 -7.958036390E+01  2.363443320E+02  1.250000000E+02  0.00000E+00  9.000E+00
      -4     1     1     2     0   501  6.355451914E+01  1.302926741E+01 -1.911058138E+02  2.018176671E+02  0.000000000E+00  0.00000E+00  9.000E+00
#rwgt            2           7   1.9463414826722279E-005           7      255499           0
</event>
<event>
      5   9999  3.79277E-02  6.07374E+01 -1.00000E+00  1.34421E-01
       2    -1     0     0   502     0  0.000000000E+00  0.000000000E+00  3.530529710E+02  3.530529710E+02  0.000000000E+00  0.00000E+00  9.000E+00
      21    -1     0     0   501   502  0.000000000E+00  0.000000000E+00 -2.437797877E+02  2.437797877E+02  0.000000000E+00  0.00000E+00  9.000E+00
      25     1     1     2     0     0 -2.949620849E+01 -5.053450920E+01 -1.269406582E+02  1.875171823E+02  1.250000000E+02  0.00000E+00  9.000E+00
      25     1     1     2     0     0  8.978694890E+01  4.318216369E+01 -5.644234733E+00  1.599476566E+02  1.250000000E+02  0.00000E+00  9.000E+00
       2     1     1     2   501     0 -6.029074041E+01  7.352345512E+00  2.418580763E+02  2.493679198E+02  2.697398305E-06  0.00000E+00  9.000E+00
#rwgt            1           1   4.2686326752212601E-002           7      255518           0
</event>
<event>
      5   9999  3.79277E-02  1.02537E+01 -1.00000E+00  1.94508E-01
      21    -1     0     0   511   501  0.000000000E+00  0.000000000E+00  4.274271462E+01  4.274271462E+01  0.000000000E+00  0.00000E+00  9.000E+00
      21    -1     0     0   501   502  0.000000000E+00  0.000000000E+00 -9.560177736E+02  9.560177736E+02  0.000000000E+00  0.00000E+00  9.000E+00
      25     1     1     2     0     0 -3.186766477E+01  1.241746472E+02 -3.114323802E+02  3.592353247E+02  1.250000000E+02  0.00000E+00  9.000E+00
      25     1     1     2     0     0  3.141932830E+01 -1.344185002E+02 -6.010522738E+02  6.292410851E+02  1.250000000E+02  0.00000E+00  9.000E+00
      21     1     1     2   511   502  4.483364691E-01  1.024385300E+01 -7.904050398E-01  1.028407847E+01  2.713075497E-07  0.00000E+00  9.000E+00
#rwgt            1           1   3.9539225533112031E-002           7      255782           0
</event>
<event>
      5   9999 -3.79277E-02  4.30260E+01 -1.00000E+00  1.42903E-01
      -2    -1     0     0     0   501  0.000000000E+00  0.000000000E+00  1.105338936E+02  1.105338936E+02  0.000000000E+00  0.00000E+00  9.000E+00
      21    -1     0     0   501   502  0.000000000E+00  0.000000000E+00 -4.124450932E+02  4.124450932E+02  0.000000000E+00  0.00000E+00  9.000E+00
      25     1     1     2     0     0  6.453162315E+01 -5.799442272E+01 -7.697361894E+01  1.705216158E+02  1.250000000E+02  0.00000E+00  9.000E+00
      25     1     1     2     0     0 -9.697881801E+01  2.973823120E+01 -2.538713859E+02  3.006076082E+02  1.250000000E+02  0.00000E+00  9.000E+00
      -2     1     1     2     0   502  3.244719486E+01  2.825619152E+01  2.893380519E+01  5.184976274E+01  8.259061849E-07  0.00000E+00  9.000E+00
#rwgt            1           1  -5.9571573019144175E-002           7      256041           0
</event>
<event>
      5   9999  3.79277E-02  1.20171E+02 -1.00000E+00  1.20342E-01
      21    -1     0     0   502   501  0.000000000E+00  0.000000000E+00  4.909489456E+02  4.909489456E+02  0.000000000E+00  0.00000E+00  9.000E+00
      21    -1     0     0   501   511  0.000000000E+00  0.000000000E+00 -1.553537258E+02  1.553537258E+02  0.000000000E+00  0.00000E+00  9.000E+00
      25     1     1     2     0     0 -4.830412609E+01 -1.843366661E+02  3.440346011E+01  2.304818716E+02  1.250000000E+02  0.00000E+00  9.000E+00
      25     1     1     2     0     0  5.834196342E+01  6.458560473E+01  2.308644141E+02  2.765835547E+02  1.250000000E+02  0.00000E+00  9.000E+00
      21     1     1     2   502   511 -1.003783733E+01  1.197510614E+02  7.032734551E+01  1.392372451E+02  2.132480600E-06  0.00000E+00  9.000E+00
#rwgt            2          11   2.5286691665982186E-003           7      256138           0
</event>
<event>
      5   9999  3.79277E-02  2.75043E+01 -1.00000E+00  1.55707E-01
       2    -1     0     0   502     0  0.000000000E+00  0.000000000E+00  1.686994912E+03  1.686994912E+03  0.000000000E+00  0.00000E+00  9.000E+00
      21    -1     0     0   501   502  0.000000000E+00  0.000000000E+00 -2.383388356E+01  2.383388356E+01  0.000000000E+00  0.00000E+00  9.000E+00
      25     1     1     2     0     0  1.196502432E+02 -2.531470406E+01  6.590469436E+02  6.818540084E+02  1.250000000E+02  0.00000E+00  9.000E+00
      25     1     1     2     0     0 -1.069941959E+02  4.973419512E+01  6.058537052E+02  6.297657979E+02  1.250000000E+02  0.00000E+00  9.000E+00
       2     1     1     2   501     0 -1.265604728E+01 -2.441949107E+01  3.982603800E+02  3.992089896E+02  5.394796609E-06  0.00000E+00  9.000E+00
#rwgt            1           1   4.1035169090136325E-002           7      256173           0
</event>
<event>
      5   9999  3.79277E-02  6.25620E+01 -1.00000E+00  1.33740E-01
      21    -1     0     0   502   501  0.000000000E+00  0.000000000E+00  3.089331163E+02  3.089331163E+02  0.000000000E+00  0.00000E+00  9.000E+00
      21    -1     0     0   511   502  0.000000000E+00  0.000000000E+00 -2.738240560E+02  2.738240560E+02  0.000000000E+00  0.00000E+00  9.000E+00
      25     1     1     2     0     0  5.556791454E+01 -4.772304321E+01  2.542610861E+02  2.926413878E+02  1.250000000E+02  0.00000E+00  9.000E+00
      25     1     1     2     0     0 -1.999208466E+01 -3.739165444E+00 -1.595986966E+02  2.037410336E+02  1.250000000E+02  0.00000E+00  9.000E+00
      21     1     1     2   511   501 -3.557582988E+01  5.146220866E+01 -5.955332912E+01  8.637475094E+01  9.536743164E-07  0.00000E+00  9.000E+00
#rwgt            1           1   4.5781118315101885E-002           7      256332           0
</event>
<event>
      5   9999  3.79277E-02  7.55566E+01 -1.00000E+00  1.29562E-01
      21    -1     0     0   502   501  0.000000000E+00  0.000000000E+00  5.906633189E+02  5.906633189E+02  0.000000000E+00  0.00000E+00  9.000E+00
      21    -1     0     0   501   512  0.000000000E+00  0.000000000E+00 -1.074249273E+03  1.074249273E+03  0.000000000E+00  0.00000E+00  9.000E+00
      25     1     1     2     0     0  5.227011444E+00  2.001219016E+02  3.860123170E+02  4.524451414E+02  1.250000000E+02  0.00000E+00  9.000E+00
      25     1     1     2     0     0 -4.976678188E+01 -2.611547730E+02  4.286137179E+01  2.968849023E+02  1.250000000E+02  0.00000E+00  9.000E+00
      21     1     1     2   502   512  4.453977043E+01  6.103287137E+01 -9.124596432E+02  9.155825484E+02  1.078959322E-05  0.00000E+00  9.000E+00
#rwgt            1           1   3.4906802295768369E-002           7      256447           0
</event>
<event>
      5   9999  3.79277E-02  2.94499E+01 -1.00000E+00  1.53600E-01
      21    -1     0     0   502   511  0.000000000E+00  0.000000000E+00  8.706210346E+01  8.706210346E+01  0.000000000E+00  0.00000E+00  9.000E+00
      21    -1     0     0   501   502  0.000000000E+00  0.000000000E+00 -1.228644110E+03  1.228644110E+03  0.000000000E+00  0.00000E+00  9.000E+00
      25     1     1     2     0     0  2.406045175E+02  1.220209635E+01 -8.688839730E+02  9.102877476E+02  1.250000000E+02  0.00000E+00  9.000E+00
      25     1     1     2     0     0 -2.314194203E+02 -4.018299354E+01 -2.637365522E+02  3.746352760E+02  1.250000000E+02  0.00000E+00  9.000E+00
      21     1     1     2   501   511 -9.185097158E+00  2.798089719E+01 -8.961481096E+00  3.078318958E+01  1.192092896E-07  0.00000E+00  9.000E+00
#rwgt            1           1   3.7727685771540419E-002           7      256590           0
</event>
<event>
      5   9999  3.79277E-02  8.56081E+01 -1.00000E+00  1.26941E-01
      21    -1     0     0   502   512  0.000000000E+00  0.000000000E+00  5.482662940E+02  5.482662940E+02  0.000000000E+00  0.00000E+00  9.000E+00
      21    -1     0     0   501   502  0.000000000E+00  0.000000000E+00 -6.187987378E+02  6.187987378E+02  0.000000000E+00  0.00000E+00  9.000E+00
      25     1     1     2     0     0 -1.312967923E+02 -1.459313411E+00 -2.449110921E+02  3.047087467E+02  1.250000000E+02  0.00000E+00  9.000E+00
      25     1     1     2     0     0  1.315516447E+02  8.706707195E+01 -3.104719933E+02  3.700059038E+02  1.250000000E+02  0.00000E+00  9.000E+00
      21     1     1     2   501   512 -2.548523845E-01 -8.560775854E+01  4.848506416E+02  4.923503813E+02  5.394796609E-06  0.00000E+00  9.000E+00
#rwgt            1           1   3.8390856067171658E-002           7      256744           0
</event>
<event>
      5   9999  3.79277E-02  5.02840E+01 -1.00000E+00  1.38935E-01
      21    -1     0     0   502   511  0.000000000E+00  0.000000000E+00  1.054219339E+02  1.054219339E+02  0.000000000E+00  0.00000E+00  9.000E+00
      21    -1     0     0   501   502  0.000000000E+00  0.000000000E+00 -4.480683369E+02  4.480683369E+02  0.000000000E+00  0.00000E+00  9.000E+00
      25     1     1     2     0     0  1.295329777E+02 -1.336819028E+01 -2.802365890E+02  3.333392366E+02  1.250000000E+02  0.00000E+00  9.000E+00
      25     1     1     2     0     0 -9.600843432E+01 -2.410966087E+01 -3.645251228E+01  1.635624678E+02  1.250000000E+02  0.00000E+00  9.000E+00
      21     1     1     2   501   511 -3.352454342E+01  3.747785115E+01 -2.595730174E+01  5.658856645E+01  1.066240300E-06  0.00000E+00  9.000E+00
#rwgt            1           1   4.9328010274483386E-002           7      256839           0
</event>
<event>
      5   9999 -3.79277E-02  5.13489E+01 -1.00000E+00  1.38419E-01
      21    -1     0     0   502   501  0.000000000E+00  0.000000000E+00  3.408644546E+02  3.408644546E+02  0.000000000E+00  0.00000E+00  9.000E+00
      21    -1     0     0   501   512  0.000000000E+00  0.000000000E+00 -4.208170635E+02  4.208170635E+02  0.000000000E+00  0.00000E+00  9.000E+00
      25     1     1     2     0     0  1.915493391E+02  2.095001842E+02 -8.355638750E+01  3.212291182E+02  1.250000000E+02  0.00000E+00  9.000E+00
      25     1     1     2     0     0 -2.426868378E+02 -2.048460299E+02  7.796097797E+01  3.500881479E+02  1.250000000E+02  0.00000E+00  9.000E+00
      21     1     1     2   502   512  5.113749872E+01 -4.654154239E+00 -7.435719938E+01  9.036425193E+01  1.348699152E-06  0.00000E+00  9.000E+00
#rwgt            1           1 -0.10460264036075248                7      257026           0
</event>
<event>
      5   9999  3.79277E-02  3.74760E+01 -1.00000E+00  1.46618E-01
      21    -1     0     0   502   501  0.000000000E+00  0.000000000E+00  8.268021699E+02  8.268021699E+02  0.000000000E+00  0.00000E+00  9.000E+00
      21    -1     0     0   501   511  0.000000000E+00  0.000000000E+00 -1.716174320E+02  1.716174320E+02  0.000000000E+00  0.00000E+00  9.000E+00
      25     1     1     2     0     0 -1.084549831E+01 -2.545062256E+02  6.115068426E+02  6.741340092E+02  1.250000000E+02  0.00000E+00  9.000E+00
      25     1     1     2     0     0  4.808162150E+01  2.502731217E+02  3.860626957E+01  2.864680118E+02  1.250000000E+02  0.00000E+00  9.000E+00
      21     1     1     2   502   511 -3.723612319E+01  4.233103948E+00  5.071625626E+00  3.781758091E+01  1.018524616E-06  0.00000E+00  9.000E+00
#rwgt            1           1  0.10489131453990204                7      257271           0
</event>
<event>
      5   9999  3.79277E-02  9.87512E+01 -1.00000E+00  1.24074E-01
      21    -1     0     0   502   501  0.000000000E+00  0.000000000E+00  7.880207496E+02  7.880207496E+02  0.000000000E+00  0.00000E+00  9.000E+00
      21    -1     0     0   501   512  0.000000000E+00  0.000000000E+00 -1.001907273E+02  1.001907273E+02  0.000000000E+00  0.00000E+00  9.000E+00
      25     1     1     2     0     0  5.663754663E+01 -4.897998279E+01  6.330079274E+02  6.495620729E+02  1.250000000E+02  0.00000E+00  9.000E+00
      25     1     1     2     0     0  3.239321218E+01  6.256134968E+00  8.461361682E+00  1.295571459E+02  1.250000000E+02  0.00000E+00  9.000E+00
      21     1     1     2   502   512 -8.903075881E+01  4.272384782E+01  4.636073319E+01  1.090922581E+02  0.000000000E+00  0.00000E+00  9.000E+00
#rwgt            1           1   3.7277499727063020E-002           7      257458           0
</event>
<event>
      5   9999  3.79277E-02  1.91876E+01 -1.00000E+00  1.67869E-01
      21    -1     0     0   511   501  0.000000000E+00  0.000000000E+00  2.674850659E+01  2.674850659E+01  0.000000000E+00  0.00000E+00  9.000E+00
      21    -1     0     0   501   502  0.000000000E+00  0.000000000E+00 -3.021490292E+03  3.021490292E+03  0.000000000E+00  0.00000E+00  9.000E+00
      25     1     1     2     0     0  1.808627604E+02 -4.256899934E+01 -8.393121692E+02  8.686733420E+02  1.250000000E+02  0.00000E+00  9.000E+00
      25     1     1     2     0     0 -1.989999960E+02  3.630778009E+01 -2.144175940E+03  2.157321190E+03  1.250000000E+02  0.00000E+00  9.000E+00
      21     1     1     2   511   502  1.813723562E+01  6.261219241E+00 -1.125367607E+01  2.224426684E+01  2.920019320E-07  0.00000E+00  9.000E+00
#rwgt            1           1   3.2400249101560891E-002           7      257497           0
</event>
<event>
      5   9999  3.79277E-02  4.97382E+01 -1.00000E+00  1.39206E-01
       2    -1     0     0   502     0  0.000000000E+00  0.000000000E+00  2.089808133E+03  2.089808133E+03  0.000000000E+00  0.00000E+00  9.000E+00
      21    -1     0     0   501   502  0.000000000E+00  0.000000000E+00 -6.022039852E+01  6.022039852E+01  0.000000000E+00  0.00000E+00  9.000E+00
      25     1     1     2     0     0 -1.919418098E+02 -1.474506365E+02  3.331878981E+02  4.303748645E+02  1.250000000E+02  0.00000E+00  9.000E+00
      25     1     1     2     0     0  1.449433796E+02  1.311707028E+02  1.381715676E+03  1.401063006E+03  1.250000000E+02  0.00000E+00  9.000E+00
       2     1     1     2   501     0  4.699843020E+01  1.627993370E+01  3.146841604E+02  3.185906613E+02  3.814697266E-06  0.00000E+00  9.000E+00
#rwgt            1           1   5.0315220463581438E-002           7      257684           0
</event>
<event>
      5   9999  3.79277E-02  1.95150E+01 -1.00000E+00  1.67254E-01
       2    -1     0     0   502     0  0.000000000E+00  0.000000000E+00  1.888848564E+03  1.888848564E+03  0.000000000E+00  0.00000E+00  9.000E+00
      21    -1     0     0   501   502  0.000000000E+00  0.000000000E+00 -2.416336813E+02  2.416336813E+02  0.000000000E+00  0.00000E+00  9.000E+00
      25     1     1     2     0     0 -6.664935485E-01  7.404688843E+01 -1.165504755E+02  1.862589575E+02  1.250000000E+02  0.00000E+00  9.000E+00
      25     1     1     2     0     0 -1.656968959E+01 -6.489539027E+01 -3.442126717E+01  1.459307710E+02  1.250000000E+02  0.00000E+00  9.000E+00
       2     1     1     2   501     0  1.723618314E+01 -9.151498163E+00  1.798186626E+03  1.798292517E+03  2.157918644E-05  0.00000E+00  9.000E+00
#rwgt            1           1   6.1312153135381312E-002           7      257842           0
</event>
<event>
      5   9999  3.79277E-02  5.28564E+01 -1.00000E+00  1.37713E-01
      21    -1     0     0   502   511  0.000000000E+00  0.000000000E+00  7.880104319E+01  7.880104319E+01  0.000000000E+00  0.00000E+00  9.000E+00
      21    -1     0     0   501   502  0.000000000E+00  0.000000000E+00 -2.034110127E+03  2.034110127E+03  0.000000000E+00  0.00000E+00  9.000E+00
      25     1     1     2     0     0  2.692401941E+02  1.627035774E+02 -1.055183915E+03  1.108151989E+03  1.250000000E+02  0.00000E+00  9.000E+00
      25     1     1     2     0     0 -3.142381491E+02 -1.349729738E+02 -8.718088160E+02  9.447957079E+02  1.250000000E+02  0.00000E+00  9.000E+00
      21     1     1     2   501   511  4.499795503E+01 -2.773060360E+01 -2.831635347E+01  5.996347394E+01  6.743495762E-07  0.00000E+00  9.000E+00
#rwgt            1           1   3.1714332226640746E-002           7      257999           0
</event>
<event>
      5   9999  3.79277E-02  4.26841E+01 -1.00000E+00  1.43112E-01
      21    -1     0     0   502   512  0.000000000E+00  0.000000000E+00  3.655622434E+02  3.655622434E+02  0.000000000E+00  0.00000E+00  9.000E+00
      21    -1     0     0   501   502  0.000000000E+00  0.000000000E+00 -1.515812278E+02  1.515812278E+02  0.000000000E+00  0.00000E+00  9.000E+00
      25     1     1     2     0     0  1.644239319E+02  1.735245940E+01  1.227125475E+02  2.408728016E+02  1.250000000E+02  0.00000E+00  9.000E+00
      25     1     1     2     0     0 -1.646448471E+02  2.533105894E+01  4.452737422E+01  2.129724754E+02  1.250000000E+02  0.00000E+00  9.000E+00
      21     1     1     2   501   512  2.209151577E-01 -4.268351834E+01  4.674109386E+01  6.329819426E+01  9.536743164E-07  0.00000E+00  9.000E+00
#rwgt            2          11   2.3331073621750270E-003           7      258117           0
</event>
<event>
      5   9999  3.79277E-02  4.71498E+01 -1.00000E+00  1.40546E-01
      21    -1     0     0   502   501  0.000000000E+00  0.000000000E+00  7.725421382E+01  7.725421382E+01  0.000000000E+00  0.00000E+00  9.000E+00
      21    -1     0     0   501   511  0.000000000E+00  0.000000000E+00 -1.142979651E+03  1.142979651E+03  0.000000000E+00  0.00000E+00  9.000E+00
      25     1     1     2     0     0 -6.278338980E+01 -6.468973987E+01 -1.771164432E+01  1.551296839E+02  1.250000000E+02  0.00000E+00  9.000E+00
      25     1     1     2     0     0  5.739680679E+01  1.784867702E+01 -6.734770676E+02  6.876113213E+02  1.250000000E+02  0.00000E+00  9.000E+00
      21     1     1     2   502   511  5.386583014E+00  4.684106284E+01 -3.745367253E+02  3.774928596E+02  0.000000000E+00  0.00000E+00  9.000E+00
#rwgt            1           1   4.4579696725511167E-002           7      258152           0
</event>
<event>
      5   9999  3.79277E-02  2.55628E+02 -1.00000E+00  1.07901E-01
      21    -1     0     0   502   501  0.000000000E+00  0.000000000E+00  4.886745127E+02  4.886745127E+02  0.000000000E+00  0.00000E+00  9.000E+00
      -3    -1     0     0     0   502  0.000000000E+00  0.000000000E+00 -6.065988839E+02  6.065988839E+02  0.000000000E+00  0.00000E+00  9.000E+00
      25     1     1     2     0     0  1.057645874E+02  2.495849510E+02  3.640507169E+02  4.707830925E+02  1.250000000E+02  0.00000E+00  9.000E+00
      25     1     1     2     0     0 -5.005696440E+01 -1.008383831E-01 -1.139437705E+02  1.763913056E+02  1.250000000E+02  0.00000E+00  9.000E+00
      -3     1     1     2     0   501 -5.570762297E+01 -2.494841126E+02 -3.680313177E+02  4.480989985E+02  9.344061824E-06  0.00000E+00  9.000E+00
#rwgt            1           1   4.0382136956641231E-002           7      258301           0
</event>
<event>
      5   9999  3.79277E-02  2.30381E+01 -1.00000E+00  1.61456E-01
      21    -1     0     0   502   501  0.000000000E+00  0.000000000E+00  8.853688889E+02  8.853688889E+02  0.000000000E+00  0.00000E+00  9.000E+00
      21    -1     0     0   501   511  0.000000000E+00  0.000000000E+00 -1.541402032E+02  1.541402032E+02  0.000000000E+00  0.00000E+00  9.000E+00
      25     1     1     2     0     0  1.065002663E+02  2.067930571E+02  5.905898089E+02  6.469366256E+02  1.250000000E+02  0.00000E+00  9.000E+00
      25     1     1     2     0     0 -9.666467418E+01 -2.276261366E+02  1.914365473E+02  3.367946985E+02  1.250000000E+02  0.00000E+00  9.000E+00
      21     1     1     2   502   511 -9.835592122E+00  2.083307950E+01 -5.079767049E+01  5.577776798E+01  1.168007728E-06  0.00000E+00  9.000E+00
#rwgt            1           1   4.4173724402461194E-002           7      258347           0
</event>
<event>
      5   9999  3.79277E-02  5.13768E+01 -1.00000E+00  1.38406E-01
      21    -1     0     0   502   512  0.000000000E+00  0.000000000E+00  4.804236669E+01  4.804236669E+01  0.000000000E+00  0.00000E+00  9.000E+00
      21    -1     0     0   501   502  0.000000000E+00  0.000000000E+00 -1.216738240E+03  1.216738240E+03  0.000000000E+00  0.00000E+00  9.000E+00
      25     1     1     2     0     0 -1.132381262E+02 -9.255288934E+01 -4.545513594E+02  4.935897577E+02  1.250000000E+02  0.00000E+00  9.000E+00
      25     1     1     2     0     0  8.574014679E+01  1.359514783E+02 -6.791805525E+02  7.090454147E+02  1.250000000E+02  0.00000E+00  9.000E+00
      21     1     1     2   501   512  2.749797945E+01 -4.339858896E+01 -3.496396127E+01  6.214543415E+01  9.536743164E-07  0.00000E+00  9.000E+00
#rwgt            1           1   2.7737577398390272E-002           7      258605           0
</event>
<event>
      5   9999 -3.79277E-02  2.99469E+02 -1.00000E+00  1.05617E-01
      21    -1     0     0   502   501  0.000000000E+00  0.000000000E+00  3.196834992E+02  3.196834992E+02  0.000000000E+00  0.00000E+00  9.000E+00
      21    -1     0     0   501   511  0.000000000E+00  0.000000000E+00 -9.588145254E+02  9.588145254E+02  0.000000000E+00  0.00000E+00  9.000E+00
      25     1     1     2     0     0 -3.047565210E+02 -3.487439830E+02 -1.266968233E+02  4.961612518E+02  1.250000000E+02  0.00000E+00  9.000E+00
      25     1     1     2     0     0  1.957447395E+01  2.573492771E+02 -3.010804042E+02  4.157958877E+02  1.250000000E+02  0.00000E+00  9.000E+00
      21     1     1     2   502   511  2.851820471E+02  9.139470593E+01 -2.113537987E+02  3.665408851E+02  5.394796609E-06  0.00000E+00  9.000E+00
#rwgt            1           1  -3.2229439149281766E-002           7      258818           0
</event>
<event>
      5   9999  3.79277E-02  2.92473E+01 -1.00000E+00  1.53810E-01
      21    -1     0     0   502   512  0.000000000E+00  0.000000000E+00  1.288106314E+01  1.288106314E+01  0.000000000E+00  0.00000E+00  9.000E+00
      21    -1     0     0   501   502  0.000000000E+00  0.000000000E+00 -2.415578897E+03  2.415578897E+03  0.000000000E+00  0.00000E+00  9.000E+00
      25     1     1     2     0     0 -5.941901845E+01 -6.135958660E+01 -8.979930119E+02  9.106657279E+02  1.250000000E+02  0.00000E+00  9.000E+00
      25     1     1     2     0     0  3.932687002E+01  4.010612816E+01 -1.443175594E+03  1.449667514E+03  1.250000000E+02  0.00000E+00  9.000E+00
      21     1     1     2   501   512  2.009214843E+01  2.125345844E+01 -6.152922804E+01  6.812671889E+01  6.743495762E-07  0.00000E+00  9.000E+00
#rwgt            1           1  0.13268664937473834                7      258879           0
</event>
<event>
      5   9999  3.79277E-02  1.18496E+01 -1.00000E+00  1.87606E-01
      21    -1     0     0   502   511  0.000000000E+00  0.000000000E+00  5.905982109E+02  5.905982109E+02  0.000000000E+00  0.00000E+00  9.000E+00
      21    -1     0     0   501   502  0.000000000E+00  0.000000000E+00 -9.206856735E+01  9.206856735E+01  0.000000000E+00  0.00000E+00  9.000E+00
      25     1     1     2     0     0 -1.701234220E+02  9.253847197E+00  2.887032787E+02  3.577739447E+02  1.250000000E+02  0.00000E+00  9.000E+00
      25     1     1     2     0     0  1.813268649E+02 -1.311336692E+01  1.570829778E+02  2.708347361E+02  1.250000000E+02  0.00000E+00  9.000E+00
      21     1     1     2   501   511 -1.120344297E+01  3.859519722E+00  5.274338704E+01  5.405809748E+01  6.743495762E-07  0.00000E+00  9.000E+00
#rwgt            1           1   3.1748841841901999E-002           7      259174           0
</event>
<event>
      5   9999  3.79277E-02  2.32940E+02 -1.00000E+00  1.09290E-01
      21    -1     0     0   502   501  0.000000000E+00  0.000000000E+00  6.093148253E+02  6.093148253E+02  0.000000000E+00  0.00000E+00  9.000E+00
      21    -1     0     0   512   502  0.000000000E+00  0.000000000E+00 -3.209053575E+02  3.209053575E+02  0.000000000E+00  0.00000E+00  9.000E+00
      25     1     1     2     0     0 -2.079492543E+02 -5.920911602E+01  8.911214641E+01  2.651689771E+02  1.250000000E+02  0.00000E+00  9.000E+00
      25     1     1     2     0     0  2.213592612E+02 -1.733445219E+02  2.824904894E+02  4.177009964E+02  1.250000000E+02  0.00000E+00  9.000E+00
      21     1     1     2   512   501 -1.341000686E+01  2.325536379E+02 -8.319316796E+01  2.473502092E+02  5.800974398E-06  0.00000E+00  9.000E+00
#rwgt            1           1   3.8399430330066819E-002           7      259383           0
</event>
<event>
      5   9999  3.79277E-02  7.01134E+01 -1.00000E+00  1.31185E-01
      21    -1     0     0   502   501  0.000000000E+00  0.000000000E+00  3.823334722E+02  3.823334722E+02  0.000000000E+00  0.00000E+00  9.000E+00
      21    -1     0     0   501   511  0.000000000E+00  0.000000000E+00 -1.711058748E+02  1.711058748E+02  0.000000000E+00  0.00000E+00  9.000E+00
      25     1     1     2     0     0  1.407002802E+02  3.102079933E+01  9.047887011E+01  2.111167562E+02  1.250000000E+02  0.00000E+00  9.000E+00
      25     1     1     2     0     0 -2.084655859E+02 -4.901398621E+01  1.104805312E+02  2.714612664E+02  1.250000000E+02  0.00000E+00  9.000E+00
      21     1     1     2   502   511  6.776530577E+01  1.799318687E+01  1.026819609E+01  7.086132437E+01  8.259061849E-07  0.00000E+00  9.000E+00
#rwgt            1           1   2.8761429576638270E-002           7      259467           0
</event>
<event>
      5   9999  3.79277E-02  4.66784E+01 -1.00000E+00  1.40801E-01
      21    -1     0     0   502   501  0.000000000E+00  0.000000000E+00  3.190269497E+02  3.190269497E+02  0.000000000E+00  0.00000E+00  9.000E+00
      21    -1     0     0   512   502  0.000000000E+00  0.000000000E+00 -1.861137730E+02  1.861137730E+02  0.000000000E+00  0.00000E+00  9.000E+00
      25     1     1     2     0     0  1.374318800E+02 -4.549222233E+01 -6.127585493E+01  2.008402209E+02  1.250000000E+02  0.00000E+00  9.000E+00
      25     1     1     2     0     0 -1.038128587E+02  1.310965475E+01  1.991479939E+02  2.573594688E+02  1.250000000E+02  0.00000E+00  9.000E+00
      21     1     1     2   512   501 -3.361902127E+01  3.238256757E+01 -4.958962281E+00  4.694103302E+01  3.424026159E-07  0.00000E+00  9.000E+00
#rwgt            1           1  0.17769580307685381                7      259542           0
</event>
<event>
      5   9999  3.79277E-02  3.63288E+01 -1.00000E+00  1.47482E-01
      21    -1     0     0   502   501  0.000000000E+00  0.000000000E+00  9.483647980E+02  9.483647980E+02  0.000000000E+00  0.00000E+00  9.000E+00
      21    -1     0     0   501   511  0.000000000E+00  0.000000000E+00 -9.016622685E+01  9.016622685E+01  0.000000000E+00  0.00000E+00  9.000E+00
      25     1     1     2     0     0  5.015596742E+00 -8.443377411E+01  1.319420782E+02  2.004692755E+02  1.250000000E+02  0.00000E+00  9.000E+00
      25     1     1     2     0     0  1.914083060E+00  1.200955131E+02  7.653249861E+02  7.847126419E+02  1.250000000E+02  0.00000E+00  9.000E+00
      21     1     1     2   502   511 -6.929679802E+00 -3.566173900E+01 -3.906849327E+01  5.334910737E+01  1.430511475E-06  0.00000E+00  9.000E+00
#rwgt            1           1   4.5095203196991576E-002           7      259832           0
</event>
<event>
      5   9999  3.79277E-02  2.11274E+01 -1.00000E+00  1.64428E-01
      21    -1     0     0   502   501  0.000000000E+00  0.000000000E+00  1.217061240E+02  1.217061240E+02  0.000000000E+00  0.00000E+00  9.000E+00
      21    -1     0     0   512   502  0.000000000E+00  0.000000000E+00 -4.366939961E+02  4.366939961E+02  0.000000000E+00  0.00000E+00  9.000E+00
      25     1     1     2     0     0  9.433458772E+01 -5.573189818E+01 -3.237552236E+02  3.639333781E+02  1.250000000E+02  0.00000E+00  9.000E+00
      25     1     1     2     0     0 -8.697261443E+01  3.592865270E+01  3.545550358E+01  1.604281661E+02  1.250000000E+02  0.00000E+00  9.000E+00
      21     1     1     2   512   501 -7.361973293E+00  1.980324548E+01 -2.668815204E+01  3.403857579E+01  4.768371582E-07  0.00000E+00  9.000E+00
#rwgt            1           1   3.4396251027956355E-002           7      260056           0
</event>
<event>
      5   9999  3.79277E-02  3.13326E+01 -1.00000E+00  1.51740E-01
      21    -1     0     0   502   511  0.000000000E+00  0.000000000E+00  1.360900881E+03  1.360900881E+03  0.000000000E+00  0.00000E+00  9.000E+00
      21    -1     0     0   501   502  0.000000000E+00  0.000000000E+00 -1.058042688E+02  1.058042688E+02  0.000000000E+00  0.00000E+00  9.000E+00
      25     1     1     2     0     0  1.336381050E+02  2.066203945E+01  1.622298205E+02  2.454171503E+02  1.250000000E+02  0.00000E+00  9.000E+00
      25     1     1     2     0     0 -1.027600727E+02 -1.534441859E+01  3.926169857E+01  1.672171184E+02  1.250000000E+02  0.00000E+00  9.000E+00
      21     1     1     2   501   511 -3.087803232E+01 -5.317620861E+00  1.053605093E+03  1.054070881E+03  0.000000000E+00  0.00000E+00  9.000E+00
#rwgt            1           1   4.4401988025999005E-002           7      260161           0
</event>
<event>
      5   9999  3.79277E-02  4.30403E+01 -1.00000E+00  1.42894E-01
      21    -1     0     0   502   501  0.000000000E+00  0.000000000E+00  2.296759248E+02  2.296759248E+02  0.000000000E+00  0.00000E+00  9.000E+00
       2    -1     0     0   501     0  0.000000000E+00  0.000000000E+00 -1.190311499E+03  1.190311499E+03  0.000000000E+00  0.00000E+00  9.000E+00
      25     1     1     2     0     0 -3.860279601E+00 -1.083222003E+02  1.598060902E+02  2.300251884E+02  1.250000000E+02  0.00000E+00  9.000E+00
      25     1     1     2     0     0  1.787425238E+01  6.762732347E+01 -1.152489131E+02  1.838484587E+02  1.250000000E+02  0.00000E+00  9.000E+00
       2     1     1     2   502     0 -1.401397278E+01  4.069487682E+01 -1.005192751E+03  1.006113777E+03  0.000000000E+00  0.00000E+00  9.000E+00
#rwgt            1           1   3.5225180665547251E-002           7      260352           0
</event>
<event>
      5   9999  3.79277E-02  4.24368E+01 -1.00000E+00  1.43265E-01
       1    -1     0     0   502     0  0.000000000E+00  0.000000000E+00  7.040434916E+02  7.040434916E+02  0.000000000E+00  0.00000E+00  9.000E+00
      21    -1     0     0   501   502  0.000000000E+00  0.000000000E+00 -3.944425231E+02  3.944425231E+02  0.000000000E+00  0.00000E+00  9.000E+00
      25     1     1     2     0     0  7.809991894E+01  1.185163082E+02 -2.624596504E+02  3.235054570E+02  1.250000000E+02  0.00000E+00  9.000E+00
      25     1     1     2     0     0 -4.118680910E+01 -1.394519369E+02 -9.393119153E+00  1.919802767E+02  1.250000000E+02  0.00000E+00  9.000E+00
       1     1     1     2   501     0 -3.691310985E+01  2.093562872E+01  5.814537380E+02  5.830002810E+02  7.629394531E-06  0.00000E+00  9.000E+00
#rwgt            1           1   3.3750231206771356E-002           7      260584           0
</event>
<event>
      5   9999  3.79277E-02  1.85444E+01 -1.00000E+00  1.69123E-01
      21    -1     0     0   502   501  0.000000000E+00  0.000000000E+00  2.881593897E+01  2.881593897E+01  0.000000000E+00  0.00000E+00  9.000E+00
       2    -1     0     0   501     0  0.000000000E+00  0.000000000E+00 -3.120049882E+03  3.120049882E+03  0.000000000E+00  0.00000E+00  9.000E+00
      25     1     1     2     0     0  1.060629940E+02 -1.313245145E+01 -3.506665116E+02  3.873161787E+02  1.250000000E+02  0.00000E+00  9.000E+00
      25     1     1     2     0     0 -1.188907355E+02 -2.594742132E-01 -7.015866999E+02  7.224845824E+02  1.250000000E+02  0.00000E+00  9.000E+00
       2     1     1     2   502     0  1.282774154E+01  1.339192566E+01 -2.038980732E+03  2.039065060E+03  2.157918644E-05  0.00000E+00  9.000E+00
#rwgt            1           1   3.9037310751013604E-002           7      260748           0
</event>
<event>
      5   9999  3.79277E-02  6.80954E+00 -1.00000E+00  2.17261E-01
      21    -1     0     0   502   501  0.000000000E+00  0.000000000E+00  8.484743845E+02  8.484743845E+02  0.000000000E+00  0.00000E+00  9.000E+00
      21    -1     0     0   511   502  0.000000000E+00  0.000000000E+00 -1.282047628E+02  1.282047628E+02  0.000000000E+00  0.00000E+00  9.000E+00
      25     1     1     2     0     0 -1.695093590E+02  5.216650758E+01  4.982260974E+02  5.434234182E+02  1.250000000E+02  0.00000E+00  9.000E+00
      25     1     1     2     0     0  1.748152134E+02 -5.643473408E+01  2.897893113E+02  3.651685679E+02  1.250000000E+02  0.00000E+00  9.000E+00
      21     1     1     2   511   501 -5.305854431E+00  4.268226497E+00 -6.774578710E+01  6.808716119E+01  1.651812370E-06  0.00000E+00  9.000E+00
#rwgt            1           1   3.9316231917212070E-002           7      260929           0
</event>
<event>
      5   9999  3.79277E-02  1.47230E+02 -1.00000E+00  1.16715E-01
      21    -1     0     0   502   501  0.000000000E+00  0.000000000E+00  3.986147691E+02  3.986147691E+02  0.000000000E+00  0.00000E+00  9.000E+00
      21    -1     0     0   501   512  0.000000000E+00  0.000000000E+00 -2.258429020E+02  2.258429020E+02  0.000000000E+00  0.00000E+00  9.000E+00
      25     1     1     2     0     0  2.864030427E+00  4.516646435E+01  2.665102896E+02  2.978270415E+02  1.250000000E+02  0.00000E+00  9.000E+00
      25     1     1     2     0     0  6.990312922E+01  8.282374098E+01 -4.350000801E+01  1.710656898E+02  1.250000000E+02  0.00000E+00  9.000E+00
      21     1     1     2   502   512 -7.276715965E+01 -1.279902053E+02 -5.023841452E+01  1.555649397E+02  0.000000000E+00  0.00000E+00  9.000E+00
#rwgt            2          11   2.0954356520614271E-003           7      261214           0
</event>
<event>
      5   9999  3.79277E-02  2.21558E+01 -1.00000E+00  1.62783E-01
      -2    -1     0     0     0   501  0.000000000E+00  0.000000000E+00  5.983527462E+02  5.983527462E+02  0.000000000E+00  0.00000E+00  9.000E+00
      21    -1     0     0   501   502  0.000000000E+00  0.000000000E+00 -1.029622750E+02  1.029622750E+02  0.000000000E+00  0.00000E+00  9.000E+00
      25     1     1     2     0     0  1.073823800E+02  1.577498369E+02  1.960054650E+02  3.007642413E+02  1.250000000E+02  0.00000E+00  9.000E+00
      25     1     1     2     0     0 -8.571000750E+01 -1.531466466E+02  1.848481801E+02  2.838907368E+02  1.250000000E+02  0.00000E+00  9.000E+00
      -2     1     1     2     0   502 -2.167237253E+01 -4.603190271E+00  1.145368261E+02  1.166600430E+02  0.000000000E+00  0.00000E+00  9.000E+00
#rwgt            1           1   3.5587192363919495E-002           7      261324           0
</event>
<event>
      5   9999  3.79277E-02  1.71115E+01 -1.00000E+00  1.72159E-01
      21    -1     0     0   511   501  0.000000000E+00  0.000000000E+00  2.528079131E+02  2.528079131E+02  0.000000000E+00  0.00000E+00  9.000E+00
      21    -1     0     0   501   502  0.000000000E+00  0.000000000E+00 -2.803982558E+02  2.803982558E+02  0.000000000E+00  0.00000E+00  9.000E+00
      25     1     1     2     0     0  1.160351648E+02 -1.803529027E+02 -1.054367900E+02  2.696910189E+02  1.250000000E+02  0.00000E+00  9.000E+00
      25     1     1     2     0     0 -1.055780446E+02  1.668084652E+02  6.633949741E+01  2.428944554E+02  1.250000000E+02  0.00000E+00  9.000E+00
      21     1     1     2   511   502 -1.045712019E+01  1.354443751E+01  1.150694988E+01  2.062069460E+01  1.685873940E-07  0.00000E+00  9.000E+00
#rwgt            1           1   2.5632575762215136E-002           7      261462           0
</event>
<event>
      5   9999  3.79277E-02  5.98467E+01 -1.00000E+00  1.34763E-01
      21    -1     0     0   502   501  0.000000000E+00  0.000000000E+00  1.242278100E+02  1.242278100E+02  0.000000000E+00  0.00000E+00  9.000E+00
      21    -1     0     0   512   502  0.000000000E+00  0.000000000E+00 -8.306465696E+02  8.306465696E+02  0.000000000E+00  0.00000E+00  9.000E+00
      25     1     1     2     0     0  1.202395936E+02  1.786705856E-01 -2.573378591E+02  3.103310579E+02  1.250000000E+02  0.00000E+00  9.000E+00
      25     1     1     2     0     0 -1.612719791E+02  4.338708859E+01 -1.805777594E+01  2.093852286E+02  1.250000000E+02  0.00000E+00  9.000E+00
      21     1     1     2   512   501  4.103238553E+01 -4.356575917E+01 -4.310231245E+02  4.351580930E+02  7.629394531E-06  0.00000E+00  9.000E+00
#rwgt            1           1   4.5083732475337639E-002           7      261611           0
</event>
<event>
      5   9999  3.79277E-02  6.33645E+01 -1.00000E+00  1.33449E-01
      21    -1     0     0   502   501  0.000000000E+00  0.000000000E+00  6.451241425E+01  6.451241425E+01  0.000000000E+00  0.00000E+00  9.000E+00
       1    -1     0     0   501     0  0.000000000E+00  0.000000000E+00 -1.181946271E+03  1.181946271E+03  0.000000000E+00  0.00000E+00  9.000E+00
      25     1     1     2     0     0  6.053831184E+01 -1.224951228E+02 -4.020276251E+02  4.426298156E+02  1.250000000E+02  0.00000E+00  9.000E+00
      25     1     1     2     0     0 -4.224397163E+00  1.515434498E+02 -1.857343428E+02  2.703803040E+02  1.250000000E+02  0.00000E+00  9.000E+00
       1     1     1     2   502     0 -5.631391468E+01 -2.904832701E+01 -5.296718889E+02  5.334485657E+02  0.000000000E+00  0.00000E+00  9.000E+00
#rwgt            1           1   3.6636631647050687E-002           7      261840           0
</event>
<event>
      5   9999  3.79277E-02  8.81851E+01 -1.00000E+00  1.26335E-01
      21    -1     0     0   511   501  0.000000000E+00  0.000000000E+00  1.288972774E+02  1.288972774E+02  0.000000000E+00  0.00000E+00  9.000E+00
      21    -1     0     0   501   502  0.000000000E+00  0.000000000E+00 -6.642314990E+02  6.642314990E+02  0.000000000E+00  0.00000E+00  9.000E+00
      25     1     1     2     0     0 -4.450197891E+01  1.873402582E+02 -3.532995727E+02  4.213340558E+02  1.250000000E+02  0.00000E+00  9.000E+00
      25     1     1     2     0     0  1.265434891E+02 -1.550014541E+02 -1.358409325E+02  2.722433918E+02  1.250000000E+02  0.00000E+00  9.000E+00
      21     1     1     2   511   502 -8.204151018E+01 -3.233880409E+01 -4.619371629E+01  9.955132880E+01  6.743495762E-07  0.00000E+00  9.000E+00
#rwgt            1           1   3.4462482176298263E-002           7      261912           0
</event>
<event>
      5   9999  3.79277E-02  2.41854E+01 -1.00000E+00  1.59836E-01
       2    -1     0     0   502     0  0.000000000E+00  0.000000000E+00  5.660833822E+02  5.660833822E+02  0.000000000E+00  0.00000E+00  9.000E+00
      21    -1     0     0   501   502  0.000000000E+00  0.000000000E+00 -1.522117738E+02  1.522117738E+02  0.000000000E+00  0.00000E+00  9.000E+00
      25     1     1     2     0     0 -1.268657581E+01  4.457897857E+01  8.463500780E+01  1.579123779E+02  1.250000000E+02  0.00000E+00  9.000E+00
      25     1     1     2     0     0 -3.528994814E+00 -2.663493975E+01 -7.974573930E+01  1.506859541E+02  1.250000000E+02  0.00000E+00  9.000E+00
       2     1     1     2   501     0  1.621557062E+01 -1.794403882E+01  4.089823399E+02  4.096968240E+02  7.629394531E-06  0.00000E+00  9.000E+00
#rwgt            1           1   3.4682025119639928E-002           7      261966           0
</event>
<event>
      5   9999  3.79277E-02  3.52727E+01 -1.00000E+00  1.48311E-01
      21    -1     0     0   511   501  0.000000000E+00  0.000000000E+00  2.724131457E+02  2.724131457E+02  0.000000000E+00  0.00000E+00  9.000E+00
      21    -1     0     0   501   502  0.000000000E+00  0.000000000E+00 -5.073415521E+02  5.073415521E+02  0.000000000E+00  0.00000E+00  9.000E+00
      25     1     1     2     0     0 -1.536491085E+02 -1.729969553E+02 -3.869502391E+02  4.678584002E+02  1.250000000E+02  0.00000E+00  9.000E+00
      25     1     1     2     0     0  1.203415864E+02  1.613878081E+02  1.351238157E+02  2.727848375E+02  1.250000000E+02  0.00000E+00  9.000E+00
      21     1     1     2   511   502  3.330752202E+01  1.160914725E+01  1.689801711E+01  3.911146002E+01  4.768371582E-07  0.00000E+00  9.000E+00
#rwgt            1           1   5.1877579708313422E-002           7      262124           0
</event>
<event>
      5   9999  3.79277E-02  3.30088E+01 -1.00000E+00  1.50212E-01
      21    -1     0     0   512   501  0.000000000E+00  0.000000000E+00  1.718503330E+02  1.718503330E+02  0.000000000E+00  0.00000E+00  9.000E+00
      21    -1     0     0   501   502  0.000000000E+00  0.000000000E+00 -2.701047565E+02  2.701047565E+02  0.000000000E+00  0.00000E+00  9.000E+00
      25     1     1     2     0     0 -6.240555526E+01 -2.972647427E+01 -1.837499449E+02  2.327383915E+02  1.250000000E+02  0.00000E+00  9.000E+00
      25     1     1     2     0     0  9.406951574E+01  2.040063185E+01  6.725771540E+01  1.715046934E+02  1.250000000E+02  0.00000E+00  9.000E+00
      21     1     1     2   512   502 -3.166396048E+01  9.325842418E+00  1.823780605E+01  3.771200472E+01  2.384185791E-07  0.00000E+00  9.000E+00
#rwgt            1           1   3.2415480185236357E-002           7      262262           0
</event>
<event>
      5   9999 -3.79277E-02  4.59851E+01 -1.00000E+00  1.41182E-01
      21    -1     0     0   511   501  0.000000000E+00  0.000000000E+00  5.346960874E+01  5.346960874E+01  0.000000000E+00  0.00000E+00  9.000E+00
      21    -1     0     0   501   502  0.000000000E+00  0.000000000E+00 -1.252495203E+03  1.252495203E+03  0.000000000E+00  0.00000E+00  9.000E+00
      25     1     1     2     0     0  1.808427743E+02 -3.785528348E+01 -6.902914476E+02  7.254408412E+02  1.250000000E+02  0.00000E+00  9.000E+00
      25     1     1     2     0     0 -1.362710098E+02  4.916824478E+01 -4.977274396E+02  5.332400103E+02  1.250000000E+02  0.00000E+00  9.000E+00
      21     1     1     2   511   502 -4.457176452E+01 -1.131296130E+01 -1.100670692E+01  4.728396010E+01  1.244581522E-06  0.00000E+00  9.000E+00
#rwgt            1           1  -4.1412490675589164E-002           7      262340           0
</event>
<event>
      5   9999  3.79277E-02  6.96322E+01 -1.00000E+00  1.31337E-01
      21    -1     0     0   512   501  0.000000000E+00  0.000000000E+00  7.736689785E+02  7.736689785E+02  0.000000000E+00  0.00000E+00  9.000E+00
      21    -1     0     0   501   502  0.000000000E+00  0.000000000E+00 -1.046350865E+02  1.046350865E+02  0.000000000E+00  0.00000E+00  9.000E+00
      25     1     1     2     0     0 -3.002997060E+01  4.659577395E+01 -3.934415915E+01  1.422881869E+02  1.250000000E+02  0.00000E+00  9.000E+00
      25     1     1     2     0     0  2.553665692E+00  1.738624477E+01  3.828127716E+02  4.030873613E+02  1.250000000E+02  0.00000E+00  9.000E+00
      21     1     1     2   512   502  2.747630491E+01 -6.398201872E+01  3.255652795E+02  3.329285168E+02  5.394796609E-06  0.00000E+00  9.000E+00
#rwgt            1           1   1.9114183234497480E-002           7      262481           0
</event>
<event>
      5   9999  3.79277E-02  4.19250E+01 -1.00000E+00  1.43585E-01
      21    -1     0     0   502   501  0.000000000E+00  0.000000000E+00  3.536997232E+02  3.536997232E+02  0.000000000E+00  0.00000E+00  9.000E+00
      21    -1     0     0   501   511  0.000000000E+00  0.000000000E+00 -2.819545393E+02  2.819545393E+02  0.000000000E+00  0.00000E+00  9.000E+00
      25     1     1     2     0     0  4.475521239E+01 -1.245294227E+02  1.887363483E+01  1.830077054E+02  1.250000000E+02  0.00000E+00  9.000E+00
      25     1     1     2     0     0 -7.146349686E+00  1.060016205E+02  2.233301358E+02  2.771078552E+02  1.250000000E+02  0.00000E+00  9.000E+00
      21     1     1     2   502   511 -3.760886271E+01  1.852780222E+01 -1.704585868E+02  1.755387018E+02  3.303624740E-06  0.00000E+00  9.000E+00
#rwgt            1           1   3.7746900254201354E-002           7      262602           0
</event>
<event>
      5   9999 -3.79277E-02  1.35002E+01 -1.00000E+00  1.81805E-01
      21    -1     0     0   512   501  0.000000000E+00  0.000000000E+00  1.833490543E+01  1.833490543E+01  0.000000000E+00  0.00000E+00  9.000E+00
      21    -1     0     0   501   502  0.000000000E+00  0.000000000E+00 -2.483400103E+03  2.483400103E+03  0.000000000E+00  0.00000E+00  9.000E+00
      25     1     1     2     0     0  1.466068351E+02  5.102804499E+01 -1.142158788E+03  1.159417579E+03  1.250000000E+02  0.00000E+00  9.000E+00
      25     1     1     2     0     0 -1.557629624E+02 -4.110738027E+01 -1.298623372E+03  1.314533978E+03  1.250000000E+02  0.00000E+00  9.000E+00
      21     1     1     2   512   502  9.156127308E+00 -9.920664718E+00 -2.428303752E+01  2.778345131E+01  8.920806376E-07  0.00000E+00  9.000E+00
#rwgt            1           1  -2.2026679373879254E-002           7      262748           0
</event>
<event>
      5   9999  3.79277E-02  1.09210E+02 -1.00000E+00  1.22131E-01
      21    -1     0     0   502   501  0.000000000E+00  0.000000000E+00  6.191715053E+02  6.191715053E+02  0.000000000E+00  0.00000E+00  9.000E+00
      21    -1     0     0   511   502  0.000000000E+00  0.000000000E+00 -1.391694545E+02  1.391694545E+02  0.000000000E+00  0.00000E+00  9.000E+00
      25     1     1     2     0     0 -1.830561594E+02 -6.869798870E+01  1.202572849E+02  2.613728864E+02  1.250000000E+02  0.00000E+00  9.000E+00
      25     1     1     2     0     0  1.008433006E+02 -3.190414127E+00  3.526668132E+02  3.875286198E+02  1.250000000E+02  0.00000E+00  9.000E+00
      21     1     1     2   511   501  8.221285881E+01  7.188840283E+01  7.077952625E+00  1.094394537E+02  2.005410652E-06  0.00000E+00  9.000E+00
#rwgt            1           1   3.7638094761650406E-002           7      262961           0
</event>
<event>
      5   9999  3.79277E-02  5.17824E+01 -1.00000E+00  1.38213E-01
      -1    -1     0     0     0   501  0.000000000E+00  0.000000000E+00  1.969665862E+03  1.969665862E+03  0.000000000E+00  0.00000E+00  9.000E+00
      21    -1     0     0   501   502  0.000000000E+00  0.000000000E+00 -6.481586438E+01  6.481586438E+01  0.000000000E+00  0.00000E+00  9.000E+00
      25     1     1     2     0     0  9.530533941E+01  6.300572099E+00  7.583121926E+01  1.746372776E+02  1.250000000E+02  0.00000E+00  9.000E+00
      25     1     1     2     0     0 -1.344797363E+02  2.756356786E+01  5.641221667E+02  5.938883470E+02  1.250000000E+02  0.00000E+00  9.000E+00
      -1     1     1     2     0   502  3.917439685E+01 -3.386413996E+01  1.264896611E+03  1.265956101E+03  2.157918644E-05  0.00000E+00  9.000E+00
#rwgt            1           1   3.9536672534250160E-002           7      263082           0
</event>
<event>
      5   9999  3.79277E-02  4.10977E+01 -1.00000E+00  1.44115E-01
      21    -1     0     0   502   511  0.000000000E+00  0.000000000E+00  1.954056015E+02  1.954056015E+02  0.000000000E+00  0.00000E+00  9.000E+00
      21    -1     0     0   501   502  0.000000000E+00  0.000000000E+00 -3.213596675E+02  3.213596675E+02  0.000000000E+00  0.00000E+00  9.000E+00
      25     1     1     2     0     0  5.795377757E+01 -1.390118272E+01  1.079541837E+02  1.755875536E+02  1.250000000E+02  0.00000E+00  9.000E+00
      25     1     1     2     0     0 -1.912320025E+01  2.736243750E+01 -2.614455185E+02  2.917073172E+02  1.250000000E+02  0.00000E+00  9.000E+00
      21     1     1     2   501   511 -3.883057732E+01 -1.346125478E+01  2.753726889E+01  4.947039815E+01  1.118282261E-06  0.00000E+00  9.000E+00
#rwgt            1           1   4.6876815265500429E-002           7      263211           0
</event>
<event>
      5   9999  3.79277E-02  1.13798E+02 -1.00000E+00  1.21355E-01
      21    -1     0     0   502   501  0.000000000E+00  0.000000000E+00  3.140454507E+02  3.140454507E+02  0.000000000E+00  0.00000E+00  9.000E+00
      21    -1     0     0   501   512  0.000000000E+00  0.000000000E+00 -3.849572240E+02  3.849572240E+02  0.000000000E+00  0.00000E+00  9.000E+00
      25     1     1     2     0     0 -4.737131699E+01 -1.322233814E+02  1.867061379E+02  2.649740482E+02  1.250000000E+02  0.00000E+00  9.000E+00
      25     1     1     2     0     0 -6.631321124E+01  1.271365912E+02 -4.907130278E+01  1.964539324E+02  1.250000000E+02  0.00000E+00  9.000E+00
      21     1     1     2   502   512  1.136845282E+02  5.086790193E+00 -2.085466085E+02  2.375746941E+02  0.000000000E+00  0.00000E+00  9.000E+00
#rwgt            2          11   2.1483124482985002E-003           7      263451           0
</event>
<event>
      5   9999  3.79277E-02  1.07935E+02 -1.00000E+00  1.22355E-01
      21    -1     0     0   502   501  0.000000000E+00  0.000000000E+00  1.692466706E+02  1.692466706E+02  0.000000000E+00  0.00000E+00  9.000E+00
      21    -1     0     0   511   502  0.000000000E+00  0.000000000E+00 -5.482454910E+02  5.482454910E+02  0.000000000E+00  0.00000E+00  9.000E+00
      25     1     1     2     0     0 -1.119628915E+02  1.869903080E+02 -1.198126645E+02  2.783543406E+02  1.250000000E+02  0.00000E+00  9.000E+00
      25     1     1     2     0     0  4.145764919E+00 -1.920308915E+02 -1.079099185E+02  2.533033777E+02  1.250000000E+02  0.00000E+00  9.000E+00
      21     1     1     2   511   501  1.078171266E+02  5.040583439E+00 -1.512762374E+02  1.858344432E+02  0.000000000E+00  0.00000E+00  9.000E+00
#rwgt            2          11   2.3351578753108269E-003           7      263516           0
</event>
<event>
      5   9999  3.79277E-02  5.31639E+01 -1.00000E+00  1.37572E-01
      21    -1     0     0   502   501  0.000000000E+00  0.000000000E+00  8.465086780E+02  8.465086780E+02  0.000000000E+00  0.00000E+00  9.000E+00
      21    -1     0     0   512   502  0.000000000E+00  0.000000000E+00 -5.426049107E+01  5.426049107E+01  0.000000000E+00  0.00000E+00  9.000E+00
      25     1     1     2     0     0  8.698477992E+01  3.422814678E+01  1.874232627E+02  2.439065341E+02  1.250000000E+02  0.00000E+00  9.000E+00
      25     1     1     2     0     0 -1.161044778E+02  1.025152129E+01  5.654238077E+02  5.906897881E+02  1.250000000E+02  0.00000E+00  9.000E+00
      21     1     1     2   512   501  2.911969789E+01 -4.447966808E+01  3.940111651E+01  6.617284685E+01  8.259061849E-07  0.00000E+00  9.000E+00
#rwgt            1           1   1.8269379235837938E-002           7      263626           0
</event>
<event>
      5   9999  3.79277E-02  1.27856E+02 -1.00000E+00  1.19211E-01
       1    -1     0     0   502     0  0.000000000E+00  0.000000000E+00  1.871848498E+03  1.871848498E+03  0.000000000E+00  0.00000E+00  9.000E+00
      21    -1     0     0   501   502  0.000000000E+00  0.000000000E+00 -2.011621279E+02  2.011621279E+02  0.000000000E+00  0.00000E+00  9.000E+00
      25     1     1     2     0     0 -3.253096548E+02  9.523424122E+01  1.528526073E+02  3.922815975E+02  1.250000000E+02  0.00000E+00  9.000E+00
      25     1     1     2     0     0  3.137117882E+02  3.209479867E+01  2.900828263E+02  4.463386700E+02  1.250000000E+02  0.00000E+00  9.000E+00
       1     1     1     2   501     0  1.159786656E+01 -1.273290399E+02  1.227750937E+03  1.234390359E+03  1.525878906E-05  0.00000E+00  9.000E+00
#rwgt            1           1   2.9549563394573083E-002           7      263710           0
</event>
<event>
      5   9999  3.79277E-02  1.21446E+02 -1.00000E+00  1.20148E-01
      21    -1     0     0   511   501  0.000000000E+00  0.000000000E+00  3.073091717E+03  3.073091717E+03  0.000000000E+00  0.00000E+00  9.000E+00
      21    -1     0     0   501   502  0.000000000E+00  0.000000000E+00 -3.051863773E+01  3.051863773E+01  0.000000000E+00  0.00000E+00  9.000E+00
      25     1     1     2     0     0  1.749628477E+02  4.006580605E+01  1.757287727E+03  1.770847938E+03  1.250000000E+02  0.00000E+00  9.000E+00
      25     1     1     2     0     0 -5.974396967E+01 -7.845423107E+01  2.964720689E+02  3.365190870E+02  1.250000000E+02  0.00000E+00  9.000E+00
      21     1     1     2   511   502 -1.152188781E+02  3.838842502E+01  9.888132842E+02  9.962433298E+02  1.078959322E-05  0.00000E+00  9.000E+00
#rwgt            2          11   1.8091356730318676E-003           7      263896           0
</event>
<event>
      5   9999 -3.79277E-02  1.26704E+02 -1.00000E+00  1.19375E-01
      21    -1     0     0   502   501  0.000000000E+00  0.000000000E+00  4.714707072E+02  4.714707072E+02  0.000000000E+00  0.00000E+00  9.000E+00
       1    -1     0     0   501     0  0.000000000E+00  0.000000000E+00 -3.431367154E+02  3.431367154E+02  0.000000000E+00  0.00000E+00  9.000E+00
      25     1     1     2     0     0  5.879421588E+01  1.938212064E+02  8.487686507E+01  2.526905263E+02  1.250000000E+02  0.00000E+00  9.000E+00
      25     1     1     2     0     0  6.282424065E+01 -1.582851138E+02  2.452225316E+02  3.236667306E+02  1.250000000E+02  0.00000E+00  9.000E+00
       1     1     1     2   502     0 -1.216184565E+02 -3.553609266E+01 -2.017654049E+02  2.382501657E+02  2.697398305E-06  0.00000E+00  9.000E+00
#rwgt            1           1 -0.21379090995897257                7      263931           0
</event>
<event>
      5   9999  3.79277E-02  1.55909E+01 -1.00000E+00  1.75817E-01
      21    -1     0     0   502   501  0.000000000E+00  0.000000000E+00  1.134855131E+02  1.134855131E+02  0.000000000E+00  0.00000E+00  9.000E+00
       1    -1     0     0   501     0  0.000000000E+00  0.000000000E+00 -1.023831183E+03  1.023831183E+03  0.000000000E+00  0.00000E+00  9.000E+00
      25     1     1     2     0     0 -7.697823785E+01 -1.462790386E+02 -5.562385622E+01  2.145745083E+02  1.250000000E+02  0.00000E+00  9.000E+00
      25     1     1     2     0     0  6.139906073E+01  1.456752093E+02 -2.655594111E+02  3.333735324E+02  1.250000000E+02  0.00000E+00  9.000E+00
       1     1     1     2   502     0  1.557917712E+01  6.038292800E-01 -5.891624025E+02  5.893686553E+02  1.078959322E-05  0.00000E+00  9.000E+00
#rwgt            1           1   4.1304412569964630E-002           7      264000           0
</event>
<event>
      5   9999  3.79277E-02  1.76484E+02 -1.00000E+00  1.13662E-01
      21    -1     0     0   502   501  0.000000000E+00  0.000000000E+00  2.591006262E+02  2.591006262E+02  0.000000000E+00  0.00000E+00  9.000E+00
       1    -1     0     0   501     0  0.000000000E+00  0.000000000E+00 -6.560351107E+02  6.560351107E+02  0.000000000E+00  0.00000E+00  9.000E+00
      25     1     1     2     0     0 -1.053876984E+02  1.246801418E+02 -2.601209108E+01  2.072518604E+02  1.250000000E+02  0.00000E+00  9.000E+00
      25     1     1     2     0     0  2.523023692E+02 -2.689072140E+01  1.528450680E+01  2.832635038E+02  1.250000000E+02  0.00000E+00  9.000E+00
       1     1     1     2   502     0 -1.469146708E+02 -9.778942040E+01 -3.862069002E+02  4.246203728E+02  7.629394531E-06  0.00000E+00  9.000E+00
#rwgt            2          12   2.4199777409307635E-004           7      264103           0
</event>
<event>
      5   9999  3.79277E-02  8.30597E+01 -1.00000E+00  1.27565E-01
      21    -1     0     0   502   511  0.000000000E+00  0.000000000E+00  9.419762245E+01  9.419762245E+01  0.000000000E+00  0.00000E+00  9.000E+00
      21    -1     0     0   501   502  0.000000000E+00  0.000000000E+00 -5.289804920E+02  5.289804920E+02  0.000000000E+00  0.00000E+00  9.000E+00
      25     1     1     2     0     0  9.023488302E+01 -2.127542155E+01 -2.674061293E+02  3.093962114E+02  1.250000000E+02  0.00000E+00  9.000E+00
      25     1     1     2     0     0 -9.083387852E+01 -6.178211103E+01 -1.592371764E+02  2.303243389E+02  1.250000000E+02  0.00000E+00  9.000E+00
      21     1     1     2   501   511  5.989954970E-01  8.305753258E+01 -8.139563884E+00  8.345756416E+01  1.180111758E-06  0.00000E+00  9.000E+00
#rwgt            1           1   6.2292797239014978E-002           7      264137           0
</event>
<event>
      5   9999  3.79277E-02  2.54214E+01 -1.00000E+00  1.58209E-01
      21    -1     0     0   502   501  0.000000000E+00  0.000000000E+00  6.717776112E+01  6.717776112E+01  0.000000000E+00  0.00000E+00  9.000E+00
      21    -1     0     0   501   512  0.000000000E+00  0.000000000E+00 -1.017737734E+03  1.017737734E+03  0.000000000E+00  0.00000E+00  9.000E+00
      25     1     1     2     0     0 -6.564862105E+01  1.956202845E+02 -3.226012974E+02  4.028320174E+02  1.250000000E+02  0.00000E+00  9.000E+00
      25     1     1     2     0     0  8.902042597E+01 -1.856198617E+02 -5.703611414E+02  6.191253515E+02  1.250000000E+02  0.00000E+00  9.000E+00
      21     1     1     2   502   512 -2.337180492E+01 -1.000042281E+01 -5.759753406E+01  6.295812618E+01  6.743495762E-07  0.00000E+00  9.000E+00
#rwgt            1           1   3.9554655417967578E-002           7      264189           0
</event>
<event>
      5   9999  3.79277E-02  4.30313E+01 -1.00000E+00  1.42900E-01
      21    -1     0     0   502   511  0.000000000E+00  0.000000000E+00  4.960302428E+01  4.960302428E+01  0.000000000E+00  0.00000E+00  9.000E+00
      21    -1     0     0   501   502  0.000000000E+00  0.000000000E+00 -1.059270039E+03  1.059270039E+03  0.000000000E+00  0.00000E+00  9.000E+00
      25     1     1     2     0     0 -1.859189481E+02  3.990724029E+00 -5.342958846E+02  5.793780057E+02  1.250000000E+02  0.00000E+00  9.000E+00
      25     1     1     2     0     0  1.429141795E+02 -2.478536147E+00 -3.975302902E+02  4.405518556E+02  1.250000000E+02  0.00000E+00  9.000E+00
      21     1     1     2   501   511  4.300476859E+01 -1.512187882E+00 -7.784084018E+01  8.894320229E+01  1.348699152E-06  0.00000E+00  9.000E+00
#rwgt            1           1   1.9757329296129170E-002           7      264381           0
</event>
<event>
      5   9999  3.79277E-02  1.04616E+02 -1.00000E+00  1.22953E-01
      21    -1     0     0   502   501  0.000000000E+00  0.000000000E+00  1.719987526E+02  1.719987526E+02  0.000000000E+00  0.00000E+00  9.000E+00
       1    -1     0     0   501     0  0.000000000E+00  0.000000000E+00 -1.237349581E+03  1.237349581E+03  0.000000000E+00  0.00000E+00  9.000E+00
      25     1     1     2     0     0  2.101292489E+02 -1.392646472E+02 -1.167414428E+02  3.046350401E+02  1.250000000E+02  0.00000E+00  9.000E+00
      25     1     1     2     0     0 -2.202806047E+02  2.433873057E+02 -3.458707405E+02  4.929629748E+02  1.250000000E+02  0.00000E+00  9.000E+00
       1     1     1     2   502     0  1.015135582E+01 -1.041226585E+02 -6.027386454E+02  6.117503190E+02  1.321449896E-05  0.00000E+00  9.000E+00
#rwgt            1           1   3.3384940434143438E-002           7      264488           0
</event>
<event>
      5   9999  3.79277E-02  5.72961E+01 -1.00000E+00  1.35782E-01
       2    -1     0     0   502     0  0.000000000E+00  0.000000000E+00  9.092252619E+02  9.092252619E+02  0.000000000E+00  0.00000E+00  9.000E+00
      21    -1     0     0   501   502  0.000000000E+00  0.000000000E+00 -9.881176819E+02  9.881176819E+02  0.000000000E+00  0.00000E+00  9.000E+00
      25     1     1     2     0     0 -2.772397135E+01 -2.307649226E+02 -2.351851871E+02  3.534941871E+02  1.250000000E+02  0.00000E+00  9.000E+00
      25     1     1     2     0     0  4.028039278E+01  1.748616575E+02 -6.755347965E+02  7.100502592E+02  1.250000000E+02  0.00000E+00  9.000E+00
       2     1     1     2   501     0 -1.255642142E+01  5.590326512E+01  8.318275637E+02  8.337984975E+02  0.000000000E+00  0.00000E+00  9.000E+00
#rwgt            1           1   3.5777537674447003E-002           7      264585           0
</event>
<event>
      5   9999  3.79277E-02  4.69792E+01 -1.00000E+00  1.40638E-01
      21    -1     0     0   511   501  0.000000000E+00  0.000000000E+00  1.098129390E+02  1.098129390E+02  0.000000000E+00  0.00000E+00  9.000E+00
      21    -1     0     0   501   502  0.000000000E+00  0.000000000E+00 -3.483153766E+02  3.483153766E+02  0.000000000E+00  0.00000E+00  9.000E+00
      25     1     1     2     0     0 -8.011360359E+00  2.981693536E+01  2.611904138E+01  1.313789780E+02  1.250000000E+02  0.00000E+00  9.000E+00
      25     1     1     2     0     0 -8.087834484E+00  1.431760179E+01 -2.455906915E+02  2.760619396E+02  1.250000000E+02  0.00000E+00  9.000E+00
      21     1     1     2   511   502  1.609919484E+01 -4.413453715E+01 -1.903078756E+01  5.068739803E+01  5.840038640E-07  0.00000E+00  9.000E+00
#rwgt            1           1   5.2636806559935218E-002           7      264885           0
</event>
<event>
      5   9999  3.79277E-02  4.60721E+01 -1.00000E+00  1.41134E-01
      21    -1     0     0   512   501  0.000000000E+00  0.000000000E+00  9.412626911E+01  9.412626911E+01  0.000000000E+00  0.00000E+00  9.000E+00
      21    -1     0     0   501   502  0.000000000E+00  0.000000000E+00 -1.086470878E+03  1.086470878E+03  0.000000000E+00  0.00000E+00  9.000E+00
      25     1     1     2     0     0 -1.297610417E+02 -1.593021786E+02 -7.982882997E+02  8.337291655E+02  1.250000000E+02  0.00000E+00  9.000E+00
      25     1     1     2     0     0  8.420994077E+01  1.523932566E+02 -2.080625168E+02  2.987139597E+02  1.250000000E+02  0.00000E+00  9.000E+00
      21     1     1     2   512   502  4.555110089E+01  6.908921986E+00  1.400620745E+01  4.815402208E+01  1.479348379E-06  0.00000E+00  9.000E+00
#rwgt            1           1   3.9510426214630308E-002           7      265117           0
</event>
<event>
      5   9999  3.79277E-02  5.46761E+01 -1.00000E+00  1.36896E-01
      21    -1     0     0   502   501  0.000000000E+00  0.000000000E+00  4.725623506E+02  4.725623506E+02  0.000000000E+00  0.00000E+00  9.000E+00
       2    -1     0     0   501     0  0.000000000E+00  0.000000000E+00 -2.396432418E+03  2.396432418E+03  0.000000000E+00  0.00000E+00  9.000E+00
      25     1     1     2     0     0 -1.184675326E+02  7.203461952E+01  4.219764727E+02  4.614246268E+02  1.250000000E+02  0.00000E+00  9.000E+00
      25     1     1     2     0     0  1.237318252E+02 -1.761256749E+01 -2.255165096E+02  2.865352739E+02  1.250000000E+02  0.00000E+00  9.000E+00
       2     1     1     2   502     0 -5.264292550E+00 -5.442205204E+01 -2.120330031E+03  2.121034868E+03  0.000000000E+00  0.00000E+00  9.000E+00
#rwgt            1           1   4.2895350199193716E-002           7      265299           0
</event>
<event>
      5   9999  3.79277E-02  7.49438E+01 -1.00000E+00  1.29737E-01
      21    -1     0     0   502   511  0.000000000E+00  0.000000000E+00  9.885512991E+01  9.885512991E+01  0.000000000E+00  0.00000E+00  9.000E+00
      21    -1     0     0   501   502  0.000000000E+00  0.000000000E+00 -2.131518072E+03  2.131518072E+03  0.000000000E+00  0.00000E+00  9.000E+00
      25     1     1     2     0     0  1.442268662E+02 -2.578885841E+02 -6.039168094E+02  6.838482459E+02  1.250000000E+02  0.00000E+00  9.000E+00
      25     1     1     2     0     0 -2.000969975E+02  2.079376300E+02 -1.437108442E+03  1.471116087E+03  1.250000000E+02  0.00000E+00  9.000E+00
      21     1     1     2   501   511  5.587013134E+01  4.995095411E+01  8.362309134E+00  7.540886954E+01  1.174075341E-06  0.00000E+00  9.000E+00
#rwgt            1           1  0.15209347023374278                7      265389           0
</event>
<event>
      5   9999  3.79277E-02  8.24688E+01 -1.00000E+00  1.27714E-01
      21    -1     0     0   502   501  0.000000000E+00  0.000000000E+00  5.046214483E+01  5.046214483E+01  0.000000000E+00  0.00000E+00  9.000E+00
      21    -1     0     0   512   502  0.000000000E+00  0.000000000E+00 -1.788899920E+03  1.788899920E+03  0.000000000E+00  0.00000E+00  9.000E+00
      25     1     1     2     0     0 -2.068457378E+01  8.389014314E+00 -6.770812812E+01  1.439014168E+02  1.250000000E+02  0.00000E+00  9.000E+00
      25     1     1     2     0     0  8.260601698E+00  7.313852968E+01 -4.693889473E+02  4.912926480E+02  1.250000000E+02  0.00000E+00  9.000E+00
      21     1     1     2   512   501  1.242397208E+01 -8.152754400E+01 -1.201340699E+03  1.204168000E+03  2.157918644E-05  0.00000E+00  9.000E+00
#rwgt            1           1   5.5725442269548203E-002           7      265541           0
</event>
<event>
      5   9999  3.79277E-02  9.98890E+00 -1.00000E+00  1.95813E-01
      21    -1     0     0   511   501  0.000000000E+00  0.000000000E+00  8.820408029E+02  8.820408029E+02  0.000000000E+00  0.00000E+00  9.000E+00
      21    -1     0     0   501   502  0.000000000E+00  0.000000000E+00 -7.938218060E+01  7.938218060E+01  0.000000000E+00  0.00000E+00  9.000E+00
      25     1     1     2     0     0 -1.456268666E+02 -6.010535159E+01  1.108203225E+02  2.296213871E+02  1.250000000E+02  0.00000E+00  9.000E+00
      25     1     1     2     0     0  1.535757242E+02  6.615463297E+01  5.297375238E+02  5.693933461E+02  1.250000000E+02  0.00000E+00  9.000E+00
      21     1     1     2   511   502 -7.948857681E+00 -6.049281383E+00  1.621007761E+02  1.624082503E+02  1.907348633E-06  0.00000E+00  9.000E+00
#rwgt            1           1   3.7354094279855268E-002           7      265699           0
</event>
<event>
      5   9999  3.79277E-02  2.06734E+01 -1.00000E+00  1.65191E-01
      21    -1     0     0   502   501  0.000000000E+00  0.000000000E+00  2.171645538E+02  2.171645538E+02  0.000000000E+00  0.00000E+00  9.000E+00
      21    -1     0     0   512   502  0.000000000E+00  0.000000000E+00 -6.133751664E+02  6.133751664E+02  0.000000000E+00  0.00000E+00  9.000E+00
      25     1     1     2     0     0  7.453086806E+01  2.149896690E+02 -2.564639788E+02  3.649303776E+02  1.250000000E+02  0.00000E+00  9.000E+00
      25     1     1     2     0     0 -6.571500114E+01 -2.336890816E+02  4.756710994E+01  2.771582187E+02  1.250000000E+02  0.00000E+00  9.000E+00
      21     1     1     2   512   501 -8.815866919E+00  1.869941257E+01 -1.873137437E+02  1.884511239E+02  2.697398305E-06  0.00000E+00  9.000E+00
#rwgt            1           1  0.13889137215812569                7      266033           0
</event>
<event>
      5   9999  3.79277E-02  8.67183E+01 -1.00000E+00  1.26677E-01
       2    -1     0     0   502     0  0.000000000E+00  0.000000000E+00  3.162769384E+03  3.162769384E+03  0.000000000E+00  0.00000E+00  9.000E+00
      21    -1     0     0   501   502  0.000000000E+00  0.000000000E+00 -6.723656824E+01  6.723656824E+01  0.000000000E+00  0.00000E+00  9.000E+00
      25     1     1     2     0     0 -2.150731383E+02 -9.119361491E+01  7.673305110E+02  8.117843577E+02  1.250000000E+02  0.00000E+00  9.000E+00
      25     1     1     2     0     0  1.394537233E+02  1.336408490E+02  2.559473326E+02  3.441529522E+02  1.250000000E+02  0.00000E+00  9.000E+00
       2     1     1     2   501     0  7.561941501E+01 -4.244723409E+01  2.072254972E+03  2.074068642E+03  0.000000000E+00  0.00000E+00  9.000E+00
#rwgt            1           1   2.0967132944969914E-002           7      266213           0
</event>
<event>
      5   9999  3.79277E-02  2.55740E+01 -1.00000E+00  1.58016E-01
      21    -1     0     0   502   501  0.000000000E+00  0.000000000E+00  4.001862984E+01  4.001862984E+01  0.000000000E+00  0.00000E+00  9.000E+00
       1    -1     0     0   501     0  0.000000000E+00  0.000000000E+00 -2.284040931E+03  2.284040931E+03  0.000000000E+00  0.00000E+00  9.000E+00
      25     1     1     2     0     0 -2.118898249E+01 -2.903317791E+01 -9.336107191E+01  1.601036794E+02  1.250000000E+02  0.00000E+00  9.000E+00
      25     1     1     2     0     0  8.387982185E+00  5.117280419E+01 -6.940688044E+02  7.071389675E+02  1.250000000E+02  0.00000E+00  9.000E+00
       1     1     1     2   502     0  1.280100031E+01 -2.213962628E+01 -1.456592425E+03  1.456816914E+03  0.000000000E+00  0.00000E+00  9.000E+00
#rwgt            1           1   3.1280748798977548E-002           7      266332           0
</event>
<event>
      5   9999  3.79277E-02  2.25980E+01 -1.00000E+00  1.62108E-01
      21    -1     0     0   502   501  0.000000000E+00  0.000000000E+00  1.777763758E+02  1.777763758E+02  0.000000000E+00  0.00000E+00  9.000E+00
      21    -1     0     0   501   511  0.000000000E+00  0.000000000E+00 -4.873765035E+02  4.873765035E+02  0.000000000E+00  0.00000E+00  9.000E+00
      25     1     1     2     0     0  1.146892018E+02 -7.239149703E+01 -1.842548930E+02  2.607086639E+02  1.250000000E+02  0.00000E+00  9.000E+00
      25     1     1     2     0     0 -1.310916353E+02  8.793596505E+01  6.590487889E+01  2.118636445E+02  1.250000000E+02  0.00000E+00  9.000E+00
      21     1     1     2   502   511  1.640243349E+01 -1.554446802E+01 -1.912501137E+02  1.925805709E+02  3.814697266E-06  0.00000E+00  9.000E+00
#rwgt            1           1   4.0097645090598329E-002           7      266526           0
</event>
<event>
      5   9999  3.79277E-02  3.61588E+01 -1.00000E+00  1.47613E-01
      21    -1     0     0   502   501  0.000000000E+00  0.000000000E+00  8.813592763E+01  8.813592763E+01  0.000000000E+00  0.00000E+00  9.000E+00
      21    -1     0     0   512   502  0.000000000E+00  0.000000000E+00 -6.316700918E+02  6.316700918E+02  0.000000000E+00  0.00000E+00  9.000E+00
      25     1     1     2     0     0  1.541657479E+02 -8.034712080E+01 -1.415229239E+02  2.566641300E+02  1.250000000E+02  0.00000E+00  9.000E+00
      25     1     1     2     0     0 -1.361850849E+02  4.897586532E+01 -3.094788237E+02  3.637954852E+02  1.250000000E+02  0.00000E+00  9.000E+00
      21     1     1     2   512   501 -1.798066299E+01  3.137125548E+01 -9.253241661E+01  9.934640424E+01  0.000000000E+00  0.00000E+00  9.000E+00
#rwgt            1           1   6.1347660811459391E-002           7      266841           0
</event>
<event>
      5   9999  3.79277E-02  4.99458E+01 -1.00000E+00  1.39102E-01
      21    -1     0     0   502   501  0.000000000E+00  0.000000000E+00  7.343114874E+01  7.343114874E+01  0.000000000E+00  0.00000E+00  9.000E+00
       2    -1     0     0   501     0  0.000000000E+00  0.000000000E+00 -1.913955239E+03  1.913955239E+03  0.000000000E+00  0.00000E+00  9.000E+00
      25     1     1     2     0     0  8.823466037E+01  1.671223282E+02 -3.632297109E+02  4.281075224E+02  1.250000000E+02  0.00000E+00  9.000E+00
      25     1     1     2     0     0 -8.485991369E+01 -1.172906349E+02 -1.852588054E+02  2.662782810E+02  1.250000000E+02  0.00000E+00  9.000E+00
       2     1     1     2   502     0 -3.374746679E+00 -4.983169335E+01 -1.292035574E+03  1.293000585E+03  0.000000000E+00  0.00000E+00  9.000E+00
#rwgt            1           1   4.7088975515145147E-002           7      266942           0
</event>
<event>
      5   9999  3.79277E-02  9.46666E+01 -1.00000E+00  1.24908E-01
      21    -1     0     0   502   511  0.000000000E+00  0.000000000E+00  1.313466891E+03  1.313466891E+03  0.000000000E+00  0.00000E+00  9.000E+00
      21    -1     0     0   501   502  0.000000000E+00  0.000000000E+00 -6.658234125E+01  6.658234125E+01  0.000000000E+00  0.00000E+00  9.000E+00
      25     1     1     2     0     0 -9.814682645E+00  1.558387239E+02  8.942370436E+02  9.163334142E+02  1.250000000E+02  0.00000E+00  9.000E+00
      25     1     1     2     0     0 -5.829621536E+01 -9.009173902E+01  9.717260913E+01  1.912654860E+02  1.250000000E+02  0.00000E+00  9.000E+00
      21     1     1     2   501   511  6.811089801E+01 -6.574698485E+01  2.554748975E+02  2.724503325E+02  6.607249480E-06  0.00000E+00  9.000E+00
#rwgt            1           1   2.4978289737940872E-002           7      267071           0
</event>
<event>
      5   9999  3.79277E-02  1.32674E+01 -1.00000E+00  1.82557E-01
      21    -1     0     0   502   501  0.000000000E+00  0.000000000E+00  5.155193365E+02  5.155193365E+02  0.000000000E+00  0.00000E+00  9.000E+00
      21    -1     0     0   501   512  0.000000000E+00  0.000000000E+00 -9.742293221E+01  9.742293221E+01  0.000000000E+00  0.00000E+00  9.000E+00
      25     1     1     2     0     0 -5.486422548E+01  1.214498674E+02  3.719222772E+02  4.143806629E+02  1.250000000E+02  0.00000E+00  9.000E+00
      25     1     1     2     0     0  5.762496707E+01 -1.084729095E+02  5.372166831E+01  1.832976448E+02  1.250000000E+02  0.00000E+00  9.000E+00
      21     1     1     2   502   512 -2.760741591E+00 -1.297695792E+01 -7.547541133E+00  1.526396109E+01  2.795705652E-07  0.00000E+00  9.000E+00
#rwgt            1           1   4.9281201616108418E-002           7      267186           0
</event>
<event>
      5   9999  3.79277E-02  6.58221E+01 -1.00000E+00  1.32589E-01
      21    -1     0     0   511   501  0.000000000E+00  0.000000000E+00  1.981242363E+03  1.981242363E+03  0.000000000E+00  0.00000E+00  9.000E+00
      21    -1     0     0   501   502  0.000000000E+00  0.000000000E+00 -3.529117498E+01  3.529117498E+01  0.000000000E+00  0.00000E+00  9.000E+00
      25     1     1     2     0     0  3.690377897E+01  1.869551440E+02  7.509416256E+02  7.847626646E+02  1.250000000E+02  0.00000E+00  9.000E+00
      25     1     1     2     0     0  2.859575647E+01 -1.934636242E+02  8.928184030E+02  9.224942232E+02  1.250000000E+02  0.00000E+00  9.000E+00
      21     1     1     2   511   502 -6.549953543E+01  6.508480204E+00  3.021911595E+02  3.092766502E+02  5.394796609E-06  0.00000E+00  9.000E+00
#rwgt            1           1   2.3902519378205443E-002           7      267428           0
</event>
<event>
      5   9999  3.79277E-02  6.03161E+01 -1.00000E+00  1.34582E-01
      21    -1     0     0   502   512  0.000000000E+00  0.000000000E+00  1.040492161E+03  1.040492161E+03  0.000000000E+00  0.00000E+00  9.000E+00
      21    -1     0     0   501   502  0.000000000E+00  0.000000000E+00 -1.257116431E+02  1.257116431E+02  0.000000000E+00  0.00000E+00  9.000E+00
      25     1     1     2     0     0  2.781099227E+02  7.535794704E+01  6.248236085E+02  6.993235954E+02  1.250000000E+02  0.00000E+00  9.000E+00
      25     1     1     2     0     0 -2.427994115E+02 -1.242579004E+02  2.078107454E+02  3.649683355E+02  1.250000000E+02  0.00000E+00  9.000E+00
      21     1     1     2   501   512 -3.531051120E+01  4.889995333E+01  8.214616388E+01  1.019118731E+02  9.536743164E-07  0.00000E+00  9.000E+00
#rwgt            1           1   2.8497682698232364E-002           7      267526           0
</event>
<event>
      5   9999  3.79277E-02  5.97205E+01 -1.00000E+00  1.34812E-01
      21    -1     0     0   502   501  0.000000000E+00  0.000000000E+00  1.748880589E+02  1.748880589E+02  0.000000000E+00  0.00000E+00  9.000E+00
      21    -1     0     0   501   511  0.000000000E+00  0.000000000E+00 -3.179110280E+02  3.179110280E+02  0.000000000E+00  0.00000E+00  9.000E+00
      25     1     1     2     0     0  2.136612886E+01  1.215584462E+02 -7.041517331E+00  1.758054330E+02  1.250000000E+02  0.00000E+00  9.000E+00
      25     1     1     2     0     0 -5.167134370E+01 -1.730184446E+02 -7.610806562E+01  2.324279406E+02  1.250000000E+02  0.00000E+00  9.000E+00
      21     1     1     2   502   511  3.030521484E+01  5.145999844E+01 -5.987338613E+01  8.456571322E+01  6.743495762E-07  0.00000E+00  9.000E+00
#rwgt            1           1   3.8793071306537578E-002           7      267640           0
</event>
<event>
      5   9999 -3.79277E-02  4.95438E+01 -1.00000E+00  1.39303E-01
      21    -1     0     0   512   501  0.000000000E+00  0.000000000E+00  1.367902508E+02  1.367902508E+02  0.000000000E+00  0.00000E+00  9.000E+00
      21    -1     0     0   501   502  0.000000000E+00  0.000000000E+00 -1.829000421E+03  1.829000421E+03  0.000000000E+00  0.00000E+00  9.000E+00
      25     1     1     2     0     0  1.941244406E+02 -1.189807346E+02 -4.358574347E+02  5.073829096E+02  1.250000000E+02  0.00000E+00  9.000E+00
      25     1     1     2     0     0 -2.000665558E+02  1.681668819E+02 -1.334661413E+03  1.365742587E+03  1.250000000E+02  0.00000E+00  9.000E+00
      21     1     1     2   512   502  5.942115206E+00 -4.918614735E+01  7.830867713E+01  9.266517543E+01  9.536743164E-07  0.00000E+00  9.000E+00
#rwgt            1           1  -5.6842131479018759E-002           7      267722           0
</event>
<event>
      5   9999  3.79277E-02  4.82836E+01 -1.00000E+00  1.39947E-01
      21    -1     0     0   502   501  0.000000000E+00  0.000000000E+00  2.358539432E+02  2.358539432E+02  0.000000000E+00  0.00000E+00  9.000E+00
      21    -1     0     0   511   502  0.000000000E+00  0.000000000E+00 -4.644510054E+02  4.644510054E+02  0.000000000E+00  0.00000E+00  9.000E+00
      25     1     1     2     0     0 -7.267846776E+01  5.472070702E+01  1.787740967E+02  2.363507840E+02  1.250000000E+02  0.00000E+00  9.000E+00
      25     1     1     2     0     0  4.455196305E+01 -9.396617093E+01 -3.655265130E+02  4.000614333E+02  1.250000000E+02  0.00000E+00  9.000E+00
      21     1     1     2   511   501  2.812650471E+01  3.924546391E+01 -4.184464596E+01  6.389273120E+01  4.768371582E-07  0.00000E+00  9.000E+00
#rwgt            1           1   3.2629794632515183E-002           7      267853           0
</event>
<event>
      5   9999  3.79277E-02  1.47608E+02 -1.00000E+00  1.16671E-01
      21    -1     0     0   502   512  0.000000000E+00  0.000000000E+00  1.483487228E+02  1.483487228E+02  0.000000000E+00  0.00000E+00  9.000E+00
      21    -1     0     0   501   502  0.000000000E+00  0.000000000E+00 -7.531879467E+02  7.531879467E+02  0.000000000E+00  0.00000E+00  9.000E+00
      25     1     1     2     0     0 -1.459005536E+02 -5.109761783E+00 -2.025706021E+02  2.792363336E+02  1.250000000E+02  0.00000E+00  9.000E+00
      25     1     1     2     0     0  2.280255906E+02  1.277621291E+02 -3.721771772E+02  4.716563185E+02  1.250000000E+02  0.00000E+00  9.000E+00
      21     1     1     2   501   512 -8.212503700E+01 -1.226523673E+02 -3.009144462E+01  1.506440173E+02  1.784161275E-06  0.00000E+00  9.000E+00
#rwgt            1           1   3.3461974538287385E-002           7      267969           0
</event>
<event>
      5   9999  3.79277E-02  5.03724E+01 -1.00000E+00  1.38892E-01
       2    -1     0     0   502     0  0.000000000E+00  0.000000000E+00  3.655271047E+03  3.655271047E+03  0.000000000E+00  0.00000E+00  9.000E+00
      21    -1     0     0   501   502  0.000000000E+00  0.000000000E+00 -1.348711080E+02  1.348711080E+02  0.000000000E+00  0.00000E+00  9.000E+00
      25     1     1     2     0     0 -1.342579012E+02 -7.216055530E+01  9.285473137E+02  9.492404561E+02  1.250000000E+02  0.00000E+00  9.000E+00
      25     1     1     2     0     0  1.225544245E+02  2.316659107E+01 -6.156441729E+01  1.870065651E+02  1.250000000E+02  0.00000E+00  9.000E+00
       2     1     1     2   501     0  1.170347672E+01  4.899396423E+01  2.653417043E+03  2.653895134E+03  3.051757812E-05  0.00000E+00  9.000E+00
#rwgt            2          18   9.3569458577399565E-004           7      268023           0
</event>
<event>
      5   9999  3.79277E-02  4.81736E+01 -1.00000E+00  1.40004E-01
      21    -1     0     0   502   511  0.000000000E+00  0.000000000E+00  3.930568726E+01  3.930568726E+01  0.000000000E+00  0.00000E+00  9.000E+00
      21    -1     0     0   501   502  0.000000000E+00  0.000000000E+00 -1.361503821E+03  1.361503821E+03  0.000000000E+00  0.00000E+00  9.000E+00
      25     1     1     2     0     0  2.099200155E+01 -1.627601334E+02 -3.862244851E+02  4.378651368E+02  1.250000000E+02  0.00000E+00  9.000E+00
      25     1     1     2     0     0 -1.909041210E+01  1.146240861E+02 -8.160632967E+02  8.337190349E+02  1.250000000E+02  0.00000E+00  9.000E+00
      21     1     1     2   501   511 -1.901589447E+00  4.813604730E+01 -1.199103516E+02  1.292253362E+02  2.697398305E-06  0.00000E+00  9.000E+00
#rwgt            1           1   4.5989275701147893E-002           7      268072           0
</event>
<event>
      5   9999  3.79277E-02  3.90084E+01 -1.00000E+00  1.45520E-01
      21    -1     0     0   502   512  0.000000000E+00  0.000000000E+00  1.843984818E+02  1.843984818E+02  0.000000000E+00  0.00000E+00  9.000E+00
      21    -1     0     0   501   502  0.000000000E+00  0.000000000E+00 -7.112470935E+02  7.112470935E+02  0.000000000E+00  0.00000E+00  9.000E+00
      25     1     1     2     0     0 -1.369871018E+02 -2.533015399E+02 -1.452168827E+02  3.458902705E+02  1.250000000E+02  0.00000E+00  9.000E+00
      25     1     1     2     0     0  1.104837075E+02  2.819236225E+02 -3.905434929E+02  5.097418939E+02  1.250000000E+02  0.00000E+00  9.000E+00
      21     1     1     2   501   512  2.650339429E+01 -2.862208258E+01  8.911763882E+00  4.001341095E+01  6.419616708E-07  0.00000E+00  9.000E+00
#rwgt            1           1   2.9132461248528384E-002           7      268178           0
</event>
<event>
      5   9999  3.79277E-02  3.89953E+01 -1.00000E+00  1.45529E-01
      21    -1     0     0   502   501  0.000000000E+00  0.000000000E+00  9.324960233E+01  9.324960233E+01  0.000000000E+00  0.00000E+00  9.000E+00
      21    -1     0     0   501   511  0.000000000E+00  0.000000000E+00 -4.828507717E+02  4.828507717E+02  0.000000000E+00  0.00000E+00  9.000E+00
      25     1     1     2     0     0 -1.638022078E+01 -1.161706923E+02 -2.317753492E+02  2.882858892E+02  1.250000000E+02  0.00000E+00  9.000E+00
      25     1     1     2     0     0  4.665653390E+01  1.407467277E+02 -1.003566948E+02  2.183642363E+02  1.250000000E+02  0.00000E+00  9.000E+00
      21     1     1     2   502   511 -3.027631312E+01 -2.457603543E+01 -5.746912528E+01  6.945024848E+01  6.743495762E-07  0.00000E+00  9.000E+00
#rwgt            1           1   3.1134535126200638E-002           7      268460           0
</event>
<event>
      5   9999  3.79277E-02  3.61656E+01 -1.00000E+00  1.47608E-01
      21    -1     0     0   502   501  0.000000000E+00  0.000000000E+00  2.433512367E+02  2.433512367E+02  0.000000000E+00  0.00000E+00  9.000E+00
      21    -1     0     0   501   512  0.000000000E+00  0.000000000E+00 -1.988697906E+02  1.988697906E+02  0.000000000E+00  0.00000E+00  9.000E+00
      25     1     1     2     0     0 -4.396340490E+01 -6.057555382E+01 -8.047854363E+01  1.664451101E+02  1.250000000E+02  0.00000E+00  9.000E+00
      25     1     1     2     0     0  7.212717414E+01  3.788744040E+01  1.645695981E+02  2.221394607E+02  1.250000000E+02  0.00000E+00  9.000E+00
      21     1     1     2   502   512 -2.816376924E+01  2.268811342E+01 -3.960960834E+01  5.363645646E+01  6.743495762E-07  0.00000E+00  9.000E+00
#rwgt            1           1   4.4270215749224663E-002           7      268701           0
</event>
<event>
      5   9999  3.79277E-02  2.66805E+01 -1.00000E+00  1.56663E-01
      21    -1     0     0   502   501  0.000000000E+00  0.000000000E+00  3.716316773E+02  3.716316773E+02  0.000000000E+00  0.00000E+00  9.000E+00
      21    -1     0     0   501   511  0.000000000E+00  0.000000000E+00 -1.304877088E+02  1.304877088E+02  0.000000000E+00  0.00000E+00  9.000E+00
      25     1     1     2     0     0 -5.566515615E+01  5.550096708E+00  2.918888214E+02  3.224182024E+02  1.250000000E+02  0.00000E+00  9.000E+00
      25     1     1     2     0     0  3.200591148E+01  6.782451741E+00 -8.184739702E+00  1.294695717E+02  1.250000000E+02  0.00000E+00  9.000E+00
      21     1     1     2   502   511  2.365924467E+01 -1.233254845E+01 -4.256011321E+01  5.023161202E+01  1.430511475E-06  0.00000E+00  9.000E+00
#rwgt            1           1   4.3845081538414953E-002           7      268803           0
</event>
<event>
      5   9999  3.79277E-02  2.94523E+01 -1.00000E+00  1.53598E-01
      21    -1     0     0   502   512  0.000000000E+00  0.000000000E+00  1.159583328E+03  1.159583328E+03  0.000000000E+00  0.00000E+00  9.000E+00
      21    -1     0     0   501   502  0.000000000E+00  0.000000000E+00 -9.046389597E+01  9.046389597E+01  0.000000000E+00  0.00000E+00  9.000E+00
      25     1     1     2     0     0  2.344697563E+02  1.314515301E+02  6.266386506E+02  6.932218763E+02  1.250000000E+02  0.00000E+00  9.000E+00
      25     1     1     2     0     0 -2.464220972E+02 -1.045334870E+02  3.410781112E+02  4.512320665E+02  1.250000000E+02  0.00000E+00  9.000E+00
      21     1     1     2   501   512  1.195234086E+01 -2.691804310E+01  1.014026703E+02  1.055932812E+02  1.348699152E-06  0.00000E+00  9.000E+00
#rwgt            1           1   3.8075035705430665E-002           7      268937           0
</event>
<event>
      5   9999  3.79277E-02  4.37098E+01 -1.00000E+00  1.42491E-01
      21    -1     0     0   511   501  0.000000000E+00  0.000000000E+00  3.491817093E+02  3.491817093E+02  0.000000000E+00  0.00000E+00  9.000E+00
      21    -1     0     0   501   502  0.000000000E+00  0.000000000E+00 -1.826997228E+02  1.826997228E+02  0.000000000E+00  0.00000E+00  9.000E+00
      25     1     1     2     0     0 -4.215668087E+00 -1.702111136E+02  4.292335874E+01  2.155388823E+02  1.250000000E+02  0.00000E+00  9.000E+00
      25     1     1     2     0     0 -3.741266729E+01  1.835387552E+02  4.984182414E+01  2.306412577E+02  1.250000000E+02  0.00000E+00  9.000E+00
      21     1     1     2   511   502  4.162833537E+01 -1.332764160E+01  7.371680359E+01  8.570129210E+01  9.536743164E-07  0.00000E+00  9.000E+00
#rwgt            1           1   4.4974465719014589E-002           7      269127           0
</event>
<event>
      5   9999  3.79277E-02  2.39214E+01 -1.00000E+00  1.60199E-01
      21    -1     0     0   502   501  0.000000000E+00  0.000000000E+00  3.214227405E+02  3.214227405E+02  0.000000000E+00  0.00000E+00  9.000E+00
      21    -1     0     0   501   512  0.000000000E+00  0.000000000E+00 -1.055077550E+02  1.055077550E+02  0.000000000E+00  0.00000E+00  9.000E+00
      25     1     1     2     0     0 -2.117579201E+01 -6.872982494E+01  2.130846673E+02  2.572980342E+02  1.250000000E+02  0.00000E+00  9.000E+00
      25     1     1     2     0     0 -1.537088611E+00  6.122272123E+01  1.938764942E+01  1.405399060E+02  1.250000000E+02  0.00000E+00  9.000E+00
      21     1     1     2   502   512  2.271288062E+01  7.507103705E+00 -1.655733117E+01  2.909255519E+01  5.331201500E-07  0.00000E+00  9.000E+00
#rwgt            1           1   3.8528984792354677E-002           7      269305           0
</event>
<event>
      5   9999  3.79277E-02  9.76269E+01 -1.00000E+00  1.24299E-01
      21    -1     0     0   502   501  0.000000000E+00  0.000000000E+00  3.041285601E+02  3.041285601E+02  0.000000000E+00  0.00000E+00  9.000E+00
       2    -1     0     0   501     0  0.000000000E+00  0.000000000E+00 -3.034780860E+02  3.034780860E+02  0.000000000E+00  0.00000E+00  9.000E+00
      25     1     1     2     0     0 -1.068924731E+02  5.088484466E+01  1.956147705E+02  2.605866586E+02  1.250000000E+02  0.00000E+00  9.000E+00
      25     1     1     2     0     0  4.330392954E+01 -1.249625694E+02 -8.779171885E+01  2.020476675E+02  1.250000000E+02  0.00000E+00  9.000E+00
       2     1     1     2   502     0  6.358854356E+01  7.407772471E+01 -1.071725775E+02  1.449723199E+02  2.697398305E-06  0.00000E+00  9.000E+00
#rwgt            1           1   2.6333232876550750E-002           7      269431           0
</event>
<event>
      5   9999  3.79277E-02  1.16813E+02 -1.00000E+00  1.20867E-01
      21    -1     0     0   502   511  0.000000000E+00  0.000000000E+00  2.596501143E+02  2.596501143E+02  0.000000000E+00  0.00000E+00  9.000E+00
      21    -1     0     0   501   502  0.000000000E+00  0.000000000E+00 -4.510838600E+02  4.510838600E+02  0.000000000E+00  0.00000E+00  9.000E+00
      25     1     1     2     0     0 -1.730008776E+02 -7.643579143E+00 -1.353090968E+02  2.528265802E+02  1.250000000E+02  0.00000E+00  9.000E+00
      25     1     1     2     0     0  2.547266016E+02 -7.581945596E+01 -1.284037129E+02  3.205413311E+02  1.250000000E+02  0.00000E+00  9.000E+00
      21     1     1     2   501   511 -8.172572400E+01  8.346303510E+01  7.227906397E+01  1.373660631E+02  1.907348633E-06  0.00000E+00  9.000E+00
#rwgt            1           1   3.3495254511989508E-002           7      269501           0
</event>
<event>
      5   9999  3.79277E-02  1.02730E+02 -1.00000E+00  1.23304E-01
       2    -1     0     0   502     0  0.000000000E+00  0.000000000E+00  1.012218573E+03  1.012218573E+03  0.000000000E+00  0.00000E+00  9.000E+00
      21    -1     0     0   501   502  0.000000000E+00  0.000000000E+00 -1.775349962E+02  1.775349962E+02  0.000000000E+00  0.00000E+00  9.000E+00
      25     1     1     2     0     0 -4.571709365E+01  5.949481893E+00  1.567643219E+02  2.057316252E+02  1.250000000E+02  0.00000E+00  9.000E+00
      25     1     1     2     0     0  1.380126032E+02  3.916245668E+01 -8.913292561E+01  2.101210487E+02  1.250000000E+02  0.00000E+00  9.000E+00
       2     1     1     2   501     0 -9.229550958E+01 -4.511193857E+01  7.670521809E+02  7.739008956E+02  0.000000000E+00  0.00000E+00  9.000E+00
#rwgt            1           1   2.6792294894387437E-002           7      269631           0
</event>
<event>
      5   9999  3.79277E-02  5.42676E+01 -1.00000E+00  1.37076E-01
       1    -1     0     0   502     0  0.000000000E+00  0.000000000E+00  2.950889667E+03  2.950889667E+03  0.000000000E+00  0.00000E+00  9.000E+00
      21    -1     0     0   501   502  0.000000000E+00  0.000000000E+00 -6.237463523E+01  6.237463523E+01  0.000000000E+00  0.00000E+00  9.000E+00
      25     1     1     2     0     0  1.427939050E+02 -1.244732882E+02  2.594772286E+02  3.447276185E+02  1.250000000E+02  0.00000E+00  9.000E+00
      25     1     1     2     0     0 -1.884969243E+02  9.521234061E+01  7.584609156E+02  7.971727797E+02  1.250000000E+02  0.00000E+00  9.000E+00
       1     1     1     2   501     0  4.570301928E+01  2.926094755E+01  1.870576888E+03  1.871363904E+03  2.157918644E-05  0.00000E+00  9.000E+00
#rwgt            1           1   2.5559353168506622E-002           7      269730           0
</event>
<event>
      5   9999  3.79277E-02  4.33235E+01 -1.00000E+00  1.42723E-01
       2    -1     0     0   502     0  0.000000000E+00  0.000000000E+00  1.780774299E+03  1.780774299E+03  0.000000000E+00  0.00000E+00  9.000E+00
      21    -1     0     0   501   502  0.000000000E+00  0.000000000E+00 -6.635328006E+02  6.635328006E+02  0.000000000E+00  0.00000E+00  9.000E+00
      25     1     1     2     0     0 -1.235069458E+02 -1.427892365E+02 -5.230337365E+02  5.699403664E+02  1.250000000E+02  0.00000E+00  9.000E+00
      25     1     1     2     0     0  8.212150817E+01  1.299764047E+02 -3.270181521E+01  2.008288241E+02  1.250000000E+02  0.00000E+00  9.000E+00
       2     1     1     2   501     0  4.138543763E+01  1.281283180E+01  1.672977050E+03  1.673537909E+03  2.157918644E-05  0.00000E+00  9.000E+00
#rwgt            1           1   4.5048947978648134E-002           7      269864           0
</event>
<event>
      5   9999  3.79277E-02  1.01410E+02 -1.00000E+00  1.23555E-01
      21    -1     0     0   502   501  0.000000000E+00  0.000000000E+00  9.314879918E+02  9.314879918E+02  0.000000000E+00  0.00000E+00  9.000E+00
      21    -1     0     0   511   502  0.000000000E+00  0.000000000E+00 -1.407866916E+02  1.407866916E+02  0.000000000E+00  0.00000E+00  9.000E+00
      25     1     1     2     0     0  6.341098288E+01  8.552805896E+01  1.271695622E+02  2.076850962E+02  1.250000000E+02  0.00000E+00  9.000E+00
      25     1     1     2     0     0 -1.358034206E+02 -1.451234932E+01  7.234744767E+02  7.467887893E+02  1.250000000E+02  0.00000E+00  9.000E+00
      21     1     1     2   511   501  7.239243773E+01 -7.101570965E+01 -5.994273881E+01  1.178007979E+02  1.348699152E-06  0.00000E+00  9.000E+00
#rwgt            2          11   2.6811040622742636E-003           7      270059           0
</event>
<event>
      5   9999  3.79277E-02  5.14397E+01 -1.00000E+00  1.38376E-01
      21    -1     0     0   502   501  0.000000000E+00  0.000000000E+00  1.893838339E+02  1.893838339E+02  0.000000000E+00  0.00000E+00  9.000E+00
      21    -1     0     0   512   502  0.000000000E+00  0.000000000E+00 -6.125146461E+02  6.125146461E+02  0.000000000E+00  0.00000E+00  9.000E+00
      25     1     1     2     0     0  1.856353855E+02 -1.702688671E+02 -1.234461722E+02  3.071090049E+02  1.250000000E+02  0.00000E+00  9.000E+00
      25     1     1     2     0     0 -2.180865268E+02  1.303569065E+02 -1.193904725E+02  3.073007341E+02  1.250000000E+02  0.00000E+00  9.000E+00
      21     1     1     2   512   501  3.245114128E+01  3.991196055E+01 -1.802941676E+02  1.874887410E+02  1.907348633E-06  0.00000E+00  9.000E+00
#rwgt            1           1   3.3366425153290705E-002           7      270199           0
</event>
<event>
      5   9999  3.79277E-02  2.17647E+02 -1.00000E+00  1.10327E-01
      21    -1     0     0   502   501  0.000000000E+00  0.000000000E+00  7.563455348E+02  7.563455348E+02  0.000000000E+00  0.00000E+00  9.000E+00
      21    -1     0     0   511   502  0.000000000E+00  0.000000000E+00 -3.803908512E+02  3.803908512E+02  0.000000000E+00  0.00000E+00  9.000E+00
      25     1     1     2     0     0 -1.353651777E+01 -2.810928019E+02  2.450020033E+02  3.935065212E+02  1.250000000E+02  0.00000E+00  9.000E+00
      25     1     1     2     0     0 -2.040242114E+02  2.749830787E+02  2.964247296E+02  4.698235761E+02  1.250000000E+02  0.00000E+00  9.000E+00
      21     1     1     2   511   501  2.175607291E+02  6.109723215E+00 -1.654720494E+02  2.734062887E+02  1.907348633E-06  0.00000E+00  9.000E+00
#rwgt            1           1   3.3084945440229704E-002           7      270337           0
</event>
<event>
      5   9999  3.79277E-02  1.35544E+02 -1.00000E+00  1.18165E-01
      21    -1     0     0   512   501  0.000000000E+00  0.000000000E+00  4.108333118E+02  4.108333118E+02  0.000000000E+00  0.00000E+00  9.000E+00
      21    -1     0     0   501   502  0.000000000E+00  0.000000000E+00 -3.350293705E+02  3.350293705E+02  0.000000000E+00  0.00000E+00  9.000E+00
      25     1     1     2     0     0 -9.163322735E+01  4.405380712E+01 -2.346182601E+01  1.628276499E+02  1.250000000E+02  0.00000E+00  9.000E+00
      25     1     1     2     0     0  8.346965833E+01 -1.793515645E+02 -1.648001427E+02  2.862136520E+02  1.250000000E+02  0.00000E+00  9.000E+00
      21     1     1     2   512   502  8.163569019E+00  1.352977574E+02  2.640659100E+02  2.968213804E+02  3.814697266E-06  0.00000E+00  9.000E+00
#rwgt            2          11   2.3171011359802512E-003           7      270458           0
</event>
<event>
      5   9999  3.79277E-02  1.98195E+01 -1.00000E+00  1.66695E-01
      21    -1     0     0   511   501  0.000000000E+00  0.000000000E+00  3.367639389E+02  3.367639389E+02  0.000000000E+00  0.00000E+00  9.000E+00
      21    -1     0     0   501   502  0.000000000E+00  0.000000000E+00 -1.042714096E+02  1.042714096E+02  0.000000000E+00  0.00000E+00  9.000E+00
      25     1     1     2     0     0  8.156870978E+01 -8.193851039E+01  1.445468348E+02  2.233521017E+02  1.250000000E+02  0.00000E+00  9.000E+00
      25     1     1     2     0     0 -6.603880663E+01  9.425247882E+01  5.383994026E+01  1.782369011E+02  1.250000000E+02  0.00000E+00  9.000E+00
      21     1     1     2   511   502 -1.552990316E+01 -1.231396843E+01  3.410575434E+01  3.944634571E+01  4.768371582E-07  0.00000E+00  9.000E+00
#rwgt            1           1   4.6049272746131159E-002           7      270568           0
</event>
<event>
      5   9999  3.79277E-02  2.86115E+01 -1.00000E+00  1.54483E-01
      21    -1     0     0   502   501  0.000000000E+00  0.000000000E+00  6.620875623E+01  6.620875623E+01  0.000000000E+00  0.00000E+00  9.000E+00
      21    -1     0     0   501   512  0.000000000E+00  0.000000000E+00 -7.175074428E+02  7.175074428E+02  0.000000000E+00  0.00000E+00  9.000E+00
      25     1     1     2     0     0 -1.190557526E+02 -4.543986590E+01 -1.150642218E+02  2.123766201E+02  1.250000000E+02  0.00000E+00  9.000E+00
      25     1     1     2     0     0  1.039819521E+02  2.112113873E+01 -4.031901671E+02  4.352535579E+02  1.250000000E+02  0.00000E+00  9.000E+00
      21     1     1     2   502   512  1.507380042E+01  2.431872716E+01 -1.330442977E+02  1.360860210E+02  1.907348633E-06  0.00000E+00  9.000E+00
#rwgt            1           1  0.10424270908029799                7      270720           0
</event>
<event>
      5   9999  3.79277E-02  7.26849E+01 -1.00000E+00  1.30398E-01
      21    -1     0     0   502   501  0.000000000E+00  0.000000000E+00  2.185912430E+02  2.185912430E+02  0.000000000E+00  0.00000E+00  9.000E+00
      21    -1     0     0   511   502  0.000000000E+00  0.000000000E+00 -2.312657410E+02  2.312657410E+02  0.000000000E+00  0.00000E+00  9.000E+00
      25     1     1     2     0     0 -1.279310169E+02 -6.714907658E+01  8.421093538E+01  2.087865542E+02  1.250000000E+02  0.00000E+00  9.000E+00
      25     1     1     2     0     0  7.615504503E+01  1.613588776E+01 -5.508947553E+01  1.572253417E+02  1.250000000E+02  0.00000E+00  9.000E+00
      21     1     1     2   511   501  5.177597190E+01  5.101318882E+01 -4.179595790E+01  8.384508809E+01  6.743495762E-07  0.00000E+00  9.000E+00
#rwgt            1           1   3.6286431161375247E-002           7      271083           0
</event>
<event>
      5   9999  3.79277E-02  2.74382E+01 -1.00000E+00  1.55782E-01
      21    -1     0     0   502   512  0.000000000E+00  0.000000000E+00  1.239851904E+03  1.239851904E+03  0.000000000E+00  0.00000E+00  9.000E+00
      21    -1     0     0   501   502  0.000000000E+00  0.000000000E+00 -2.770695364E+01  2.770695364E+01  0.000000000E+00  0.00000E+00  9.000E+00
      25     1     1     2     0     0 -5.415443510E+00  1.000110232E+02  5.035420487E+02  5.284043212E+02  1.250000000E+02  0.00000E+00  9.000E+00
      25     1     1     2     0     0 -1.654887044E+01 -1.164555510E+02  4.975128198E+02  5.262886721E+02  1.250000000E+02  0.00000E+00  9.000E+00
      21     1     1     2   501   512  2.196431395E+01  1.644452782E+01  2.110900815E+02  2.128658641E+02  2.697398305E-06  0.00000E+00  9.000E+00
#rwgt            1           1   4.8242314048473643E-002           7      271153           0
</event>
<event>
      5   9999  3.79277E-02  1.25282E+01 -1.00000E+00  1.85082E-01
      21    -1     0     0   511   501  0.000000000E+00  0.000000000E+00  6.457890848E+01  6.457890848E+01  0.000000000E+00  0.00000E+00  9.000E+00
      21    -1     0     0   501   502  0.000000000E+00  0.000000000E+00 -7.403787737E+02  7.403787737E+02  0.000000000E+00  0.00000E+00  9.000E+00
      25     1     1     2     0     0 -9.778556242E+00  1.196615064E+02 -5.557297846E+02  5.821297878E+02  1.250000000E+02  0.00000E+00  9.000E+00
      25     1     1     2     0     0  2.211851790E+01 -1.174977656E+02 -1.195916211E+02  2.102905361E+02  1.250000000E+02  0.00000E+00  9.000E+00
      21     1     1     2   511   502 -1.233996166E+01 -2.163740884E+00 -4.784594536E-01  1.253735824E+01  2.290977815E-07  0.00000E+00  9.000E+00
#rwgt            1           1   4.4027416025059503E-002           7      271362           0
</event>
<event>
      5   9999  3.79277E-02  4.31641E+01 -1.00000E+00  1.42819E-01
      21    -1     0     0   502   501  0.000000000E+00  0.000000000E+00  1.048253542E+03  1.048253542E+03  0.000000000E+00  0.00000E+00  9.000E+00
      21    -1     0     0   501   512  0.000000000E+00  0.000000000E+00 -2.313886380E+02  2.313886380E+02  0.000000000E+00  0.00000E+00  9.000E+00
      25     1     1     2     0     0 -2.013637675E+02 -1.817144869E+02 -3.541782299E+01  3.007439838E+02  1.250000000E+02  0.00000E+00  9.000E+00
      25     1     1     2     0     0  1.797171890E+02  1.443705832E+02  8.860847520E+02  9.240737638E+02  1.250000000E+02  0.00000E+00  9.000E+00
      21     1     1     2   502   512  2.164657844E+01  3.734390372E+01 -3.380202486E+01  5.482443240E+01  1.168007728E-06  0.00000E+00  9.000E+00
#rwgt            1           1   3.1767396028031372E-002           7      271466           0
</event>
<event>
      5   9999  3.79277E-02  1.57192E+01 -1.00000E+00  1.75489E-01
      21    -1     0     0   502   511  0.000000000E+00  0.000000000E+00  2.691561768E+02  2.691561768E+02  0.000000000E+00  0.00000E+00  9.000E+00
      21    -1     0     0   501   502  0.000000000E+00  0.000000000E+00 -1.503217191E+02  1.503217191E+02  0.000000000E+00  0.00000E+00  9.000E+00
      25     1     1     2     0     0  1.124857473E+02 -3.023613003E+01 -3.838282895E+01  1.751157002E+02  1.250000000E+02  0.00000E+00  9.000E+00
      25     1     1     2     0     0 -1.141762674E+02  1.460806028E+01  1.514390380E+02  2.276145814E+02  1.250000000E+02  0.00000E+00  9.000E+00
      21     1     1     2   501   511  1.690520083E+00  1.562806975E+01  5.778248724E+00  1.674761417E+01  3.153981341E-07  0.00000E+00  9.000E+00
#rwgt            1           1   4.4003505561704112E-002           7      271607           0
</event>
<event>
      5   9999  3.79277E-02  1.34312E+01 -1.00000E+00  1.82026E-01
      21    -1     0     0   512   501  0.000000000E+00  0.000000000E+00  1.217390551E+03  1.217390551E+03  0.000000000E+00  0.00000E+00  9.000E+00
      21    -1     0     0   501   502  0.000000000E+00  0.000000000E+00 -1.862081093E+02  1.862081093E+02  0.000000000E+00  0.00000E+00  9.000E+00
      25     1     1     2     0     0 -9.996271133E+01 -8.162991303E+01  6.418882128E+01  1.907909619E+02  1.250000000E+02  0.00000E+00  9.000E+00
      25     1     1     2     0     0  1.012110767E+02  6.825686727E+01 -6.074591757E+01  1.849804003E+02  1.250000000E+02  0.00000E+00  9.000E+00
      21     1     1     2   512   502 -1.248365409E+00  1.337304577E+01  1.027739538E+03  1.027827298E+03  1.525878906E-05  0.00000E+00  9.000E+00
#rwgt            1           1   4.3526016486546491E-002           7      271877           0
</event>
<event>
      5   9999  3.79277E-02  1.71629E+02 -1.00000E+00  1.14121E-01
       1    -1     0     0   502     0  0.000000000E+00  0.000000000E+00  1.492550875E+02  1.492550875E+02  0.000000000E+00  0.00000E+00  9.000E+00
      21    -1     0     0   501   502  0.000000000E+00  0.000000000E+00 -3.371441148E+03  3.371441148E+03  0.000000000E+00  0.00000E+00  9.000E+00
      25     1     1     2     0     0  2.275569409E+02  1.457577249E+00 -2.536996287E+03  2.550246939E+03  1.250000000E+02  0.00000E+00  9.000E+00
      25     1     1     2     0     0 -9.652139654E+01 -1.123012054E+02 -7.592006188E+02  7.835422901E+02  1.250000000E+02  0.00000E+00  9.000E+00
       1     1     1     2   501     0 -1.310355444E+02  1.108436282E+02  7.401084593E+01  1.869070066E+02  3.162979880E-06  0.00000E+00  9.000E+00
#rwgt            1           1   3.8311095565628332E-002           7      272083           0
</event>
<event>
      5   9999  3.79277E-02  2.58420E+02 -1.00000E+00  1.07741E-01
      21    -1     0     0   502   511  0.000000000E+00  0.000000000E+00  5.100789727E+02  5.100789727E+02  0.000000000E+00  0.00000E+00  9.000E+00
      21    -1     0     0   501   502  0.000000000E+00  0.000000000E+00 -3.343257511E+02  3.343257511E+02  0.000000000E+00  0.00000E+00  9.000E+00
      25     1     1     2     0     0  1.128285189E+02  1.799434919E+01  1.747132692E+01  1.702478151E+02  1.250000000E+02  0.00000E+00  9.000E+00
      25     1     1     2     0     0 -3.157748951E+02  1.419855846E+02 -5.617133944E+00  3.681443234E+02  1.250000000E+02  0.00000E+00  9.000E+00
      21     1     1     2   501   511  2.029463763E+02 -1.599799338E+02  1.638990286E+02  3.060125854E+02  5.394796609E-06  0.00000E+00  9.000E+00
#rwgt            1           1   2.8412110178041832E-002           7      272230           0
</event>
<event>
      5   9999  3.79277E-02  2.51801E+01 -1.00000E+00  1.58518E-01
      21    -1     0     0   512   501  0.000000000E+00  0.000000000E+00  3.514161834E+02  3.514161834E+02  0.000000000E+00  0.00000E+00  9.000E+00
      21    -1     0     0   501   502  0.000000000E+00  0.000000000E+00 -1.997183982E+02  1.997183982E+02  0.000000000E+00  0.00000E+00  9.000E+00
      25     1     1     2     0     0  2.276071504E+00  7.501198593E+01 -1.380655672E+02  2.007961140E+02  1.250000000E+02  0.00000E+00  9.000E+00
      25     1     1     2     0     0 -5.289276875E+00 -1.000111193E+02  1.953235409E+02  2.525994578E+02  1.250000000E+02  0.00000E+00  9.000E+00
      21     1     1     2   512   502  3.013205371E+00  2.499913337E+01  9.443981141E+01  9.773900989E+01  1.348699152E-06  0.00000E+00  9.000E+00
#rwgt            1           1   4.8361914861786759E-002           7      272270           0
</event>
<event>
      5   9999  3.79277E-02  5.57245E+01 -1.00000E+00  1.36442E-01
       1    -1     0     0   502     0  0.000000000E+00  0.000000000E+00  2.073605172E+03  2.073605172E+03  0.000000000E+00  0.00000E+00  9.000E+00
      21    -1     0     0   501   502  0.000000000E+00  0.000000000E+00 -9.872948731E+02  9.872948731E+02  0.000000000E+00  0.00000E+00  9.000E+00
      25     1     1     2     0     0 -1.033339336E+02  1.477729913E+01 -4.826880255E+02  5.094202591E+02  1.250000000E+02  0.00000E+00  9.000E+00
      25     1     1     2     0     0  1.196432631E+02 -6.806164051E+01 -4.732528847E+02  5.084684751E+02  1.250000000E+02  0.00000E+00  9.000E+00
       1     1     1     2   501     0 -1.630932958E+01  5.328434138E+01  2.042251209E+03  2.043011311E+03  2.157918644E-05  0.00000E+00  9.000E+00
#rwgt            1           1   3.4863865713612940E-002           7      272435           0
</event>
<event>
      5   9999  3.79277E-02  2.69952E+01 -1.00000E+00  1.56293E-01
      21    -1     0     0   502   501  0.000000000E+00  0.000000000E+00  1.456673136E+02  1.456673136E+02  0.000000000E+00  0.00000E+00  9.000E+00
      21    -1     0     0   511   502  0.000000000E+00  0.000000000E+00 -8.624629617E+02  8.624629617E+02  0.000000000E+00  0.00000E+00  9.000E+00
      25     1     1     2     0     0  2.699287044E+02 -9.158329258E+01 -4.244530935E+02  5.263406060E+02  1.250000000E+02  0.00000E+00  9.000E+00
      25     1     1     2     0     0 -2.810096611E+02  6.696716911E+01 -1.724753876E+02  3.589203125E+02  1.250000000E+02  0.00000E+00  9.000E+00
      21     1     1     2   511   501  1.108095673E+01  2.461612347E+01 -1.198671670E+02  1.228693568E+02  1.907348633E-06  0.00000E+00  9.000E+00
#rwgt            1           1   3.9624921970789456E-002           7      272511           0
</event>
<event>
      5   9999  3.79277E-02  1.12758E+01 -1.00000E+00  1.89916E-01
      21    -1     0     0   512   501  0.000000000E+00  0.000000000E+00  7.268285227E+02  7.268285227E+02  0.000000000E+00  0.00000E+00  9.000E+00
      21    -1     0     0   501   502  0.000000000E+00  0.000000000E+00 -2.125278734E+02  2.125278734E+02  0.000000000E+00  0.00000E+00  9.000E+00
      25     1     1     2     0     0  1.704219502E+02  1.001907624E+02 -6.963629524E+01  2.440410695E+02  1.250000000E+02  0.00000E+00  9.000E+00
      25     1     1     2     0     0 -1.726527006E+02 -8.913777790E+01  1.843643964E+02  2.955837092E+02  1.250000000E+02  0.00000E+00  9.000E+00
      21     1     1     2   512   502  2.230750356E+00 -1.105298447E+01  3.995725482E+02  3.997316174E+02  0.000000000E+00  0.00000E+00  9.000E+00
#rwgt            1           1   4.7148802390877702E-002           7      272749           0
</event>
<event>
      5   9999  3.79277E-02  8.62868E+01 -1.00000E+00  1.26779E-01
      21    -1     0     0   511   501  0.000000000E+00  0.000000000E+00  4.990365663E+02  4.990365663E+02  0.000000000E+00  0.00000E+00  9.000E+00
      21    -1     0     0   501   502  0.000000000E+00  0.000000000E+00 -3.445731275E+02  3.445731275E+02  0.000000000E+00  0.00000E+00  9.000E+00
      25     1     1     2     0     0 -5.306756541E-02  2.358096785E+02  2.648498383E+02  3.760008566E+02  1.250000000E+02  0.00000E+00  9.000E+00
      25     1     1     2     0     0  7.783680581E+01 -1.984586073E+02 -2.180961224E+02  3.295987041E+02  1.250000000E+02  0.00000E+00  9.000E+00
      21     1     1     2   511   502 -7.778373825E+01 -3.735107126E+01  1.077097229E+02  1.380101332E+02  2.336015456E-06  0.00000E+00  9.000E+00
#rwgt            1           1   3.0545537111116676E-002           7      273074           0
</event>
<event>
      5   9999 -3.79277E-02  2.15563E+02 -1.00000E+00  1.10476E-01
      21    -1     0     0   512   501  0.000000000E+00  0.000000000E+00  2.248758582E+02  2.248758582E+02  0.000000000E+00  0.00000E+00  9.000E+00
      21    -1     0     0   501   502  0.000000000E+00  0.000000000E+00 -1.831837508E+03  1.831837508E+03  0.000000000E+00  0.00000E+00  9.000E+00
      25     1     1     2     0     0 -9.016249000E+01 -1.900152772E+02 -1.267066424E+03  1.290471776E+03  1.250000000E+02  0.00000E+00  9.000E+00
      25     1     1     2     0     0  3.038463075E+02  1.616138003E+02 -4.001757282E+02  5.424087135E+02  1.250000000E+02  0.00000E+00  9.000E+00
      21     1     1     2   512   502 -2.136838175E+02  2.840147683E+01  6.028050285E+01  2.238328769E+02  5.179777380E-06  0.00000E+00  9.000E+00
#rwgt            1           1 -0.21527745348403743                7      273122           0
</event>
<event>
      5   9999  3.79277E-02  7.06310E+01 -1.00000E+00  1.31024E-01
      21    -1     0     0   511   501  0.000000000E+00  0.000000000E+00  2.154811105E+02  2.154811105E+02  0.000000000E+00  0.00000E+00  9.000E+00
      21    -1     0     0   501   502  0.000000000E+00  0.000000000E+00 -2.617681654E+02  2.617681654E+02  0.000000000E+00  0.00000E+00  9.000E+00
      25     1     1     2     0     0 -1.844307404E+01  1.487796031E+02 -2.323111517E+01  1.965711118E+02  1.250000000E+02  0.00000E+00  9.000E+00
      25     1     1     2     0     0  4.193036266E+00 -7.960100892E+01 -9.798442354E+01  1.777072014E+02  1.250000000E+02  0.00000E+00  9.000E+00
      21     1     1     2   511   502  1.425003777E+01 -6.917859415E+01  7.492848384E+01  1.029709627E+02  9.536743164E-07  0.00000E+00  9.000E+00
#rwgt            1           1   3.5865290063824905E-002           7      273172           0
</event>
<event>
      5   9999  3.79277E-02  5.14261E+01 -1.00000E+00  1.38382E-01
      21    -1     0     0   502   501  0.000000000E+00  0.000000000E+00  8.060487048E+02  8.060487048E+02  0.000000000E+00  0.00000E+00  9.000E+00
      21    -1     0     0   512   502  0.000000000E+00  0.000000000E+00 -6.497530978E+02  6.497530978E+02  0.000000000E+00  0.00000E+00  9.000E+00
      25     1     1     2     0     0  1.556487385E+02 -8.032118855E+01  6.226582335E+02  6.587915443E+02  1.250000000E+02  0.00000E+00  9.000E+00
      25     1     1     2     0     0 -1.553089613E+02  2.889620747E+01  1.023642500E+02  2.259630588E+02  1.250000000E+02  0.00000E+00  9.000E+00
      21     1     1     2   512   501 -3.397772040E-01  5.142498109E+01 -5.687268764E+02  5.710471995E+02  7.629394531E-06  0.00000E+00  9.000E+00
#rwgt            1           1   4.0378282589402667E-002           7      273340           0
</event>
<event>
      5   9999  3.79277E-02  2.27230E+02 -1.00000E+00  1.09666E-01
      21    -1     0     0   502   511  0.000000000E+00  0.000000000E+00  8.658920329E+01  8.658920329E+01  0.000000000E+00  0.00000E+00  9.000E+00
      21    -1     0     0   501   502  0.000000000E+00  0.000000000E+00 -1.719706650E+03  1.719706650E+03  0.000000000E+00  0.00000E+00  9.000E+00
      25     1     1     2     0     0 -9.777759705E+01  6.218607022E+01 -8.895194561E+02  9.057027264E+02  1.250000000E+02  0.00000E+00  9.000E+00
      25     1     1     2     0     0  1.777576679E+02  1.505033089E+02 -5.115859971E+02  5.758422240E+02  1.250000000E+02  0.00000E+00  9.000E+00
      21     1     1     2   501   511 -7.998007088E+01 -2.126893791E+02 -2.320119932E+02  3.247509026E+02  0.000000000E+00  0.00000E+00  9.000E+00
#rwgt            2          11   1.5697341180981592E-003           7      273467           0
</event>
<event>
      5   9999  3.79277E-02  9.17460E+01 -1.00000E+00  1.25534E-01
      21    -1     0     0   502   501  0.000000000E+00  0.000000000E+00  3.578331498E+02  3.578331498E+02  0.000000000E+00  0.00000E+00  9.000E+00
      -1    -1     0     0     0   502  0.000000000E+00  0.000000000E+00 -1.647600822E+03  1.647600822E+03  0.000000000E+00  0.00000E+00  9.000E+00
      25     1     1     2     0     0 -9.400501358E+01  1.131598303E+02  2.640642132E+02  3.271039566E+02  1.250000000E+02  0.00000E+00  9.000E+00
      25     1     1     2     0     0  1.638936983E+02 -5.372163766E+01 -1.258570190E+02  2.474108889E+02  1.250000000E+02  0.00000E+00  9.000E+00
      -1     1     1     2     0   501 -6.988868475E+01 -5.943819264E+01 -1.427974867E+03  1.430919127E+03  1.525878906E-05  0.00000E+00  9.000E+00
#rwgt            2          10   1.7310479747813584E-004           7      273532           0
</event>
<event>
      5   9999  3.79277E-02  3.33520E+01 -1.00000E+00  1.49912E-01
      21    -1     0     0   502   511  0.000000000E+00  0.000000000E+00  4.864406109E+01  4.864406109E+01  0.000000000E+00  0.00000E+00  9.000E+00
      21    -1     0     0   501   502  0.000000000E+00  0.000000000E+00 -2.973531991E+03  2.973531991E+03  0.000000000E+00  0.00000E+00  9.000E+00
      25     1     1     2     0     0 -1.603929105E+01  2.258075305E+02 -2.287039216E+03  2.301612408E+03  1.250000000E+02  0.00000E+00  9.000E+00
      25     1     1     2     0     0  4.900552616E+01 -2.207493360E+02 -6.367724307E+02  6.871942516E+02  1.250000000E+02  0.00000E+00  9.000E+00
      21     1     1     2   501   511 -3.296623511E+01 -5.058194501E+00 -1.076283211E+00  3.336939278E+01  1.331633664E-06  0.00000E+00  9.000E+00
#rwgt            1           1   4.2275508680414145E-002           7      273596           0
</event>
<event>
      5   9999  3.79277E-02  5.24436E+01 -1.00000E+00  1.37903E-01
      -3    -1     0     0     0   501  0.000000000E+00  0.000000000E+00  5.594320722E+02  5.594320722E+02  0.000000000E+00  0.00000E+00  9.000E+00
      21    -1     0     0   501   502  0.000000000E+00  0.000000000E+00 -1.333337440E+02  1.333337440E+02  0.000000000E+00  0.00000E+00  9.000E+00
      25     1     1     2     0     0  5.234086648E+01  1.222250276E+02  3.729234987E+02  4.151812370E+02  1.250000000E+02  0.00000E+00  9.000E+00
      25     1     1     2     0     0 -7.927868416E+01 -7.722855061E+01 -3.907674295E+01  1.714682205E+02  1.250000000E+02  0.00000E+00  9.000E+00
      -3     1     1     2     0   502  2.693781768E+01 -4.499647695E+01  9.225157252E+01  1.061163587E+02  1.348699152E-06  0.00000E+00  9.000E+00
#rwgt            1           1   4.5837277902530497E-002           7      273831           0
</event>
<event>
      5   9999  3.79277E-02  4.30623E+01 -1.00000E+00  1.42881E-01
      21    -1     0     0   511   501  0.000000000E+00  0.000000000E+00  7.163057656E+01  7.163057656E+01  0.000000000E+00  0.00000E+00  9.000E+00
      21    -1     0     0   501   502  0.000000000E+00  0.000000000E+00 -2.300114401E+03  2.300114401E+03  0.000000000E+00  0.00000E+00  9.000E+00
      25     1     1     2     0     0  2.443641284E+01  1.043960820E+02 -2.094073391E+03  2.100538990E+03  1.250000000E+02  0.00000E+00  9.000E+00
      25     1     1     2     0     0 -3.461991243E+01 -6.255519692E+01 -1.645359071E+02  2.186521341E+02  1.250000000E+02  0.00000E+00  9.000E+00
      21     1     1     2   511   502  1.018349959E+01 -4.184088506E+01  3.012547405E+01  5.255385346E+01  2.718390048E-06  0.00000E+00  9.000E+00
#rwgt            1           1  0.10467646810985771                7      273953           0
</event>
<event>
      5   9999  3.79277E-02  4.52322E+01 -1.00000E+00  1.41605E-01
      21    -1     0     0   502   501  0.000000000E+00  0.000000000E+00  6.447424970E+01  6.447424970E+01  0.000000000E+00  0.00000E+00  9.000E+00
       1    -1     0     0   501     0  0.000000000E+00  0.000000000E+00 -1.454082999E+03  1.454082999E+03  0.000000000E+00  0.00000E+00  9.000E+00
      25     1     1     2     0     0  3.976555824E+01 -7.450687271E+01 -6.490829449E+02  6.663829553E+02  1.250000000E+02  0.00000E+00  9.000E+00
      25     1     1     2     0     0 -1.762080838E+01  1.139474612E+02 -7.626560731E+01  1.863758559E+02  1.250000000E+02  0.00000E+00  9.000E+00
       1     1     1     2   502     0 -2.214474986E+01 -3.944058852E+01 -6.642601974E+02  6.657984378E+02  7.629394531E-06  0.00000E+00  9.000E+00
#rwgt            1           1   4.6800840974173120E-002           7      274353           0
</event>
<event>
      5   9999  3.79277E-02  1.53863E+01 -1.00000E+00  1.76349E-01
      21    -1     0     0   502   501  0.000000000E+00  0.000000000E+00  8.838394800E+02  8.838394800E+02  0.000000000E+00  0.00000E+00  9.000E+00
      21    -1     0     0   501   511  0.000000000E+00  0.000000000E+00 -6.447067913E+01  6.447067913E+01  0.000000000E+00  0.00000E+00  9.000E+00
      25     1     1     2     0     0 -9.389108736E+01 -8.457459411E+01  6.954669815E+02  7.178215103E+02  1.250000000E+02  0.00000E+00  9.000E+00
      25     1     1     2     0     0  8.352032580E+01  9.594062461E+01  1.187667701E+02  2.142680423E+02  1.250000000E+02  0.00000E+00  9.000E+00
      21     1     1     2   502   511  1.037076156E+01 -1.136603050E+01  5.135049174E+00  1.622060649E+01  2.457562462E-07  0.00000E+00  9.000E+00
#rwgt            1           1   3.8631606702552120E-002           7      274499           0
</event>
<event>
      5   9999  3.79277E-02  1.39367E+02 -1.00000E+00  1.17673E-01
      21    -1     0     0   502   501  0.000000000E+00  0.000000000E+00  1.291933920E+03  1.291933920E+03  0.000000000E+00  0.00000E+00  9.000E+00
      21    -1     0     0   512   502  0.000000000E+00  0.000000000E+00 -7.769429406E+01  7.769429406E+01  0.000000000E+00  0.00000E+00  9.000E+00
      25     1     1     2     0     0 -2.624671669E+01 -9.281972595E+01  8.173299161E+02  8.324407387E+02  1.250000000E+02  0.00000E+00  9.000E+00
      25     1     1     2     0     0  1.611988829E+02  5.802021276E+01  3.001929940E+02  3.675489880E+02  1.250000000E+02  0.00000E+00  9.000E+00
      21     1     1     2   512   501 -1.349521662E+02  3.479951319E+01  9.671671592E+01  1.696384875E+02  2.697398305E-06  0.00000E+00  9.000E+00
#rwgt            1           1   3.7089396183605454E-002           7      274696           0
</event>
<event>
      5   9999  3.79277E-02  1.04894E+01 -1.00000E+00  1.93389E-01
      21    -1     0     0   502   511  0.000000000E+00  0.000000000E+00  1.475833141E+02  1.475833141E+02  0.000000000E+00  0.00000E+00  9.000E+00
      21    -1     0     0   501   502  0.000000000E+00  0.000000000E+00 -3.221255562E+02  3.221255562E+02  0.000000000E+00  0.00000E+00  9.000E+00
      25     1     1     2     0     0  5.203390813E+01  5.627733434E+01 -2.564755563E+02  2.954308327E+02  1.250000000E+02  0.00000E+00  9.000E+00
      25     1     1     2     0     0 -4.602017513E+01 -4.768300390E+01  8.249415087E+01  1.637736557E+02  1.250000000E+02  0.00000E+00  9.000E+00
      21     1     1     2   501   511 -6.013732995E+00 -8.594330438E+00 -5.608366811E-01  1.050438185E+01  3.799065585E-08  0.00000E+00  9.000E+00
#rwgt            1           1   1.8943332040341536E-002           7      274747           0
</event>
<event>
      5   9999  3.79277E-02  5.59752E+01 -1.00000E+00  1.36335E-01
      21    -1     0     0   512   501  0.000000000E+00  0.000000000E+00  1.457693990E+02  1.457693990E+02  0.000000000E+00  0.00000E+00  9.000E+00
      21    -1     0     0   501   502  0.000000000E+00  0.000000000E+00 -1.047080905E+03  1.047080905E+03  0.000000000E+00  0.00000E+00  9.000E+00
      25     1     1     2     0     0  1.469950712E+02  1.423623264E+02 -4.276385836E+02  4.902798600E+02  1.250000000E+02  0.00000E+00  9.000E+00
      25     1     1     2     0     0 -1.940673209E+02 -1.726513826E+02 -5.422134219E+02  6.140773729E+02  1.250000000E+02  0.00000E+00  9.000E+00
      21     1     1     2   512   502  4.707224975E+01  3.028905620E+01  6.854049930E+01  8.849307129E+01  2.861022949E-06  0.00000E+00  9.000E+00
#rwgt            1           1   3.9262413934122192E-002           7      274931           0
</event>
<event>
      5   9999  3.79277E-02  3.26918E+01 -1.00000E+00  1.50492E-01
      21    -1     0     0   502   501  0.000000000E+00  0.000000000E+00  4.712089580E+02  4.712089580E+02  0.000000000E+00  0.00000E+00  9.000E+00
      21    -1     0     0   511   502  0.000000000E+00  0.000000000E+00 -3.440684994E+02  3.440684994E+02  0.000000000E+00  0.00000E+00  9.000E+00
      25     1     1     2     0     0  5.970990648E+01 -1.550012743E+02  1.737169611E+02  2.709118871E+02  1.250000000E+02  0.00000E+00  9.000E+00
      25     1     1     2     0     0 -7.823201901E+01  1.280627693E+02  2.093794138E+02  2.863303348E+02  1.250000000E+02  0.00000E+00  9.000E+00
      21     1     1     2   511   501  1.852211253E+01  2.693850499E+01 -2.559559163E+02  2.580352356E+02  3.814697266E-06  0.00000E+00  9.000E+00
#rwgt            1           1   2.4650040730872791E-002           7      275034           0
</event>
<event>
      5   9999  3.79277E-02  2.80438E+01 -1.00000E+00  1.55102E-01
      21    -1     0     0   502   512  0.000000000E+00  0.000000000E+00  2.161875621E+02  2.161875621E+02  0.000000000E+00  0.00000E+00  9.000E+00
      21    -1     0     0   501   502  0.000000000E+00  0.000000000E+00 -2.439112220E+02  2.439112220E+02  0.000000000E+00  0.00000E+00  9.000E+00
      25     1     1     2     0     0 -1.148238917E+02  6.318430892E+01  1.090797624E+02  2.114241650E+02  1.250000000E+02  0.00000E+00  9.000E+00
      25     1     1     2     0     0  8.855330357E+01 -7.299802866E+01 -1.406040923E+02  2.203744780E+02  1.250000000E+02  0.00000E+00  9.000E+00
      21     1     1     2   501   512  2.627058813E+01  9.813719741E+00  3.800670064E+00  2.830014114E+01  5.960464478E-08  0.00000E+00  9.000E+00
#rwgt            1           1   3.6450875657861780E-002           7      275206           0
</event>
<event>
      5   9999  3.79277E-02  6.23980E+01 -1.00000E+00  1.33800E-01
      21    -1     0     0   502   501  0.000000000E+00  0.000000000E+00  5.433028243E+02  5.433028243E+02  0.000000000E+00  0.00000E+00  9.000E+00
      21    -1     0     0   511   502  0.000000000E+00  0.000000000E+00 -1.669916966E+03  1.669916966E+03  0.000000000E+00  0.00000E+00  9.000E+00
      25     1     1     2     0     0 -1.641418040E+02  5.952000303E+01  1.959512931E+02  2.907010007E+02  1.250000000E+02  0.00000E+00  9.000E+00
      25     1     1     2     0     0  2.263710571E+02 -5.493350636E+01  2.409899915E+02  3.577187745E+02  1.250000000E+02  0.00000E+00  9.000E+00
      21     1     1     2   511   501 -6.222925318E+01 -4.586496669E+00 -1.563555427E+03  1.564800015E+03  3.051757812E-05  0.00000E+00  9.000E+00
#rwgt            1           1   3.5949535975990821E-002           7      275403           0
</event>
<event>
      5   9999  3.79277E-02  6.05564E+01 -1.00000E+00  1.34490E-01
      21    -1     0     0   502   501  0.000000000E+00  0.000000000E+00  2.729307160E+02  2.729307160E+02  0.000000000E+00  0.00000E+00  9.000E+00
      21    -1     0     0   512   502  0.000000000E+00  0.000000000E+00 -2.024146473E+02  2.024146473E+02  0.000000000E+00  0.00000E+00  9.000E+00
      25     1     1     2     0     0  7.066683007E+01  3.034118507E+01  1.823897865E+02  2.341055801E+02  1.250000000E+02  0.00000E+00  9.000E+00
      25     1     1     2     0     0 -7.705530024E+01  2.987724378E+01 -9.819561140E+01  1.791578831E+02  1.250000000E+02  0.00000E+00  9.000E+00
      21     1     1     2   512   501  6.388470168E+00 -6.021842885E+01 -1.367810637E+01  6.208190008E+01  1.079486029E-06  0.00000E+00  9.000E+00
#rwgt            1           1   3.8164359535933563E-002           7      275503           0
</event>
<event>
      5   9999  3.79277E-02  8.71594E+00 -1.00000E+00  2.02920E-01
      21    -1     0     0   502   501  0.000000000E+00  0.000000000E+00  5.314749368E+02  5.314749368E+02  0.000000000E+00  0.00000E+00  9.000E+00
      21    -1     0     0   511   502  0.000000000E+00  0.000000000E+00 -2.409069886E+02  2.409069886E+02  0.000000000E+00  0.00000E+00  9.000E+00
      25     1     1     2     0     0 -1.803106747E+02  4.990457219E+01  4.200542408E+02  4.765217423E+02  1.250000000E+02  0.00000E+00  9.000E+00
      25     1     1     2     0     0  1.721732040E+02 -5.302695028E+01 -6.207787698E+01  2.278906151E+02  1.250000000E+02  0.00000E+00  9.000E+00
      21     1     1     2   511   501  8.137470704E+00  3.122378093E+00 -6.740841565E+01  6.796956801E+01  9.536743164E-07  0.00000E+00  9.000E+00
#rwgt            1           1   8.5942868922334298E-002           7      275698           0
</event>
<event>
      5   9999 -3.79277E-02  3.13725E+01 -1.00000E+00  1.51703E-01
      21    -1     0     0   502   501  0.000000000E+00  0.000000000E+00  7.995676457E+01  7.995676457E+01  0.000000000E+00  0.00000E+00  9.000E+00
      21    -1     0     0   512   502  0.000000000E+00  0.000000000E+00 -1.044577538E+03  1.044577538E+03  0.000000000E+00  0.00000E+00  9.000E+00
      25     1     1     2     0     0 -9.883150188E+00  1.969133745E+02 -4.244469857E+02  4.844097412E+02  1.250000000E+02  0.00000E+00  9.000E+00
      25     1     1     2     0     0  3.725507065E+01 -1.815832646E+02 -2.045205951E+02  3.030084093E+02  1.250000000E+02  0.00000E+00  9.000E+00
      21     1     1     2   512   501 -2.737192046E+01 -1.533010992E+01 -3.356531925E+02  3.371161520E+02  7.629394531E-06  0.00000E+00  9.000E+00
#rwgt            1           1  -2.1641435808807247E-002           7      276133           0
</event>
<event>
      5   9999  3.79277E-02  6.26423E+01 -1.00000E+00  1.33711E-01
      21    -1     0     0   502   511  0.000000000E+00  0.000000000E+00  5.808620247E+02  5.808620247E+02  0.000000000E+00  0.00000E+00  9.000E+00
      21    -1     0     0   501   502  0.000000000E+00  0.000000000E+00 -2.967361834E+02  2.967361834E+02  0.000000000E+00  0.00000E+00  9.000E+00
      25     1     1     2     0     0 -1.735881459E+02  7.452109931E+01  6.847791728E+01  2.366441713E+02  1.250000000E+02  0.00000E+00  9.000E+00
      25     1     1     2     0     0  1.170893423E+02 -1.015754743E+02 -1.628913852E+02  2.572665824E+02  1.250000000E+02  0.00000E+00  9.000E+00
      21     1     1     2   501   511  5.649880354E+01  2.705437495E+01  3.785393093E+02  3.836874544E+02  0.000000000E+00  0.00000E+00  9.000E+00
#rwgt            1           1   4.0222573762458989E-002           7      276253           0
</event>
<event>
      5   9999  3.79277E-02  1.15682E+02 -1.00000E+00  1.21048E-01
      21    -1     0     0   502   501  0.000000000E+00  0.000000000E+00  3.820623655E+02  3.820623655E+02  0.000000000E+00  0.00000E+00  9.000E+00
      21    -1     0     0   501   512  0.000000000E+00  0.000000000E+00 -1.163956999E+03  1.163956999E+03  0.000000000E+00  0.00000E+00  9.000E+00
      25     1     1     2     0     0  7.943088856E+01  1.178109236E+02  2.808869615E+01  1.913182026E+02  1.250000000E+02  0.00000E+00  9.000E+00
      25     1     1     2     0     0 -1.845563215E+02 -6.953049346E+01  2.184683336E+02  3.197638787E+02  1.250000000E+02  0.00000E+00  9.000E+00
      21     1     1     2   502   512  1.051254329E+02 -4.828043019E+01 -1.028451663E+03  1.034937283E+03  0.000000000E+00  0.00000E+00  9.000E+00
#rwgt            1           1   3.5793714280345057E-002           7      276401           0
</event>
<event>
      5   9999  3.79277E-02  1.03730E+02 -1.00000E+00  1.23117E-01
       3    -1     0     0   502     0  0.000000000E+00  0.000000000E+00  5.299916615E+02  5.299916615E+02  0.000000000E+00  0.00000E+00  9.000E+00
      21    -1     0     0   501   502  0.000000000E+00  0.000000000E+00 -2.187448530E+02  2.187448530E+02  0.000000000E+00  0.00000E+00  9.000E+00
      25     1     1     2     0     0 -1.387667843E+02  1.650216532E+02  1.752489071E+02  3.046728506E+02  1.250000000E+02  0.00000E+00  9.000E+00
      25     1     1     2     0     0  2.424745634E+02 -1.628653436E+02  1.171987408E+02  3.386437344E+02  1.250000000E+02  0.00000E+00  9.000E+00
       3     1     1     2   501     0 -1.037077791E+02 -2.156309591E+00  1.879916054E+01  1.054199296E+02  1.215700987E-06  0.00000E+00  9.000E+00
#rwgt            2          19   6.0681459891310896E-006           7      276549           0
</event>
<event>
      5   9999  3.79277E-02  7.34221E+01 -1.00000E+00  1.30179E-01
      21    -1     0     0   502   501  0.000000000E+00  0.000000000E+00  3.667389169E+02  3.667389169E+02  0.000000000E+00  0.00000E+00  9.000E+00
      21    -1     0     0   511   502  0.000000000E+00  0.000000000E+00 -2.856416274E+02  2.856416274E+02  0.000000000E+00  0.00000E+00  9.000E+00
      25     1     1     2     0     0  7.592412327E+00 -5.898737882E+01  2.198255319E+02  2.597795605E+02  1.250000000E+02  0.00000E+00  9.000E+00
      25     1     1     2     0     0 -1.160245234E+01  1.322998780E+02  5.082015945E+01  1.893292455E+02  1.250000000E+02  0.00000E+00  9.000E+00
      21     1     1     2   511   501  4.010040014E+00 -7.331249916E+01 -1.895484019E+02  2.032717383E+02  2.697398305E-06  0.00000E+00  9.000E+00
#rwgt            1           1   3.7803563065712281E-002           7      276583           0
</event>
<event>
      5   9999  3.79277E-02  5.39343E+01 -1.00000E+00  1.37224E-01
      21    -1     0     0   512   501  0.000000000E+00  0.000000000E+00  2.515982318E+02  2.515982318E+02  0.000000000E+00  0.00000E+00  9.000E+00
      21    -1     0     0   501   502  0.000000000E+00  0.000000000E+00 -4.984390130E+02  4.984390130E+02  0.000000000E+00  0.00000E+00  9.000E+00
      25     1     1     2     0     0 -2.820429583E+01  2.014315670E+02 -1.720162574E+02  2.942528697E+02  1.250000000E+02  0.00000E+00  9.000E+00
      25     1     1     2     0     0 -2.165509597E+01 -2.219973770E+02 -1.966429013E+02  3.225603962E+02  1.250000000E+02  0.00000E+00  9.000E+00
      21     1     1     2   512   502  4.985939181E+01  2.056581004E+01  1.218183775E+02  1.332239790E+02  2.336015456E-06  0.00000E+00  9.000E+00
#rwgt            1           1   3.4311931032806026E-002           7      276680           0
</event>
<event>
      5   9999  3.79277E-02  8.22741E+01 -1.00000E+00  1.27763E-01
       2    -1     0     0   502     0  0.000000000E+00  0.000000000E+00  8.160604153E+02  8.160604153E+02  0.000000000E+00  0.00000E+00  9.000E+00
      21    -1     0     0   501   502  0.000000000E+00  0.000000000E+00 -2.074705175E+02  2.074705175E+02  0.000000000E+00  0.00000E+00  9.000E+00
      25     1     1     2     0     0  1.453228158E+02  5.213516197E+01  5.120940589E+01  2.051443374E+02  1.250000000E+02  0.00000E+00  9.000E+00
      25     1     1     2     0     0 -1.481631574E+02  3.008985310E+01 -5.242624664E+01  2.030547508E+02  1.250000000E+02  0.00000E+00  9.000E+00
       2     1     1     2   501     0  2.840341594E+00 -8.222501507E+01  6.098067386E+02  6.153318447E+02  1.525878906E-05  0.00000E+00  9.000E+00
#rwgt            1           1   4.1136463785074399E-002           7      276949           0
</event>
<event>
      5   9999  3.79277E-02  6.76204E+01 -1.00000E+00  1.31986E-01
      21    -1     0     0   502   501  0.000000000E+00  0.000000000E+00  2.579231843E+02  2.579231843E+02  0.000000000E+00  0.00000E+00  9.000E+00
      21    -1     0     0   511   502  0.000000000E+00  0.000000000E+00 -3.804437979E+02  3.804437979E+02  0.000000000E+00  0.00000E+00  9.000E+00
      25     1     1     2     0     0  1.912832642E+02  4.438204567E+01 -1.477646892E+01  2.332432146E+02  1.250000000E+02  0.00000E+00  9.000E+00
      25     1     1     2     0     0 -2.278250221E+02 -1.012785758E+02 -1.167021879E+00  2.789049167E+02  1.250000000E+02  0.00000E+00  9.000E+00
      21     1     1     2   511   501  3.654175792E+01  5.689653016E+01 -1.065771227E+02  1.262188508E+02  2.336015456E-06  0.00000E+00  9.000E+00
#rwgt            1           1   4.7365342829449986E-002           7      277092           0
</event>
<event>
      5   9999  3.79277E-02  1.08589E+01 -1.00000E+00  1.91709E-01
      21    -1     0     0   502   501  0.000000000E+00  0.000000000E+00  2.223748456E+02  2.223748456E+02  0.000000000E+00  0.00000E+00  9.000E+00
      21    -1     0     0   512   502  0.000000000E+00  0.000000000E+00 -2.360343180E+02  2.360343180E+02  0.000000000E+00  0.00000E+00  9.000E+00
      25     1     1     2     0     0 -4.247304055E+01 -1.615207521E+02  5.739740035E+01  2.163616743E+02  1.250000000E+02  0.00000E+00  9.000E+00
      25     1     1     2     0     0  5.208889333E+01  1.564759112E+02 -4.217418202E+01  2.111909686E+02  1.250000000E+02  0.00000E+00  9.000E+00
      21     1     1     2   512   501 -9.615852782E+00  5.044840870E+00 -2.888269075E+01  3.085652069E+01  4.768371582E-07  0.00000E+00  9.000E+00
#rwgt            1           1   9.4172196132155161E-002           7      277288           0
</event>
<event>
      5   9999  3.79277E-02  1.19232E+02 -1.00000E+00  1.20487E-01
      -3    -1     0     0     0   501  0.000000000E+00  0.000000000E+00  2.248418510E+02  2.248418510E+02  0.000000000E+00  0.00000E+00  9.000E+00
      21    -1     0     0   501   502  0.000000000E+00  0.000000000E+00 -7.762800720E+02  7.762800720E+02  0.000000000E+00  0.00000E+00  9.000E+00
      25     1     1     2     0     0  8.796441142E+01  1.340016201E+02 -6.345323626E+02  6.662960986E+02  1.250000000E+02  0.00000E+00  9.000E+00
      25     1     1     2     0     0 -7.547201892E+01 -1.542559176E+01 -5.095741448E+01  1.554208243E+02  1.250000000E+02  0.00000E+00  9.000E+00
      -3     1     1     2     0   502 -1.249239249E+01 -1.185760283E+02  1.340515561E+02  1.794050001E+02  3.814697266E-06  0.00000E+00  9.000E+00
#rwgt            1           1   3.6890320664754644E-002           7      277609           0
</event>
<event>
      5   9999  3.79277E-02  6.24755E+01 -1.00000E+00  1.33772E-01
      21    -1     0     0   502   501  0.000000000E+00  0.000000000E+00  4.891114028E+02  4.891114028E+02  0.000000000E+00  0.00000E+00  9.000E+00
       1    -1     0     0   501     0  0.000000000E+00  0.000000000E+00 -1.087991579E+03  1.087991579E+03  0.000000000E+00  0.00000E+00  9.000E+00
      25     1     1     2     0     0 -2.632188761E+02 -4.205555399E+01  1.864727834E+02  3.484966934E+02  1.250000000E+02  0.00000E+00  9.000E+00
      25     1     1     2     0     0  2.065352737E+02  6.832639380E+01  1.492385940E+02  2.919288840E+02  1.250000000E+02  0.00000E+00  9.000E+00
       1     1     1     2   502     0  5.668360243E+01 -2.627083981E+01 -9.345915539E+02  9.366774047E+02  1.868812365E-05  0.00000E+00  9.000E+00
#rwgt            1           1   3.0257563769290664E-002           7      277787           0
</event>
<event>
      5   9999  3.79277E-02  2.58363E+01 -1.00000E+00  1.57688E-01
      21    -1     0     0   502   511  0.000000000E+00  0.000000000E+00  1.657418602E+02  1.657418602E+02  0.000000000E+00  0.00000E+00  9.000E+00
      21    -1     0     0   501   502  0.000000000E+00  0.000000000E+00 -2.489917057E+02  2.489917057E+02  0.000000000E+00  0.00000E+00  9.000E+00
      25     1     1     2     0     0 -4.009726777E+01  9.374790409E+01 -1.359038082E+02  2.109296221E+02  1.250000000E+02  0.00000E+00  9.000E+00
      25     1     1     2     0     0  6.589679646E+01 -9.236914583E+01  5.574479551E+01  1.777833769E+02  1.250000000E+02  0.00000E+00  9.000E+00
      21     1     1     2   501   511 -2.579952870E+01 -1.378758254E+00 -3.090832771E+00  2.602056691E+01  5.364418030E-07  0.00000E+00  9.000E+00
#rwgt            1           1   3.5175673172306993E-002           7      277954           0
</event>
<event>
      5   9999  3.79277E-02  5.11579E+01 -1.00000E+00  1.38511E-01
      21    -1     0     0   502   501  0.000000000E+00  0.000000000E+00  6.777652788E+02  6.777652788E+02  0.000000000E+00  0.00000E+00  9.000E+00
      21    -1     0     0   501   512  0.000000000E+00  0.000000000E+00 -1.472169488E+02  1.472169488E+02  0.000000000E+00  0.00000E+00  9.000E+00
      25     1     1     2     0     0 -9.144890184E+01 -1.019286775E+02  5.019829840E+02  5.351301460E+02  1.250000000E+02  0.00000E+00  9.000E+00
      25     1     1     2     0     0  4.881970862E+01  1.302109246E+02  9.197306806E+01  2.083801672E+02  1.250000000E+02  0.00000E+00  9.000E+00
      21     1     1     2   502   512  4.262919322E+01 -2.828224713E+01 -6.340772202E+01  8.147191435E+01  1.348699152E-06  0.00000E+00  9.000E+00
#rwgt            1           1   3.1893855876429504E-002           7      278171           0
</event>
<event>
      5   9999  3.79277E-02  9.21198E+01 -1.00000E+00  1.25453E-01
      21    -1     0     0   502   501  0.000000000E+00  0.000000000E+00  2.934404691E+02  2.934404691E+02  0.000000000E+00  0.00000E+00  9.000E+00
       2    -1     0     0   501     0  0.000000000E+00  0.000000000E+00 -9.663885931E+02  9.663885931E+02  0.000000000E+00  0.00000E+00  9.000E+00
      25     1     1     2     0     0 -1.210347013E+02  1.103641085E+02  1.267325055E+02  2.419003169E+02  1.250000000E+02  0.00000E+00  9.000E+00
      25     1     1     2     0     0  1.423889615E+02 -1.999746616E+02 -7.239760690E+01  2.848348559E+02  1.250000000E+02  0.00000E+00  9.000E+00
       2     1     1     2   502     0 -2.135426023E+01  8.961055309E+01 -7.272830227E+02  7.330938894E+02  1.078959322E-05  0.00000E+00  9.000E+00
#rwgt            1           1   3.0674519058215329E-002           7      278281           0
</event>
<event>
      5   9999  3.79277E-02  2.42706E+01 -1.00000E+00  1.59720E-01
      21    -1     0     0   502   501  0.000000000E+00  0.000000000E+00  1.431183830E+03  1.431183830E+03  0.000000000E+00  0.00000E+00  9.000E+00
      21    -1     0     0   501   511  0.000000000E+00  0.000000000E+00 -2.196057498E+02  2.196057498E+02  0.000000000E+00  0.00000E+00  9.000E+00
      25     1     1     2     0     0 -7.569052120E+01 -2.050579744E+02  7.720716905E+02  8.120945284E+02  1.250000000E+02  0.00000E+00  9.000E+00
      25     1     1     2     0     0  8.378821324E+01  1.821780406E+02  6.164027850E+02  6.601414216E+02  1.250000000E+02  0.00000E+00  9.000E+00
      21     1     1     2   502   511 -8.097692039E+00  2.287993382E+01 -1.768963954E+02  1.785536297E+02  6.325959759E-06  0.00000E+00  9.000E+00
#rwgt            1           1   2.3828760821908039E-002           7      278460           0
</event>
<event>
      5   9999  3.79277E-02  2.69001E+01 -1.00000E+00  1.56404E-01
      21    -1     0     0   502   512  0.000000000E+00  0.000000000E+00  1.401398912E+02  1.401398912E+02  0.000000000E+00  0.00000E+00  9.000E+00
      21    -1     0     0   501   502  0.000000000E+00  0.000000000E+00 -6.412558976E+02  6.412558976E+02  0.000000000E+00  0.00000E+00  9.000E+00
      25     1     1     2     0     0 -1.287059217E+02  2.030035253E+02 -1.671160760E+02  3.183212660E+02  1.250000000E+02  0.00000E+00  9.000E+00
      25     1     1     2     0     0  1.206228570E+02 -2.286605158E+02 -3.271780621E+02  4.353228565E+02  1.250000000E+02  0.00000E+00  9.000E+00
      21     1     1     2   501   512  8.083064708E+00  2.565699049E+01 -6.821868248E+00  2.775166631E+01  1.685873940E-07  0.00000E+00  9.000E+00
#rwgt            1           1   3.6089538098034578E-002           7      278722           0
</event>
<event>
      5   9999  3.79277E-02  4.30130E+01 -1.00000E+00  1.42911E-01
       3    -1     0     0   502     0  0.000000000E+00  0.000000000E+00  1.184712960E+03  1.184712960E+03  0.000000000E+00  0.00000E+00  9.000E+00
      21    -1     0     0   501   502  0.000000000E+00  0.000000000E+00 -8.817468356E+02  8.817468356E+02  0.000000000E+00  0.00000E+00  9.000E+00
      25     1     1     2     0     0  1.128999161E+02  1.582212734E+02 -3.144895270E+02  3.902678888E+02  1.250000000E+02  0.00000E+00  9.000E+00
      25     1     1     2     0     0 -1.556997423E+02 -1.624978106E+02 -4.976308176E+02  5.602761630E+02  1.250000000E+02  0.00000E+00  9.000E+00
       3     1     1     2   501     0  4.279982626E+01  4.276537154E+00  1.115086469E+03  1.115915744E+03  1.525878906E-05  0.00000E+00  9.000E+00
#rwgt            1           1   3.6529431776884974E-002           7      278949           0
</event>
<event>
      5   9999  3.79277E-02  1.19028E+02 -1.00000E+00  1.20518E-01
       1    -1     0     0   502     0  0.000000000E+00  0.000000000E+00  8.445851188E+02  8.445851188E+02  0.000000000E+00  0.00000E+00  9.000E+00
      21    -1     0     0   501   502  0.000000000E+00  0.000000000E+00 -3.736959485E+02  3.736959485E+02  0.000000000E+00  0.00000E+00  9.000E+00
      25     1     1     2     0     0  4.358594657E+01 -3.227531389E+01 -7.025645909E+01  1.533049271E+02  1.250000000E+02  0.00000E+00  9.000E+00
      25     1     1     2     0     0 -1.263011407E+02  1.178668486E+02 -2.130594205E+02  3.014363761E+02  1.250000000E+02  0.00000E+00  9.000E+00
       1     1     1     2   501     0  8.271519413E+01 -8.559153473E+01  7.542050499E+02  7.635397642E+02  1.078959322E-05  0.00000E+00  9.000E+00
#rwgt            1           1   3.7583712278954129E-002           7      279078           0
</event>
<event>
      5   9999  3.79277E-02  1.55337E+02 -1.00000E+00  1.15795E-01
      21    -1     0     0   511   501  0.000000000E+00  0.000000000E+00  4.751455150E+02  4.751455150E+02  0.000000000E+00  0.00000E+00  9.000E+00
      21    -1     0     0   501   502  0.000000000E+00  0.000000000E+00 -2.372456681E+02  2.372456681E+02  0.000000000E+00  0.00000E+00  9.000E+00
      25     1     1     2     0     0  1.166130664E+02 -1.803528091E+02  5.289383391E+01  2.540639696E+02  1.250000000E+02  0.00000E+00  9.000E+00
      25     1     1     2     0     0  2.391446180E+00  8.051530199E+01 -6.635707558E+01  1.628394742E+02  1.250000000E+02  0.00000E+00  9.000E+00
      21     1     1     2   511   502 -1.190045126E+02  9.983750709E+01  2.513630885E+02  2.954877393E+02  5.394796609E-06  0.00000E+00  9.000E+00
#rwgt            1           1   3.9586926622849579E-002           7      279119           0
</event>
<event>
      5   9999  3.79277E-02  1.90809E+02 -1.00000E+00  1.12397E-01
      21    -1     0     0   502   501  0.000000000E+00  0.000000000E+00  5.347888769E+01  5.347888769E+01  0.000000000E+00  0.00000E+00  9.000E+00
       2    -1     0     0   501     0  0.000000000E+00  0.000000000E+00 -2.898832994E+03  2.898832994E+03  0.000000000E+00  0.00000E+00  9.000E+00
      25     1     1     2     0     0  1.659821638E+02  7.065994835E+01 -6.913674238E+02  7.253666809E+02  1.250000000E+02  0.00000E+00  9.000E+00
      25     1     1     2     0     0  2.403970635E+01 -8.797222859E+01 -1.554916420E+02  2.193619639E+02  1.250000000E+02  0.00000E+00  9.000E+00
       2     1     1     2   502     0 -1.900218701E+02  1.731228024E+01 -1.998495041E+03  2.007583237E+03  2.157918644E-05  0.00000E+00  9.000E+00
#rwgt            1           1   3.9461896837778732E-002           7      279197           0
</event>
<event>
      5   9999  3.79277E-02  3.40259E+01 -1.00000E+00  1.49336E-01
      21    -1     0     0   511   501  0.000000000E+00  0.000000000E+00  1.728590799E+03  1.728590799E+03  0.000000000E+00  0.00000E+00  9.000E+00
      21    -1     0     0   501   502  0.000000000E+00  0.000000000E+00 -3.292085390E+01  3.292085390E+01  0.000000000E+00  0.00000E+00  9.000E+00
      25     1     1     2     0     0  1.712283102E+01  9.392665658E+01  2.168715219E+02  2.679060752E+02  1.250000000E+02  0.00000E+00  9.000E+00
      25     1     1     2     0     0 -4.364896846E+01 -1.152368724E+02  1.263872954E+03  1.276003375E+03  1.250000000E+02  0.00000E+00  9.000E+00
      21     1     1     2   511   502  2.652613744E+01  2.131021578E+01  2.149254693E+02  2.176022027E+02  2.697398305E-06  0.00000E+00  9.000E+00
#rwgt            1           1   4.7309560541391987E-002           7      279263           0
</event>
<event>
      5   9999  3.79277E-02  3.19427E+01 -1.00000E+00  1.51171E-01
      21    -1     0     0   502   501  0.000000000E+00  0.000000000E+00  5.183889454E+02  5.183889454E+02  0.000000000E+00  0.00000E+00  9.000E+00
      21    -1     0     0   512   502  0.000000000E+00  0.000000000E+00 -4.220767660E+02  4.220767660E+02  0.000000000E+00  0.00000E+00  9.000E+00
      25     1     1     2     0     0  8.821814675E+01  2.048671079E+02  1.145204136E+02  2.801658409E+02  1.250000000E+02  0.00000E+00  9.000E+00
      25     1     1     2     0     0 -5.629678156E+01 -2.036989033E+02  2.730985307E+02  3.672470263E+02  1.250000000E+02  0.00000E+00  9.000E+00
      21     1     1     2   512   501 -3.192136520E+01 -1.168204607E+00 -2.913067649E+02  2.930528443E+02  0.000000000E+00  0.00000E+00  9.000E+00
#rwgt            1           1   3.4724403401055898E-002           7      279469           0
</event>
<event>
      5   9999  3.79277E-02  2.72217E+01 -1.00000E+00  1.56030E-01
      21    -1     0     0   502   501  0.000000000E+00  0.000000000E+00  1.020635612E+03  1.020635612E+03  0.000000000E+00  0.00000E+00  9.000E+00
      21    -1     0     0   511   502  0.000000000E+00  0.000000000E+00 -3.051153478E+01  3.051153478E+01  0.000000000E+00  0.00000E+00  9.000E+00
      25     1     1     2     0     0 -7.019177131E+01  6.275658312E+01  4.997879748E+02  5.237158516E+02  1.250000000E+02  0.00000E+00  9.000E+00
      25     1     1     2     0     0  9.614792147E+01 -5.455290782E+01  4.297686035E+02  4.610276511E+02  1.250000000E+02  0.00000E+00  9.000E+00
      21     1     1     2   511   501 -2.595615015E+01 -8.203675296E+00  6.056749927E+01  6.640364438E+01  0.000000000E+00  0.00000E+00  9.000E+00
#rwgt            1           1   3.5978844445958516E-002           7      279677           0
</event>
<event>
      5   9999  3.79277E-02  3.77326E+01 -1.00000E+00  1.46430E-01
      21    -1     0     0   502   501  0.000000000E+00  0.000000000E+00  4.496760773E+02  4.496760773E+02  0.000000000E+00  0.00000E+00  9.000E+00
      21    -1     0     0   512   502  0.000000000E+00  0.000000000E+00 -5.441924716E+02  5.441924716E+02  0.000000000E+00  0.00000E+00  9.000E+00
      25     1     1     2     0     0  1.040196738E+02  1.198155283E+02  2.820798274E+02  3.469436299E+02  1.250000000E+02  0.00000E+00  9.000E+00
      25     1     1     2     0     0 -1.104272325E+02 -8.263096773E+01  6.990589962E+01  1.988312986E+02  1.250000000E+02  0.00000E+00  9.000E+00
      21     1     1     2   512   501  6.407558740E+00 -3.718456052E+01 -4.465021212E+02  4.480936204E+02  7.629394531E-06  0.00000E+00  9.000E+00
#rwgt            1           1   3.5961057272673853E-002           7      279829           0
</event>
<event>
      5   9999 -3.79277E-02  1.29382E+01 -1.00000E+00  1.83655E-01
      21    -1     0     0   502   501  0.000000000E+00  0.000000000E+00  7.332889492E+02  7.332889492E+02  0.000000000E+00  0.00000E+00  9.000E+00
       2    -1     0     0   501     0  0.000000000E+00  0.000000000E+00 -2.976766569E+02  2.976766569E+02  0.000000000E+00  0.00000E+00  9.000E+00
      25     1     1     2     0     0  1.376184615E+01 -2.846464916E+02  4.923571510E+02  5.824547859E+02  1.250000000E+02  0.00000E+00  9.000E+00
      25     1     1     2     0     0 -3.949396696E+00  2.930792880E+02  6.572875386E+01  3.253557067E+02  1.250000000E+02  0.00000E+00  9.000E+00
       2     1     1     2   502     0 -9.812449453E+00 -8.432796484E+00 -1.224736125E+02  1.231551135E+02  0.000000000E+00  0.00000E+00  9.000E+00
#rwgt            1           1 -0.14229801722274255                7      279992           0
</event>
<event>
      5   9999  3.79277E-02  4.27703E+01 -1.00000E+00  1.43059E-01
      21    -1     0     0   511   501  0.000000000E+00  0.000000000E+00  5.780406558E+01  5.780406558E+01  0.000000000E+00  0.00000E+00  9.000E+00
      21    -1     0     0   501   502  0.000000000E+00  0.000000000E+00 -1.937079279E+03  1.937079279E+03  0.000000000E+00  0.00000E+00  9.000E+00
      25     1     1     2     0     0  7.630184268E+01  2.227600069E+02 -1.092498921E+03  1.124554527E+03  1.250000000E+02  0.00000E+00  9.000E+00
      25     1     1     2     0     0 -1.034142339E+02 -1.896811091E+02 -7.889627990E+02  8.275027040E+02  1.250000000E+02  0.00000E+00  9.000E+00
      21     1     1     2   511   502  2.711239126E+01 -3.307889780E+01  2.186506021E+00  4.282611409E+01  1.006242217E-06  0.00000E+00  9.000E+00
#rwgt            1           1   3.9617824759503595E-002           7      280283           0
</event>
<event>
      5   9999  3.79277E-02  5.93924E+01 -1.00000E+00  1.34940E-01
       2    -1     0     0   502     0  0.000000000E+00  0.000000000E+00  1.711741367E+03  1.711741367E+03  0.000000000E+00  0.00000E+00  9.000E+00
      21    -1     0     0   501   502  0.000000000E+00  0.000000000E+00 -3.324045773E+02  3.324045773E+02  0.000000000E+00  0.00000E+00  9.000E+00
      25     1     1     2     0     0  1.636699179E+02  7.187161369E+01 -2.509347495E+02  3.324855175E+02  1.250000000E+02  0.00000E+00  9.000E+00
      25     1     1     2     0     0 -1.395754101E+02 -1.261570287E+02  2.785069418E+02  3.585917005E+02  1.250000000E+02  0.00000E+00  9.000E+00
       2     1     1     2   501     0 -2.409450773E+01  5.428541504E+01  1.351764597E+03  1.353068726E+03  1.525878906E-05  0.00000E+00  9.000E+00
#rwgt            1           1   3.9946127164826109E-002           7      280413           0
</event>
<event>
      5   9999  3.79277E-02  3.23892E+01 -1.00000E+00  1.50764E-01
      21    -1     0     0   502   501  0.000000000E+00  0.000000000E+00  1.390484739E+02  1.390484739E+02  0.000000000E+00  0.00000E+00  9.000E+00
      21    -1     0     0   501   511  0.000000000E+00  0.000000000E+00 -4.167231306E+02  4.167231306E+02  0.000000000E+00  0.00000E+00  9.000E+00
      25     1     1     2     0     0 -2.372628104E+01 -1.657614872E+02 -1.211032597E+02  2.415177148E+02  1.250000000E+02  0.00000E+00  9.000E+00
      25     1     1     2     0     0 -3.719444520E+00  1.829601543E+02 -8.805550793E+01  2.384680792E+02  1.250000000E+02  0.00000E+00  9.000E+00
      21     1     1     2   502   511  2.744572556E+01 -1.719866710E+01 -6.851588916E+01  7.578581047E+01  1.651812370E-06  0.00000E+00  9.000E+00
#rwgt            1           1  0.13476052499052726                7      280605           0
</event>
<event>
      5   9999  3.79277E-02  2.59331E+01 -1.00000E+00  1.57568E-01
      21    -1     0     0   502   501  0.000000000E+00  0.000000000E+00  1.686152042E+03  1.686152042E+03  0.000000000E+00  0.00000E+00  9.000E+00
      21    -1     0     0   512   502  0.000000000E+00  0.000000000E+00 -2.013895916E+02  2.013895916E+02  0.000000000E+00  0.00000E+00  9.000E+00
      25     1     1     2     0     0 -1.378327077E+02  4.325706969E+01  8.106648392E+02  8.328694441E+02  1.250000000E+02  0.00000E+00  9.000E+00
      25     1     1     2     0     0  1.350808516E+02 -6.904377637E+01  8.522587373E+02  8.746335432E+02  1.250000000E+02  0.00000E+00  9.000E+00
      21     1     1     2   512   501  2.751856100E+00  2.578670668E+01 -1.781611266E+02  1.800386458E+02  7.864199878E-06  0.00000E+00  9.000E+00
#rwgt            1           1   4.1100250807317884E-002           7      280942           0
</event>
<event>
      5   9999  3.79277E-02  2.68742E+01 -1.00000E+00  1.56435E-01
      21    -1     0     0   502   501  0.000000000E+00  0.000000000E+00  1.980199072E+02  1.980199072E+02  0.000000000E+00  0.00000E+00  9.000E+00
      21    -1     0     0   501   511  0.000000000E+00  0.000000000E+00 -5.564037005E+02  5.564037005E+02  0.000000000E+00  0.00000E+00  9.000E+00
      25     1     1     2     0     0  1.578517908E+02  6.198271004E+01 -1.604743800E+02  2.648321560E+02  1.250000000E+02  0.00000E+00  9.000E+00
      25     1     1     2     0     0 -1.738986824E+02 -8.354004096E+01  5.409449116E+01  2.361586419E+02  1.250000000E+02  0.00000E+00  9.000E+00
      21     1     1     2   502   511  1.604689161E+01  2.155733092E+01 -2.520039044E+02  2.534328098E+02  4.672030912E-06  0.00000E+00  9.000E+00
#rwgt            1           1   3.6850478466992950E-002           7      281164           0
</event>
<event>
      5   9999  3.79277E-02  6.72785E+01 -1.00000E+00  1.32099E-01
      21    -1     0     0   512   501  0.000000000E+00  0.000000000E+00  1.276583550E+02  1.276583550E+02  0.000000000E+00  0.00000E+00  9.000E+00
      21    -1     0     0   501   502  0.000000000E+00  0.000000000E+00 -1.228310375E+03  1.228310375E+03  0.000000000E+00  0.00000E+00  9.000E+00
      25     1     1     2     0     0  2.339183918E+01 -2.492007511E+02 -4.470690244E+02  5.273935012E+02  1.250000000E+02  0.00000E+00  9.000E+00
      25     1     1     2     0     0 -8.921663588E+01  2.352905247E+02 -6.949469140E+02  7.495981940E+02  1.250000000E+02  0.00000E+00  9.000E+00
      21     1     1     2   512   502  6.582479670E+01  1.391022642E+01  4.136391854E+01  7.897703474E+01  1.348699152E-06  0.00000E+00  9.000E+00
#rwgt            1           1   2.2485163512481064E-002           7      281296           0
</event>
<event>
      5   9999  3.79277E-02  1.08756E+01 -1.00000E+00  1.91635E-01
      21    -1     0     0   502   501  0.000000000E+00  0.000000000E+00  2.747941008E+02  2.747941008E+02  0.000000000E+00  0.00000E+00  9.000E+00
      21    -1     0     0   501   511  0.000000000E+00  0.000000000E+00 -1.488514328E+02  1.488514328E+02  0.000000000E+00  0.00000E+00  9.000E+00
      25     1     1     2     0     0 -1.067351762E+02  7.588094799E+01  1.082470372E+02  2.109330158E+02  1.250000000E+02  0.00000E+00  9.000E+00
      25     1     1     2     0     0  1.151974080E+02 -6.904945290E+01  4.010136169E+01  1.878067862E+02  1.250000000E+02  0.00000E+00  9.000E+00
      21     1     1     2   502   511 -8.462231743E+00 -6.831495093E+00 -2.240573084E+01  2.490573159E+01  4.129530925E-07  0.00000E+00  9.000E+00
#rwgt            1           1   3.0199345612097209E-002           7      281433           0
</event>
<event>
      5   9999  3.79277E-02  2.06645E+01 -1.00000E+00  1.65206E-01
      21    -1     0     0   502   501  0.000000000E+00  0.000000000E+00  1.064013643E+02  1.064013643E+02  0.000000000E+00  0.00000E+00  9.000E+00
      21    -1     0     0   512   502  0.000000000E+00  0.000000000E+00 -1.532124649E+03  1.532124649E+03  0.000000000E+00  0.00000E+00  9.000E+00
      25     1     1     2     0     0  9.838184110E+01  8.737050598E+01 -2.562346706E+02  3.139964942E+02  1.250000000E+02  0.00000E+00  9.000E+00
      25     1     1     2     0     0 -8.283471104E+01 -7.375777494E+01 -1.274184864E+01  1.675981904E+02  1.250000000E+02  0.00000E+00  9.000E+00
      21     1     1     2   512   501 -1.554713005E+01 -1.361273104E+01 -1.156746766E+03  1.156931329E+03  1.525878906E-05  0.00000E+00  9.000E+00
#rwgt            1           1   4.5113228279792146E-002           7      281700           0
</event>
<event>
      5   9999  3.79277E-02  2.85820E+01 -1.00000E+00  1.54515E-01
      21    -1     0     0   502   501  0.000000000E+00  0.000000000E+00  3.548742770E+02  3.548742770E+02  0.000000000E+00  0.00000E+00  9.000E+00
       2    -1     0     0   501     0  0.000000000E+00  0.000000000E+00 -7.772289763E+02  7.772289763E+02  0.000000000E+00  0.00000E+00  9.000E+00
      25     1     1     2     0     0 -1.819104542E+01 -9.745573714E+01  2.376112113E+02  2.862038130E+02  1.250000000E+02  0.00000E+00  9.000E+00
      25     1     1     2     0     0 -9.561620084E+00  1.042908600E+02  2.092343812E+01  1.644104569E+02  1.250000000E+02  0.00000E+00  9.000E+00
       2     1     1     2   502     0  2.775266550E+01 -6.835122908E+00 -6.808893487E+02  6.814889834E+02  0.000000000E+00  0.00000E+00  9.000E+00
#rwgt            1           1   3.5684619024766356E-002           7      281861           0
</event>
<event>
      5   9999  3.79277E-02  2.60167E+01 -1.00000E+00  1.57465E-01
      21    -1     0     0   502   511  0.000000000E+00  0.000000000E+00  1.241015353E+02  1.241015353E+02  0.000000000E+00  0.00000E+00  9.000E+00
      21    -1     0     0   501   502  0.000000000E+00  0.000000000E+00 -2.464716045E+02  2.464716045E+02  0.000000000E+00  0.00000E+00  9.000E+00
      25     1     1     2     0     0 -3.615132852E+01  8.486984156E+01 -3.360226337E+01  1.589462823E+02  1.250000000E+02  0.00000E+00  9.000E+00
      25     1     1     2     0     0  6.193158745E+01 -8.137003097E+01 -9.124590940E+01  1.854923703E+02  1.250000000E+02  0.00000E+00  9.000E+00
      21     1     1     2   501   511 -2.578025893E+01 -3.499810587E+00  2.478103604E+00  2.613448721E+01  3.475518164E-07  0.00000E+00  9.000E+00
#rwgt            1           1   4.3968208677505109E-002           7      282010           0
</event>
<event>
      5   9999  3.79277E-02  4.36416E+01 -1.00000E+00  1.42532E-01
      21    -1     0     0   512   501  0.000000000E+00  0.000000000E+00  9.237962249E+01  9.237962249E+01  0.000000000E+00  0.00000E+00  9.000E+00
      21    -1     0     0   501   502  0.000000000E+00  0.000000000E+00 -4.815555553E+02  4.815555553E+02  0.000000000E+00  0.00000E+00  9.000E+00
      25     1     1     2     0     0  2.254400482E+01 -7.706059435E+01 -2.698521947E+02  3.080450850E+02  1.250000000E+02  0.00000E+00  9.000E+00
      25     1     1     2     0     0 -5.696566949E+01  1.038885496E+02 -1.357118287E+02  2.192729319E+02  1.250000000E+02  0.00000E+00  9.000E+00
      21     1     1     2   512   502  3.442166467E+01 -2.682795521E+01  1.638809061E+01  4.661716093E+01  1.118282261E-06  0.00000E+00  9.000E+00
#rwgt            1           1   4.1439238906917190E-002           7      282426           0
</event>
<event>
      5   9999  3.79277E-02  4.97471E+01 -1.00000E+00  1.39201E-01
      21    -1     0     0   511   501  0.000000000E+00  0.000000000E+00  1.406283566E+03  1.406283566E+03  0.000000000E+00  0.00000E+00  9.000E+00
      21    -1     0     0   501   502  0.000000000E+00  0.000000000E+00 -1.025166385E+02  1.025166385E+02  0.000000000E+00  0.00000E+00  9.000E+00
      25     1     1     2     0     0 -2.046342181E+01  2.562013818E+02  4.614607324E+02  5.427972985E+02  1.250000000E+02  0.00000E+00  9.000E+00
      25     1     1     2     0     0 -1.842001214E+00 -3.006675948E+02  3.774635731E+02  4.985059123E+02  1.250000000E+02  0.00000E+00  9.000E+00
      21     1     1     2   511   502  2.230542302E+01  4.446621299E+01  4.648426214E+02  4.674969932E+02  0.000000000E+00  0.00000E+00  9.000E+00
#rwgt            1           1   3.6787458920423878E-002           7      282663           0
</event>
<event>
      5   9999  3.79277E-02  1.07289E+01 -1.00000E+00  1.92290E-01
      21    -1     0     0   502   512  0.000000000E+00  0.000000000E+00  1.942866890E+02  1.942866890E+02  0.000000000E+00  0.00000E+00  9.000E+00
      21    -1     0     0   501   502  0.000000000E+00  0.000000000E+00 -5.512795237E+02  5.512795237E+02  0.000000000E+00  0.00000E+00  9.000E+00
      25     1     1     2     0     0  2.306464339E+02 -6.918732330E+01 -3.521278538E+02  4.445263644E+02  1.250000000E+02  0.00000E+00  9.000E+00
      25     1     1     2     0     0 -2.279483366E+02  5.880323218E+01 -3.520906717E+01  2.688548729E+02  1.250000000E+02  0.00000E+00  9.000E+00
      21     1     1     2   501   512 -2.698097369E+00  1.038409113E+01  3.034408620E+01  3.218497546E+01  6.743495762E-07  0.00000E+00  9.000E+00
#rwgt            1           1   3.5521683382926564E-002           7      282831           0
</event>
<event>
      5   9999  3.79277E-02  3.70817E+01 -1.00000E+00  1.46911E-01
      21    -1     0     0   502   501  0.000000000E+00  0.000000000E+00  1.476099373E+02  1.476099373E+02  0.000000000E+00  0.00000E+00  9.000E+00
      21    -1     0     0   511   502  0.000000000E+00  0.000000000E+00 -8.895113624E+02  8.895113624E+02  0.000000000E+00  0.00000E+00  9.000E+00
      25     1     1     2     0     0 -2.359624186E+02  2.128063973E+02 -2.721987380E+02  4.366714769E+02  1.250000000E+02  0.00000E+00  9.000E+00
      25     1     1     2     0     0  2.496526391E+02 -1.783444215E+02 -3.845878728E+02  5.076081213E+02  1.250000000E+02  0.00000E+00  9.000E+00
      21     1     1     2   511   501 -1.369022049E+01 -3.446197582E+01 -8.511481431E+01  9.284170146E+01  9.536743164E-07  0.00000E+00  9.000E+00
#rwgt            1           1   3.0345501321541835E-002           7      283102           0
</event>
<event>
      5   9999  3.79277E-02  5.68938E+01 -1.00000E+00  1.35949E-01
      21    -1     0     0   502   501  0.000000000E+00  0.000000000E+00  8.653108326E+02  8.653108326E+02  0.000000000E+00  0.00000E+00  9.000E+00
      21    -1     0     0   501   512  0.000000000E+00  0.000000000E+00 -9.500932023E+01  9.500932023E+01  0.000000000E+00  0.00000E+00  9.000E+00
      25     1     1     2     0     0  3.476679008E+01  7.041083527E+01  6.778481787E+02  6.937359504E+02  1.250000000E+02  0.00000E+00  9.000E+00
      25     1     1     2     0     0 -7.384428029E+01 -1.117612419E+02  1.007459481E+02  2.090892130E+02  1.250000000E+02  0.00000E+00  9.000E+00
      21     1     1     2   502   512  3.907749022E+01  4.135040659E+01 -8.292614463E+00  5.749498953E+01  8.429369702E-07  0.00000E+00  9.000E+00
#rwgt            1           1   5.1676338966894997E-002           7      283250           0
</event>
<event>
      5   9999  3.79277E-02  3.78880E+02 -1.00000E+00  1.02399E-01
      21    -1     0     0   502   511  0.000000000E+00  0.000000000E+00  2.878099525E+02  2.878099525E+02  0.000000000E+00  0.00000E+00  9.000E+00
      21    -1     0     0   501   502  0.000000000E+00  0.000000000E+00 -8.807640304E+02  8.807640304E+02  0.000000000E+00  0.00000E+00  9.000E+00
      25     1     1     2     0     0 -4.990791024E+01 -3.936764945E+02 -2.487046161E+02  4.847174104E+02  1.250000000E+02  0.00000E+00  9.000E+00
      25     1     1     2     0     0  3.354944281E+01  1.514998909E+01 -2.671153529E+02  2.972048099E+02  1.250000000E+02  0.00000E+00  9.000E+00
      21     1     1     2   501   511  1.635846743E+01  3.785265054E+02 -7.713410883E+01  3.866517626E+02  2.132480600E-06  0.00000E+00  9.000E+00
#rwgt            2          11   5.0931587997401411E-004           7      283316           0
</event>
<event>
      5   9999  3.79277E-02  5.66903E+01 -1.00000E+00  1.36034E-01
      -1    -1     0     0     0   501  0.000000000E+00  0.000000000E+00  5.317282797E+02  5.317282797E+02  0.000000000E+00  0.00000E+00  9.000E+00
      21    -1     0     0   501   502  0.000000000E+00  0.000000000E+00 -2.369773446E+02  2.369773446E+02  0.000000000E+00  0.00000E+00  9.000E+00
      25     1     1     2     0     0 -6.388353265E+01 -1.653678625E+02 -8.136552978E+01  2.316743083E+02  1.250000000E+02  0.00000E+00  9.000E+00
      25     1     1     2     0     0  8.398058498E+00  1.537423700E+02  4.799477285E+01  2.040483814E+02  1.250000000E+02  0.00000E+00  9.000E+00
      -1     1     1     2     0   502  5.548547415E+01  1.162549248E+01  3.281216921E+02  3.329829346E+02  3.814697266E-06  0.00000E+00  9.000E+00
#rwgt            1           1   4.3499201196305438E-002           7      283351           0
</event>
<event>
      5   9999  3.79277E-02  1.81255E+02 -1.00000E+00  1.13226E-01
      21    -1     0     0   511   501  0.000000000E+00  0.000000000E+00  6.154965177E+02  6.154965177E+02  0.000000000E+00  0.00000E+00  9.000E+00
      21    -1     0     0   501   502  0.000000000E+00  0.000000000E+00 -1.487184160E+02  1.487184160E+02  0.000000000E+00  0.00000E+00  9.000E+00
      25     1     1     2     0     0 -6.971350839E+01 -2.032968071E+02  2.380601318E+02  3.442196848E+02  1.250000000E+02  0.00000E+00  9.000E+00
      25     1     1     2     0     0  7.808908853E+01  2.223552364E+01  3.189837056E+01  1.524297553E+02  1.250000000E+02  0.00000E+00  9.000E+00
      21     1     1     2   511   502 -8.375580142E+00  1.810612834E+02  1.968195994E+02  2.675654937E+02  2.697398305E-06  0.00000E+00  9.000E+00
#rwgt            1           1   3.1076612369687538E-002           7      283513           0
</event>
<event>
      5   9999  3.79277E-02  3.61800E+01 -1.00000E+00  1.47597E-01
      21    -1     0     0   502   512  0.000000000E+00  0.000000000E+00  1.667050747E+02  1.667050747E+02  0.000000000E+00  0.00000E+00  9.000E+00
      21    -1     0     0   501   502  0.000000000E+00  0.000000000E+00 -2.069396424E+02  2.069396424E+02  0.000000000E+00  0.00000E+00  9.000E+00
      25     1     1     2     0     0 -9.169141184E+00 -8.599156802E+01 -5.153970456E+01  1.604991092E+02  1.250000000E+02  0.00000E+00  9.000E+00
      25     1     1     2     0     0  2.366366233E+00  1.215262268E+02 -2.633219430E+00  1.743736142E+02  1.250000000E+02  0.00000E+00  9.000E+00
      21     1     1     2   501   512  6.802774951E+00 -3.553465874E+01  1.393835629E+01  3.877199369E+01  3.769728732E-07  0.00000E+00  9.000E+00
#rwgt            1           1   4.1847352728934896E-002           7      283622           0
</event>
<event>
      5   9999  3.79277E-02  1.14431E+02 -1.00000E+00  1.21251E-01
      21    -1     0     0   502   501  0.000000000E+00  0.000000000E+00  3.037306761E+02  3.037306761E+02  0.000000000E+00  0.00000E+00  9.000E+00
      21    -1     0     0   501   511  0.000000000E+00  0.000000000E+00 -3.054992167E+02  3.054992167E+02  0.000000000E+00  0.00000E+00  9.000E+00
      25     1     1     2     0     0 -1.431843565E+01 -1.950812616E+02  1.741268583E+02  2.901842157E+02  1.250000000E+02  0.00000E+00  9.000E+00
      25     1     1     2     0     0 -1.493658783E+01  8.445327741E+01 -9.483708519E+01  1.788142345E+02  1.250000000E+02  0.00000E+00  9.000E+00
      21     1     1     2   502   511  2.925502348E+01  1.106279842E+02 -8.105831374E+01  1.402314427E+02  1.348699152E-06  0.00000E+00  9.000E+00
#rwgt            2          11   2.2749132464476556E-003           7      283749           0
</event>
<event>
      5   9999  3.79277E-02  2.00795E+01 -1.00000E+00  1.66227E-01
      21    -1     0     0   512   501  0.000000000E+00  0.000000000E+00  5.495846677E+02  5.495846677E+02  0.000000000E+00  0.00000E+00  9.000E+00
      21    -1     0     0   501   502  0.000000000E+00  0.000000000E+00 -1.924502188E+02  1.924502188E+02  0.000000000E+00  0.00000E+00  9.000E+00
      25     1     1     2     0     0 -6.728887276E+01  1.630244179E+00 -1.334489976E+02  1.948437452E+02  1.250000000E+02  0.00000E+00  9.000E+00
      25     1     1     2     0     0  8.446095852E+01 -1.203718267E+01  1.766362445E+02  2.326024724E+02  1.250000000E+02  0.00000E+00  9.000E+00
      21     1     1     2   512   502 -1.717208576E+01  1.040693849E+01  3.139472020E+02  3.145886688E+02  3.814697266E-06  0.00000E+00  9.000E+00
#rwgt            1           1   4.1970347920194738E-002           7      283829           0
</event>
<event>
      5   9999  3.79277E-02  2.90997E+01 -1.00000E+00  1.53965E-01
      21    -1     0     0   502   501  0.000000000E+00  0.000000000E+00  4.767240391E+02  4.767240391E+02  0.000000000E+00  0.00000E+00  9.000E+00
      21    -1     0     0   501   511  0.000000000E+00  0.000000000E+00 -1.322426384E+02  1.322426384E+02  0.000000000E+00  0.00000E+00  9.000E+00
      25     1     1     2     0     0  8.489205783E+01  2.150317958E+01 -5.447979464E+01  1.620558430E+02  1.250000000E+02  0.00000E+00  9.000E+00
      25     1     1     2     0     0 -5.597547980E+01 -2.476254751E+01  3.933862966E+02  4.172819388E+02  1.250000000E+02  0.00000E+00  9.000E+00
      21     1     1     2   502   511 -2.891657802E+01  3.259367925E+00  5.574898773E+00  2.962889570E+01  4.693274423E-07  0.00000E+00  9.000E+00
#rwgt            1           1   1.5571613650091402E-002           7      284323           0
</event>
<event>
      5   9999  3.79277E-02  7.11172E+01 -1.00000E+00  1.30873E-01
      21    -1     0     0   502   501  0.000000000E+00  0.000000000E+00  5.962283565E+02  5.962283565E+02  0.000000000E+00  0.00000E+00  9.000E+00
      -1    -1     0     0     0   502  0.000000000E+00  0.000000000E+00 -3.428487307E+02  3.428487307E+02  0.000000000E+00  0.00000E+00  9.000E+00
      25     1     1     2     0     0  7.991693304E+01 -5.197572249E+01  5.089473696E+02  5.326730863E+02  1.250000000E+02  0.00000E+00  9.000E+00
      25     1     1     2     0     0 -1.294195951E+01  2.805912261E+01  1.221300607E+01  1.293405049E+02  1.250000000E+02  0.00000E+00  9.000E+00
      -1     1     1     2     0   501 -6.697497353E+01  2.391659987E+01 -2.677807499E+02  2.770634960E+02  0.000000000E+00  0.00000E+00  9.000E+00
#rwgt            1           1   5.2726554850792265E-002           7      284494           0
</event>
<event>
      5   9999  3.79277E-02  1.36619E+02 -1.00000E+00  1.18025E-01
       2    -1     0     0   502     0  0.000000000E+00  0.000000000E+00  1.763370651E+03  1.763370651E+03  0.000000000E+00  0.00000E+00  9.000E+00
      21    -1     0     0   501   502  0.000000000E+00  0.000000000E+00 -1.710771871E+02  1.710771871E+02  0.000000000E+00  0.00000E+00  9.000E+00
      25     1     1     2     0     0 -1.408115591E+02  3.476549159E+01 -4.671769893E+01  1.970890103E+02  1.250000000E+02  0.00000E+00  9.000E+00
      25     1     1     2     0     0  6.653331987E+01  7.989669178E+01  9.703744268E+01  1.893447366E+02  1.250000000E+02  0.00000E+00  9.000E+00
       2     1     1     2   501     0  7.427823919E+01 -1.146621834E+02  1.541973721E+03  1.548014092E+03  2.157918644E-05  0.00000E+00  9.000E+00
#rwgt            1           1   3.3077078587472088E-002           7      284555           0
</event>
<event>
      5   9999 -3.79277E-02  4.87198E+01 -1.00000E+00  1.39721E-01
      21    -1     0     0   511   501  0.000000000E+00  0.000000000E+00  1.875145875E+02  1.875145875E+02  0.000000000E+00  0.00000E+00  9.000E+00
      21    -1     0     0   501   502  0.000000000E+00  0.000000000E+00 -8.605946742E+02  8.605946742E+02  0.000000000E+00  0.00000E+00  9.000E+00
      25     1     1     2     0     0 -9.490145049E+01  3.217297549E+02 -3.165832174E+02  4.778768189E+02  1.250000000E+02  0.00000E+00  9.000E+00
      25     1     1     2     0     0  5.491560418E+01 -3.495640819E+02 -3.617286347E+02  5.212325548E+02  1.250000000E+02  0.00000E+00  9.000E+00
      21     1     1     2   511   502  3.998584631E+01  2.783432701E+01  5.231765418E+00  4.899988810E+01  9.647854600E-07  0.00000E+00  9.000E+00
#rwgt            1           1  -7.3722406640469945E-002           7      284709           0
</event>
<event>
      5   9999  3.79277E-02  3.83852E+01 -1.00000E+00  1.45959E-01
      21    -1     0     0   502   501  0.000000000E+00  0.000000000E+00  6.764320440E+02  6.764320440E+02  0.000000000E+00  0.00000E+00  9.000E+00
      21    -1     0     0   512   502  0.000000000E+00  0.000000000E+00 -1.972859318E+02  1.972859318E+02  0.000000000E+00  0.00000E+00  9.000E+00
      25     1     1     2     0     0 -1.153321530E+02  1.296577814E+01  5.585558546E+02  5.840199137E+02  1.250000000E+02  0.00000E+00  9.000E+00
      25     1     1     2     0     0  1.228027824E+02  2.468546366E+01  2.475737387E+01  1.786835836E+02  1.250000000E+02  0.00000E+00  9.000E+00
      21     1     1     2   512   501 -7.470629453E+00 -3.765124180E+01 -1.041671163E+02  1.110144784E+02  1.907348633E-06  0.00000E+00  9.000E+00
#rwgt            1           1   3.6993278752207356E-002           7      285045           0
</event>
<event>
      5   9999  3.79277E-02  1.80538E+01 -1.00000E+00  1.70123E-01
      21    -1     0     0   502   501  0.000000000E+00  0.000000000E+00  1.773155015E+02  1.773155015E+02  0.000000000E+00  0.00000E+00  9.000E+00
      21    -1     0     0   511   502  0.000000000E+00  0.000000000E+00 -2.472849956E+02  2.472849956E+02  0.000000000E+00  0.00000E+00  9.000E+00
      25     1     1     2     0     0 -1.000787642E+02 -7.244342710E+01 -8.231380017E+01  1.940731070E+02  1.250000000E+02  0.00000E+00  9.000E+00
      25     1     1     2     0     0  1.134040594E+02  6.026243075E+01  5.229533665E+01  1.866864845E+02  1.250000000E+02  0.00000E+00  9.000E+00
      21     1     1     2   511   501 -1.332529526E+01  1.218099634E+01 -3.995103055E+01  4.384090565E+01  4.768371582E-07  0.00000E+00  9.000E+00
#rwgt            1           1   4.4995508460656031E-002           7      285129           0
</event>
<event>
      5   9999  3.79277E-02  1.70000E+02 -1.00000E+00  1.14279E-01
      21    -1     0     0   502   501  0.000000000E+00  0.000000000E+00  1.591562777E+02  1.591562777E+02  0.000000000E+00  0.00000E+00  9.000E+00
      21    -1     0     0   512   502  0.000000000E+00  0.000000000E+00 -1.113593791E+03  1.113593791E+03  0.000000000E+00  0.00000E+00  9.000E+00
      25     1     1     2     0     0  1.357146648E+02  6.503940239E+01 -1.763361592E+00  1.956443292E+02  1.250000000E+02  0.00000E+00  9.000E+00
      25     1     1     2     0     0 -1.311973525E+02  1.049009640E+02 -1.523998320E+02  2.589742580E+02  1.250000000E+02  0.00000E+00  9.000E+00
      21     1     1     2   512   501 -4.517312307E+00 -1.699403664E+02 -8.002743197E+02  8.181314815E+02  0.000000000E+00  0.00000E+00  9.000E+00
#rwgt            1           1   3.6431017601589108E-002           7      285290           0
</event>
<event>
      5   9999  3.79277E-02  2.39447E+01 -1.00000E+00  1.60167E-01
      21    -1     0     0   511   501  0.000000000E+00  0.000000000E+00  2.144398120E+02  2.144398120E+02  0.000000000E+00  0.00000E+00  9.000E+00
      21    -1     0     0   501   502  0.000000000E+00  0.000000000E+00 -2.300606824E+02  2.300606824E+02  0.000000000E+00  0.00000E+00  9.000E+00
      25     1     1     2     0     0  2.106038673E+01 -8.089176114E+00  4.801952311E+01  1.357934065E+02  1.250000000E+02  0.00000E+00  9.000E+00
      25     1     1     2     0     0 -1.019977435E+01 -1.325078979E+01 -1.632334745E+02  2.062759948E+02  1.250000000E+02  0.00000E+00  9.000E+00
      21     1     1     2   511   502 -1.086061238E+01  2.133996590E+01  9.959308095E+01  1.024310930E+02  1.348699152E-06  0.00000E+00  9.000E+00
#rwgt            1           1   3.6737272586374721E-002           7      285320           0
</event>
<event>
      5   9999  3.79277E-02  2.48253E+01 -1.00000E+00  1.58979E-01
      21    -1     0     0   502   501  0.000000000E+00  0.000000000E+00  5.888578021E+02  5.888578021E+02  0.000000000E+00  0.00000E+00  9.000E+00
      21    -1     0     0   501   512  0.000000000E+00  0.000000000E+00 -2.816734636E+02  2.816734636E+02  0.000000000E+00  0.00000E+00  9.000E+00
      25     1     1     2     0     0  1.809868538E+02 -3.174843623E+02  1.871802155E+02  4.292015781E+02  1.250000000E+02  0.00000E+00  9.000E+00
      25     1     1     2     0     0 -1.659556917E+02  2.977268408E+02  1.579990068E+02  3.959434928E+02  1.250000000E+02  0.00000E+00  9.000E+00
      21     1     1     2   502   512 -1.503116209E+01  1.975752154E+01 -3.799488376E+01  4.538619485E+01  4.768371582E-07  0.00000E+00  9.000E+00
#rwgt            1           1   4.0315268202406544E-002           7      285560           0
</event>
<event>
      5   9999  3.79277E-02  1.19171E+02 -1.00000E+00  1.20496E-01
      21    -1     0     0   502   511  0.000000000E+00  0.000000000E+00  5.595982943E+02  5.595982943E+02  0.000000000E+00  0.00000E+00  9.000E+00
      21    -1     0     0   501   502  0.000000000E+00  0.000000000E+00 -4.059964119E+02  4.059964119E+02  0.000000000E+00  0.00000E+00  9.000E+00
      25     1     1     2     0     0  1.739591820E+02 -3.210008331E+02  5.914476818E+01  3.904182827E+02  1.250000000E+02  0.00000E+00  9.000E+00
      25     1     1     2     0     0 -2.912792637E+02  3.000775723E+02  2.489794535E+01  4.371899662E+02  1.250000000E+02  0.00000E+00  9.000E+00
      21     1     1     2   501   511  1.173200817E+02  2.092326082E+01  6.955916887E+01  1.379864573E+02  1.348699152E-06  0.00000E+00  9.000E+00
#rwgt            1           1   3.6007296031997760E-002           7      285742           0
</event>
<event>
      5   9999  3.79277E-02  1.31054E+02 -1.00000E+00  1.18766E-01
      21    -1     0     0   502   512  0.000000000E+00  0.000000000E+00  1.210016965E+03  1.210016965E+03  0.000000000E+00  0.00000E+00  9.000E+00
      21    -1     0     0   501   502  0.000000000E+00  0.000000000E+00 -1.386165924E+02  1.386165924E+02  0.000000000E+00  0.00000E+00  9.000E+00
      25     1     1     2     0     0  2.073282149E+02 -1.353079632E+02  3.238134454E+02  4.263488959E+02  1.250000000E+02  0.00000E+00  9.000E+00
      25     1     1     2     0     0 -8.174479346E+01  1.727788238E+02  8.005462232E+01  2.420092472E+02  1.250000000E+02  0.00000E+00  9.000E+00
      21     1     1     2   501   512 -1.255834215E+02 -3.747086058E+01  6.675323053E+02  6.802754147E+02  7.629394531E-06  0.00000E+00  9.000E+00
#rwgt            1           1   3.5854343854927945E-002           7      285937           0
</event>
<event>
      5   9999  3.79277E-02  1.29937E+01 -1.00000E+00  1.83467E-01
      21    -1     0     0   502   501  0.000000000E+00  0.000000000E+00  5.322152880E+02  5.322152880E+02  0.000000000E+00  0.00000E+00  9.000E+00
      21    -1     0     0   501   511  0.000000000E+00  0.000000000E+00 -2.213312698E+02  2.213312698E+02  0.000000000E+00  0.00000E+00  9.000E+00
      25     1     1     2     0     0  1.312136157E+02 -1.238637042E+02 -4.092250694E+01  2.232910248E+02  1.250000000E+02  0.00000E+00  9.000E+00
      25     1     1     2     0     0 -1.411965130E+02  1.155463918E+02  4.125747760E+02  4.681136290E+02  1.250000000E+02  0.00000E+00  9.000E+00
      21     1     1     2   502   511  9.982897240E+00  8.317312440E+00 -6.076825081E+01  6.214190397E+01  1.348699152E-06  0.00000E+00  9.000E+00
#rwgt            1           1   3.8535444536787596E-002           7      286048           0
</event>
<event>
      5   9999  3.79277E-02  3.85945E+01 -1.00000E+00  1.45810E-01
      21    -1     0     0   502   501  0.000000000E+00  0.000000000E+00  1.002393065E+02  1.002393065E+02  0.000000000E+00  0.00000E+00  9.000E+00
      21    -1     0     0   501   512  0.000000000E+00  0.000000000E+00 -5.302555053E+02  5.302555053E+02  0.000000000E+00  0.00000E+00  9.000E+00
      25     1     1     2     0     0 -8.460225819E+01  4.333579485E+01 -2.423894886E+02  2.888134301E+02  1.250000000E+02  0.00000E+00  9.000E+00
      25     1     1     2     0     0  5.370496086E+01 -6.646356760E+01 -1.322110402E+00  1.514211895E+02  1.250000000E+02  0.00000E+00  9.000E+00
      21     1     1     2   502   512  3.089729733E+01  2.312777275E+01 -1.863045998E+02  1.902601922E+02  0.000000000E+00  0.00000E+00  9.000E+00
#rwgt            1           1   4.1608886115676820E-002           7      286274           0
</event>
<event>
      5   9999  3.79277E-02  8.32362E+01 -1.00000E+00  1.27521E-01
      21    -1     0     0   502   511  0.000000000E+00  0.000000000E+00  2.400716955E+02  2.400716955E+02  0.000000000E+00  0.00000E+00  9.000E+00
      21    -1     0     0   501   502  0.000000000E+00  0.000000000E+00 -2.552083523E+02  2.552083523E+02  0.000000000E+00  0.00000E+00  9.000E+00
      25     1     1     2     0     0  8.026503661E+01 -4.145032518E+01  9.098783413E+01  1.790653275E+02  1.250000000E+02  0.00000E+00  9.000E+00
      25     1     1     2     0     0 -1.135279231E+02 -3.485064391E+01 -1.441174607E+02  2.247175987E+02  1.250000000E+02  0.00000E+00  9.000E+00
      21     1     1     2   501   511  3.326288645E+01  7.630096909E+01  3.799296971E+01  9.149712152E+01  2.286830675E-06  0.00000E+00  9.000E+00
#rwgt            1           1   3.0865850837012727E-002           7      286381           0
</event>
<event>
      5   9999  3.79277E-02  1.25216E+02 -1.00000E+00  1.19589E-01
      21    -1     0     0   502   501  0.000000000E+00  0.000000000E+00  2.851492927E+02  2.851492927E+02  0.000000000E+00  0.00000E+00  9.000E+00
       1    -1     0     0   501     0  0.000000000E+00  0.000000000E+00 -1.466787165E+03  1.466787165E+03  0.000000000E+00  0.00000E+00  9.000E+00
      25     1     1     2     0     0 -1.529060008E+02  1.485316905E+02  2.274409056E+01  2.481616445E+02  1.250000000E+02  0.00000E+00  9.000E+00
      25     1     1     2     0     0  7.306270810E+01 -2.449897799E+02  8.250129561E+00  2.846949529E+02  1.250000000E+02  0.00000E+00  9.000E+00
       1     1     1     2   502     0  7.984329267E+01  9.645808944E+01 -1.212632093E+03  1.219079861E+03  2.157918644E-05  0.00000E+00  9.000E+00
#rwgt            1           1   4.2843047106700678E-002           7      286520           0
</event>
<event>
      5   9999  3.79277E-02  1.21547E+01 -1.00000E+00  1.86445E-01
      21    -1     0     0   502   501  0.000000000E+00  0.000000000E+00  2.817093811E+02  2.817093811E+02  0.000000000E+00  0.00000E+00  9.000E+00
      21    -1     0     0   501   511  0.000000000E+00  0.000000000E+00 -1.811379817E+02  1.811379817E+02  0.000000000E+00  0.00000E+00  9.000E+00
      25     1     1     2     0     0  4.066570153E+01  9.037202998E+01 -9.242716970E+01  1.843599327E+02  1.250000000E+02  0.00000E+00  9.000E+00
      25     1     1     2     0     0 -4.417359585E+01 -7.873451539E+01  2.081644530E+02  2.590518673E+02  1.250000000E+02  0.00000E+00  9.000E+00
      21     1     1     2   502   511  3.507894327E+00 -1.163751459E+01 -1.516588385E+01  1.943556280E+01  1.685873940E-07  0.00000E+00  9.000E+00
#rwgt            1           1   3.7692065000440172E-002           7      286610           0
</event>
<event>
      5   9999  3.79277E-02  1.18685E+01 -1.00000E+00  1.87533E-01
      21    -1     0     0   502   512  0.000000000E+00  0.000000000E+00  1.756616213E+02  1.756616213E+02  0.000000000E+00  0.00000E+00  9.000E+00
      21    -1     0     0   501   502  0.000000000E+00  0.000000000E+00 -3.332260527E+02  3.332260527E+02  0.000000000E+00  0.00000E+00  9.000E+00
      25     1     1     2     0     0  3.846521770E+00 -1.079373953E+02 -2.924026026E+01  1.677655205E+02  1.250000000E+02  0.00000E+00  9.000E+00
      25     1     1     2     0     0 -1.428764447E+01  1.135804724E+02 -2.035979542E+02  2.649184543E+02  1.250000000E+02  0.00000E+00  9.000E+00
      21     1     1     2   501   512  1.044112270E+01 -5.643077103E+00  7.527378303E+01  7.620369922E+01  9.536743164E-07  0.00000E+00  9.000E+00
#rwgt            1           1   5.6527639315173718E-002           7      286864           0
</event>
<event>
      5   9999  3.79277E-02  7.03432E+01 -1.00000E+00  1.31113E-01
      21    -1     0     0   511   501  0.000000000E+00  0.000000000E+00  1.226160077E+03  1.226160077E+03  0.000000000E+00  0.00000E+00  9.000E+00
      21    -1     0     0   501   502  0.000000000E+00  0.000000000E+00 -9.369251654E+01  9.369251654E+01  0.000000000E+00  0.00000E+00  9.000E+00
      25     1     1     2     0     0 -1.560514988E+02  2.177604350E+02  4.632748602E+02  5.495637119E+02  1.250000000E+02  0.00000E+00  9.000E+00
      25     1     1     2     0     0  2.001484268E+02 -1.629550409E+02  4.007793852E+02  4.928111745E+02  1.250000000E+02  0.00000E+00  9.000E+00
      21     1     1     2   511   502 -4.409692804E+01 -5.480539415E+01  2.684133154E+02  2.774777076E+02  6.607249480E-06  0.00000E+00  9.000E+00
#rwgt            1           1   3.9716561545031732E-002           7      287069           0
</event>
<event>
      5   9999  3.79277E-02  2.13817E+01 -1.00000E+00  1.64010E-01
      21    -1     0     0   502   501  0.000000000E+00  0.000000000E+00  2.113869233E+02  2.113869233E+02  0.000000000E+00  0.00000E+00  9.000E+00
      21    -1     0     0   501   512  0.000000000E+00  0.000000000E+00 -6.380412061E+02  6.380412061E+02  0.000000000E+00  0.00000E+00  9.000E+00
      25     1     1     2     0     0 -4.024433178E+01  3.176700604E+02 -3.111719728E+02  4.636667663E+02  1.250000000E+02  0.00000E+00  9.000E+00
      25     1     1     2     0     0  1.888326568E+01 -3.167314931E+02 -9.040869716E+01  3.528089412E+02  1.250000000E+02  0.00000E+00  9.000E+00
      21     1     1     2   502   512  2.136106610E+01 -9.385673102E-01 -2.507361286E+01  3.295242200E+01  3.371747881E-07  0.00000E+00  9.000E+00
#rwgt            1           1   4.3001737915789040E-002           7      287143           0
</event>
<event>
      5   9999  3.79277E-02  3.84617E+01 -1.00000E+00  1.45904E-01
      21    -1     0     0   511   501  0.000000000E+00  0.000000000E+00  8.179661353E+02  8.179661353E+02  0.000000000E+00  0.00000E+00  9.000E+00
      21    -1     0     0   501   502  0.000000000E+00  0.000000000E+00 -1.765450557E+02  1.765450557E+02  0.000000000E+00  0.00000E+00  9.000E+00
      25     1     1     2     0     0  2.557338097E+02  1.146806730E+02  5.020886103E+02  5.884466082E+02  1.250000000E+02  0.00000E+00  9.000E+00
      25     1     1     2     0     0 -2.801679874E+02 -1.443837765E+02  1.062249670E+02  3.553160842E+02  1.250000000E+02  0.00000E+00  9.000E+00
      21     1     1     2   511   502  2.443417765E+01  2.970310354E+01  3.310750230E+01  5.074849856E+01  0.000000000E+00  0.00000E+00  9.000E+00
#rwgt            1           1  0.31544202804813293                7      287315           0
</event>
<event>
      5   9999  3.79277E-02  1.42393E+01 -1.00000E+00  1.79540E-01
      21    -1     0     0   502   501  0.000000000E+00  0.000000000E+00  1.122501125E+03  1.122501125E+03  0.000000000E+00  0.00000E+00  9.000E+00
      21    -1     0     0   501   512  0.000000000E+00  0.000000000E+00 -4.464708081E+01  4.464708081E+01  0.000000000E+00  0.00000E+00  9.000E+00
      25     1     1     2     0     0 -8.433578152E+01 -1.490221162E+02  3.926016824E+02  4.461851591E+02  1.250000000E+02  0.00000E+00  9.000E+00
      25     1     1     2     0     0  9.416753770E+01  1.387219610E+02  6.539013682E+02  6.865299025E+02  1.250000000E+02  0.00000E+00  9.000E+00
      21     1     1     2   502   512 -9.831756186E+00  1.030015519E+01  3.135099388E+01  3.443314455E+01  6.743495762E-07  0.00000E+00  9.000E+00
#rwgt            1           1   2.1007483446286099E-002           7      287483           0
</event>
<event>
      5   9999  3.79277E-02  1.25378E+01 -1.00000E+00  1.85048E-01
      21    -1     0     0   502   501  0.000000000E+00  0.000000000E+00  7.613958359E+02  7.613958359E+02  0.000000000E+00  0.00000E+00  9.000E+00
      21    -1     0     0   511   502  0.000000000E+00  0.000000000E+00 -5.297466362E+02  5.297466362E+02  0.000000000E+00  0.00000E+00  9.000E+00
      25     1     1     2     0     0 -2.989491540E+02  5.799311422E+01  3.902313590E+02  5.105284630E+02  1.250000000E+02  0.00000E+00  9.000E+00
      25     1     1     2     0     0  2.924952261E+02 -6.874224181E+01  2.257582763E+02  3.960691258E+02  1.250000000E+02  0.00000E+00  9.000E+00
      21     1     1     2   511   501  6.453927927E+00  1.074912760E+01 -3.843404356E+02  3.845448834E+02  5.394796609E-06  0.00000E+00  9.000E+00
#rwgt            1           1   5.9632057849717847E-002           7      287651           0
</event>
<event>
      5   9999  3.79277E-02  1.20641E+02 -1.00000E+00  1.20270E-01
      21    -1     0     0   502   501  0.000000000E+00  0.000000000E+00  2.475946078E+02  2.475946078E+02  0.000000000E+00  0.00000E+00  9.000E+00
       2    -1     0     0   501     0  0.000000000E+00  0.000000000E+00 -2.520500197E+02  2.520500197E+02  0.000000000E+00  0.00000E+00  9.000E+00
      25     1     1     2     0     0  9.636380595E+01  8.756120492E+01  1.003257516E+02  2.065023102E+02  1.250000000E+02  0.00000E+00  9.000E+00
      25     1     1     2     0     0 -8.002424861E+01  3.196817306E+01 -4.410146530E+01  1.581005493E+02  1.250000000E+02  0.00000E+00  9.000E+00
       2     1     1     2   502     0 -1.633955735E+01 -1.195293780E+02 -6.067969817E+01  1.350417680E+02  2.780414531E-06  0.00000E+00  9.000E+00
#rwgt            1           1   4.8546730665856561E-002           7      288032           0
</event>
<event>
      5   9999  3.79277E-02  4.98323E+01 -1.00000E+00  1.39159E-01
      21    -1     0     0   511   501  0.000000000E+00  0.000000000E+00  5.375752171E+01  5.375752171E+01  0.000000000E+00  0.00000E+00  9.000E+00
      21    -1     0     0   501   502  0.000000000E+00  0.000000000E+00 -1.414892918E+03  1.414892918E+03  0.000000000E+00  0.00000E+00  9.000E+00
      25     1     1     2     0     0  1.885820334E+02 -2.165760643E+01 -5.331085151E+02  5.795359558E+02  1.250000000E+02  0.00000E+00  9.000E+00
      25     1     1     2     0     0 -2.295412336E+02 -6.725596694E+00 -7.669305431E+02  8.102727131E+02  1.250000000E+02  0.00000E+00  9.000E+00
      21     1     1     2   511   502  4.095920018E+01  2.838320312E+01 -6.109633795E+01  7.884177071E+01  1.651812370E-06  0.00000E+00  9.000E+00
#rwgt            1           1   3.0894035700500949E-002           7      288093           0
</event>
<event>
      5   9999  3.79277E-02  4.29667E+01 -1.00000E+00  1.42939E-01
      21    -1     0     0   502   501  0.000000000E+00  0.000000000E+00  2.595825152E+02  2.595825152E+02  0.000000000E+00  0.00000E+00  9.000E+00
      -1    -1     0     0     0   502  0.000000000E+00  0.000000000E+00 -2.992258379E+02  2.992258379E+02  0.000000000E+00  0.00000E+00  9.000E+00
      25     1     1     2     0     0 -1.315015532E+01  3.442149020E+01  2.063625739E+02  2.440661334E+02  1.250000000E+02  0.00000E+00  9.000E+00
      25     1     1     2     0     0 -2.842473572E+01 -2.357413765E+01 -1.051144455E+02  1.674447736E+02  1.250000000E+02  0.00000E+00  9.000E+00
      -1     1     1     2     0   501  4.157489103E+01 -1.084735255E+01 -1.408914511E+02  1.472974460E+02  4.264961200E-06  0.00000E+00  9.000E+00
#rwgt            1           1   4.8192453052973150E-002           7      288298           0
</event>
<event>
      5   9999  4.94478E-02  6.14626E+01 -1.00000E+00  1.34147E-01
      21    -1     0     0   502   511  0.000000000E+00  0.000000000E+00  7.740330189E+02  7.740330189E+02  0.000000000E+00  0.00000E+00  9.000E+00
      21    -1     0     0   501   502  0.000000000E+00  0.000000000E+00 -1.195882825E+03  1.195882825E+03  0.000000000E+00  0.00000E+00  9.000E+00
      25     1     1     2     0     0  2.455499644E+01  8.732319454E+01 -1.550351000E+02  2.188359440E+02  1.250000000E+02  0.00000E+00  9.000E+00
      25     1     1     2     0     0 -4.727960571E+01 -3.021591798E+01 -1.003009068E+03  1.012324333E+03  1.250000000E+02  0.00000E+00  9.000E+00
      21     1     1     2   501   511  2.272460927E+01 -5.710727656E+01  7.361943625E+02  7.387555673E+02  1.078959322E-05  0.00000E+00  9.000E+00
#rwgt            2          11  0.11144026847981385                7      288603           0
</event>
<event>
      5   9999  3.79277E-02  2.88427E+01 -1.00000E+00  1.54236E-01
      21    -1     0     0   502   512  0.000000000E+00  0.000000000E+00  3.190678743E+02  3.190678743E+02  0.000000000E+00  0.00000E+00  9.000E+00
      21    -1     0     0   501   502  0.000000000E+00  0.000000000E+00 -2.828218200E+02  2.828218200E+02  0.000000000E+00  0.00000E+00  9.000E+00
      25     1     1     2     0     0 -2.186036653E+02  1.376476456E+02  3.957213683E+01  2.896987933E+02  1.250000000E+02  0.00000E+00  9.000E+00
      25     1     1     2     0     0  1.986421972E+02 -1.584669638E+02 -5.750066968E+00  2.832464729E+02  1.250000000E+02  0.00000E+00  9.000E+00
      21     1     1     2   501   512  1.996146809E+01  2.081931825E+01  2.423984518E+00  2.894442816E+01  8.429369702E-08  0.00000E+00  9.000E+00
#rwgt            1           1   2.1004973029077931E-002           7      288623           0
</event>
<event>
      5   9999  3.79277E-02  1.29753E+01 -1.00000E+00  1.83529E-01
      21    -1     0     0   502   501  0.000000000E+00  0.000000000E+00  4.540390674E+01  4.540390674E+01  0.000000000E+00  0.00000E+00  9.000E+00
      21    -1     0     0   511   502  0.000000000E+00  0.000000000E+00 -1.502845169E+03  1.502845169E+03  0.000000000E+00  0.00000E+00  9.000E+00
      25     1     1     2     0     0  1.486314589E+02  7.794763047E+01 -2.843874820E+02  3.530841027E+02  1.250000000E+02  0.00000E+00  9.000E+00
      25     1     1     2     0     0 -1.493891685E+02 -9.090079953E+01 -1.077250176E+03  1.098486695E+03  1.250000000E+02  0.00000E+00  9.000E+00
      21     1     1     2   511   501  7.577096346E-01  1.295316906E+01 -9.580360471E+01  9.667827775E+01  1.348699152E-06  0.00000E+00  9.000E+00
#rwgt            1           1   4.8563009165676824E-002           7      288884           0
</event>
<event>
      5   9999  3.79277E-02  1.96040E+01 -1.00000E+00  1.67089E-01
      21    -1     0     0   502   512  0.000000000E+00  0.000000000E+00  6.214331192E+02  6.214331192E+02  0.000000000E+00  0.00000E+00  9.000E+00
      21    -1     0     0   501   502  0.000000000E+00  0.000000000E+00 -5.203771235E+01  5.203771235E+01  0.000000000E+00  0.00000E+00  9.000E+00
      25     1     1     2     0     0  3.059462310E+00 -7.667346938E+01  9.960934490E+01  1.772997541E+02  1.250000000E+02  0.00000E+00  9.000E+00
      25     1     1     2     0     0 -1.498259624E+01  6.111213075E+01  4.061212869E+02  4.295563646E+02  1.250000000E+02  0.00000E+00  9.000E+00
      21     1     1     2   501   512  1.192313393E+01  1.556133863E+01  6.366477508E+01  6.661471285E+01  6.743495762E-07  0.00000E+00  9.000E+00
#rwgt            1           1   3.3673001334560068E-002           7      289094           0
</event>
<event>
      5   9999  3.79277E-02  8.83700E+01 -1.00000E+00  1.26292E-01
      21    -1     0     0   511   501  0.000000000E+00  0.000000000E+00  8.526411408E+01  8.526411408E+01  0.000000000E+00  0.00000E+00  9.000E+00
      21    -1     0     0   501   502  0.000000000E+00  0.000000000E+00 -9.566394295E+02  9.566394295E+02  0.000000000E+00  0.00000E+00  9.000E+00
      25     1     1     2     0     0  5.295339844E+01  1.240747806E+02 -6.381530264E+02  6.641256648E+02  1.250000000E+02  0.00000E+00  9.000E+00
      25     1     1     2     0     0  3.034744032E+01 -1.535745411E+02 -2.008209990E+02  2.836550378E+02  1.250000000E+02  0.00000E+00  9.000E+00
      21     1     1     2   511   502 -8.330083876E+01  2.949976048E+01 -3.240129008E+01  9.412284104E+01  1.784161275E-06  0.00000E+00  9.000E+00
#rwgt            1           1   3.5832189678812139E-002           7      289342           0
</event>
<event>
      5   9999  3.79277E-02  1.20444E+01 -1.00000E+00  1.86860E-01
      21    -1     0     0   502   501  0.000000000E+00  0.000000000E+00  4.555818444E+02  4.555818444E+02  0.000000000E+00  0.00000E+00  9.000E+00
      21    -1     0     0   512   502  0.000000000E+00  0.000000000E+00 -8.283215196E+01  8.283215196E+01  0.000000000E+00  0.00000E+00  9.000E+00
      25     1     1     2     0     0  1.569507718E+01 -2.451329632E+01  1.806290503E+00  1.283569236E+02  1.250000000E+02  0.00000E+00  9.000E+00
      25     1     1     2     0     0 -2.757454818E+01  2.649966940E+01  3.751712796E+02  3.972921812E+02  1.250000000E+02  0.00000E+00  9.000E+00
      21     1     1     2   512   501  1.187947100E+01 -1.986373082E+00 -4.227877627E+00  1.276489164E+01  2.149076030E-07  0.00000E+00  9.000E+00
#rwgt            1           1   4.4561990291300396E-002           7      289487           0
</event>
<event>
      5   9999  3.79277E-02  2.97593E+01 -1.00000E+00  1.53283E-01
      21    -1     0     0   502   511  0.000000000E+00  0.000000000E+00  7.316021209E+02  7.316021209E+02  0.000000000E+00  0.00000E+00  9.000E+00
      21    -1     0     0   501   502  0.000000000E+00  0.000000000E+00 -2.747801480E+02  2.747801480E+02  0.000000000E+00  0.00000E+00  9.000E+00
      25     1     1     2     0     0  1.961956478E+02  1.498517826E+02 -1.167481040E+01  2.769649620E+02  1.250000000E+02  0.00000E+00  9.000E+00
      25     1     1     2     0     0 -1.858723605E+02 -1.219403497E+02 -4.903669231E+00  2.550823970E+02  1.250000000E+02  0.00000E+00  9.000E+00
      21     1     1     2   501   511 -1.032328722E+01 -2.791143288E+01  4.734004525E+02  4.743349099E+02  5.394796609E-06  0.00000E+00  9.000E+00
#rwgt            1           1   3.3549306058754808E-002           7      289814           0
</event>
<event>
      5   9999  3.79277E-02  1.75033E+02 -1.00000E+00  1.13798E-01
      21    -1     0     0   502   501  0.000000000E+00  0.000000000E+00  2.639878148E+02  2.639878148E+02  0.000000000E+00  0.00000E+00  9.000E+00
      21    -1     0     0   512   502  0.000000000E+00  0.000000000E+00 -2.901111200E+02  2.901111200E+02  0.000000000E+00  0.00000E+00  9.000E+00
      25     1     1     2     0     0  1.314970625E+02 -7.662331817E+01 -7.185854435E+01  2.096455598E+02  1.250000000E+02  0.00000E+00  9.000E+00
      25     1     1     2     0     0  2.584317175E+01 -6.078924684E-02  9.895535407E+01  1.615086231E+02  1.250000000E+02  0.00000E+00  9.000E+00
      21     1     1     2   512   501 -1.573402343E+02  7.668410742E+01 -5.322011485E+01  1.829447520E+02  2.523185073E-06  0.00000E+00  9.000E+00
#rwgt            1           1   3.5925805022085741E-002           7      290014           0
</event>
<event>
      5   9999  3.79277E-02  2.42792E+01 -1.00000E+00  1.59708E-01
       2    -1     0     0   502     0  0.000000000E+00  0.000000000E+00  6.030252150E+02  6.030252150E+02  0.000000000E+00  0.00000E+00  9.000E+00
      21    -1     0     0   501   502  0.000000000E+00  0.000000000E+00 -7.828084161E+01  7.828084161E+01  0.000000000E+00  0.00000E+00  9.000E+00
      25     1     1     2     0     0 -6.176881976E+01  8.212592433E+01  1.414666914E+02  2.149369194E+02  1.250000000E+02  0.00000E+00  9.000E+00
      25     1     1     2     0     0  7.827647061E+01 -6.432206400E+01  1.168938257E+02  1.988811209E+02  1.250000000E+02  0.00000E+00  9.000E+00
       2     1     1     2   501     0 -1.650765085E+01 -1.780386033E+01  2.663838563E+02  2.674880163E+02  3.814697266E-06  0.00000E+00  9.000E+00
#rwgt            1           1   3.4702886558505973E-002           7      290195           0
</event>
<event>
      5   9999  3.79277E-02  3.68434E+01 -1.00000E+00  1.47090E-01
      21    -1     0     0   502   501  0.000000000E+00  0.000000000E+00  1.009005690E+03  1.009005690E+03  0.000000000E+00  0.00000E+00  9.000E+00
      21    -1     0     0   511   502  0.000000000E+00  0.000000000E+00 -1.731870241E+02  1.731870241E+02  0.000000000E+00  0.00000E+00  9.000E+00
      25     1     1     2     0     0  1.337282678E+01  1.886375460E+02 -3.861391894E+01  2.299543237E+02  1.250000000E+02  0.00000E+00  9.000E+00
      25     1     1     2     0     0 -5.841099591E+00 -1.525722397E+02  8.904587402E+02  9.120604008E+02  1.250000000E+02  0.00000E+00  9.000E+00
      21     1     1     2   511   501 -7.531727188E+00 -3.606530633E+01 -1.602615489E+01  4.017798994E+01  6.743495762E-07  0.00000E+00  9.000E+00
#rwgt            1           1   4.2767500407673562E-002           7      290327           0
</event>
<event>
      5   9999  3.79277E-02  3.36677E+01 -1.00000E+00  1.49640E-01
      21    -1     0     0   512   501  0.000000000E+00  0.000000000E+00  5.379916115E+02  5.379916115E+02  0.000000000E+00  0.00000E+00  9.000E+00
      21    -1     0     0   501   502  0.000000000E+00  0.000000000E+00 -2.807975109E+02  2.807975109E+02  0.000000000E+00  0.00000E+00  9.000E+00
      25     1     1     2     0     0  1.512743248E+01 -1.808383781E+02 -1.928189515E+02  2.928062607E+02  1.250000000E+02  0.00000E+00  9.000E+00
      25     1     1     2     0     0  1.780043005E+01  1.878578538E+02  4.322257393E+02  4.879052349E+02  1.250000000E+02  0.00000E+00  9.000E+00
      21     1     1     2   512   502 -3.292786253E+01 -7.019475696E+00  1.778731282E+01  3.807762686E+01  4.768371582E-07  0.00000E+00  9.000E+00
#rwgt            1           1   4.5787756026889885E-002           7      290470           0
</event>
<event>
      5   9999  3.79277E-02  5.35143E+01 -1.00000E+00  1.37413E-01
      21    -1     0     0   502   501  0.000000000E+00  0.000000000E+00  3.496927169E+01  3.496927169E+01  0.000000000E+00  0.00000E+00  9.000E+00
      21    -1     0     0   501   511  0.000000000E+00  0.000000000E+00 -1.273120642E+03  1.273120642E+03  0.000000000E+00  0.00000E+00  9.000E+00
      25     1     1     2     0     0  5.835519642E+01 -1.229192157E+02 -3.402461027E+02  3.871780894E+02  1.250000000E+02  0.00000E+00  9.000E+00
      25     1     1     2     0     0 -4.686320773E+01  7.065339839E+01 -6.659749929E+02  6.828878049E+02  1.250000000E+02  0.00000E+00  9.000E+00
      21     1     1     2   502   511 -1.149198869E+01  5.226581728E+01 -2.319302747E+02  2.380240193E+02  2.697398305E-06  0.00000E+00  9.000E+00
#rwgt            1           1   4.4345539464901974E-002           7      290671           0
</event>
<event>
      5   9999  3.79277E-02  2.47847E+01 -1.00000E+00  1.59033E-01
      21    -1     0     0   512   501  0.000000000E+00  0.000000000E+00  1.797093338E+02  1.797093338E+02  0.000000000E+00  0.00000E+00  9.000E+00
      21    -1     0     0   501   502  0.000000000E+00  0.000000000E+00 -2.274171099E+02  2.274171099E+02  0.000000000E+00  0.00000E+00  9.000E+00
      25     1     1     2     0     0  1.060355594E+02 -3.229577062E+01  8.136720031E-01  1.670695027E+02  1.250000000E+02  0.00000E+00  9.000E+00
      25     1     1     2     0     0 -1.278991632E+02  4.396905879E+01 -7.932390277E+01  2.005212099E+02  1.250000000E+02  0.00000E+00  9.000E+00
      21     1     1     2   512   502  2.186360378E+01 -1.167328817E+01  3.080245466E+01  3.953573118E+01  6.743495762E-07  0.00000E+00  9.000E+00
#rwgt            1           1   3.2088649804052106E-002           7      290776           0
</event>
<event>
      5   9999  3.79277E-02  5.19976E+01 -1.00000E+00  1.38112E-01
      21    -1     0     0   502   511  0.000000000E+00  0.000000000E+00  4.339659102E+02  4.339659102E+02  0.000000000E+00  0.00000E+00  9.000E+00
      21    -1     0     0   501   502  0.000000000E+00  0.000000000E+00 -1.295337245E+02  1.295337245E+02  0.000000000E+00  0.00000E+00  9.000E+00
      25     1     1     2     0     0  6.929734888E+01  5.760067269E+01 -4.765929280E+01  1.612959028E+02  1.250000000E+02  0.00000E+00  9.000E+00
      25     1     1     2     0     0 -2.624176083E+01 -2.844652692E+01  1.807383102E+02  2.231348733E+02  1.250000000E+02  0.00000E+00  9.000E+00
      21     1     1     2   501   511 -4.305558805E+01 -2.915414577E+01  1.713531682E+02  1.790688587E+02  2.697398305E-06  0.00000E+00  9.000E+00
#rwgt            1           1   3.5662943308194778E-002           7      291016           0
</event>
<event>
      5   9999  3.79277E-02  1.18418E+02 -1.00000E+00  1.20613E-01
      21    -1     0     0   502   512  0.000000000E+00  0.000000000E+00  2.172335390E+02  2.172335390E+02  0.000000000E+00  0.00000E+00  9.000E+00
      21    -1     0     0   501   502  0.000000000E+00  0.000000000E+00 -5.789305228E+02  5.789305228E+02  0.000000000E+00  0.00000E+00  9.000E+00
      25     1     1     2     0     0  9.274515803E+00  7.613682205E+01 -3.658809149E+02  3.941784826E+02  1.250000000E+02  0.00000E+00  9.000E+00
      25     1     1     2     0     0  1.087624675E+02 -6.664895990E+01 -1.315811145E+02  2.218331532E+02  1.250000000E+02  0.00000E+00  9.000E+00
      21     1     1     2   501   512 -1.180369833E+02 -9.487862151E+00  1.357650455E+02  1.801524258E+02  2.697398305E-06  0.00000E+00  9.000E+00
#rwgt            1           1   3.4653998609197351E-002           7      291162           0
</event>
<event>
      5   9999  3.79277E-02  1.88387E+01 -1.00000E+00  1.68542E-01
      21    -1     0     0   502   511  0.000000000E+00  0.000000000E+00  8.459950958E+02  8.459950958E+02  0.000000000E+00  0.00000E+00  9.000E+00
      21    -1     0     0   501   502  0.000000000E+00  0.000000000E+00 -7.999158288E+01  7.999158288E+01  0.000000000E+00  0.00000E+00  9.000E+00
      25     1     1     2     0     0  1.546644175E+02  4.752100612E+01  1.038113340E+02  2.293057373E+02  1.250000000E+02  0.00000E+00  9.000E+00
      25     1     1     2     0     0 -1.366530349E+02 -4.199955663E+01  5.267766868E+02  5.599613312E+02  1.250000000E+02  0.00000E+00  9.000E+00
      21     1     1     2   501   511 -1.801138268E+01 -5.521449494E+00  1.354154920E+02  1.367196101E+02  0.000000000E+00  0.00000E+00  9.000E+00
#rwgt            1           1   3.3486265340604775E-002           7      291268           0
</event>
<event>
      5   9999  3.79277E-02  1.55967E+02 -1.00000E+00  1.15726E-01
      21    -1     0     0   502   501  0.000000000E+00  0.000000000E+00  2.202179444E+03  2.202179444E+03  0.000000000E+00  0.00000E+00  9.000E+00
       2    -1     0     0   501     0  0.000000000E+00  0.000000000E+00 -4.285584763E+01  4.285584763E+01  0.000000000E+00  0.00000E+00  9.000E+00
      25     1     1     2     0     0  1.559104070E+02 -1.276432503E+01  5.036791600E+02  5.420227664E+02  1.250000000E+02  0.00000E+00  9.000E+00
      25     1     1     2     0     0 -1.130829577E+02  1.627355578E+02  1.159334218E+03  1.182772779E+03  1.250000000E+02  0.00000E+00  9.000E+00
       2     1     1     2   502     0 -4.282744928E+01 -1.499712327E+02  4.963102182E+02  5.202397464E+02  5.394796609E-06  0.00000E+00  9.000E+00
#rwgt            1           1   3.1049342034447792E-002           7      291464           0
</event>
<event>
      5   9999  3.79277E-02  4.80882E+01 -1.00000E+00  1.40048E-01
      21    -1     0     0   502   511  0.000000000E+00  0.000000000E+00  5.335894439E+02  5.335894439E+02  0.000000000E+00  0.00000E+00  9.000E+00
      21    -1     0     0   501   502  0.000000000E+00  0.000000000E+00 -3.737917227E+02  3.737917227E+02  0.000000000E+00  0.00000E+00  9.000E+00
      25     1     1     2     0     0 -2.871647394E+01  1.900212285E+02 -1.377320100E+02  2.674468353E+02  1.250000000E+02  0.00000E+00  9.000E+00
      25     1     1     2     0     0  7.447613543E+01 -2.048040721E+02 -7.666139014E+01  2.626658932E+02  1.250000000E+02  0.00000E+00  9.000E+00
      21     1     1     2   501   511 -4.575966149E+01  1.478284365E+01  3.741911214E+02  3.772684381E+02  5.394796609E-06  0.00000E+00  9.000E+00
#rwgt            1           1   3.1918838112522933E-002           7      291539           0
</event>
<event>
      5   9999  3.79277E-02  3.44909E+01 -1.00000E+00  1.48948E-01
      21    -1     0     0   502   512  0.000000000E+00  0.000000000E+00  1.578200149E+02  1.578200149E+02  0.000000000E+00  0.00000E+00  9.000E+00
      21    -1     0     0   501   502  0.000000000E+00  0.000000000E+00 -6.068057333E+02  6.068057333E+02  0.000000000E+00  0.00000E+00  9.000E+00
      25     1     1     2     0     0 -1.870955206E+01 -1.526335138E+02 -2.861240807E+02  3.480503217E+02  1.250000000E+02  0.00000E+00  9.000E+00
      25     1     1     2     0     0  4.944345560E+00  1.842585168E+02 -2.428244956E+02  3.294910973E+02  1.250000000E+02  0.00000E+00  9.000E+00
      21     1     1     2   501   512  1.376520650E+01 -3.162500297E+01  7.996285799E+01  8.708432913E+01  0.000000000E+00  0.00000E+00  9.000E+00
#rwgt            1           1   4.0606799673514014E-002           7      291719           0
</event>
<event>
      5   9999  3.79277E-02  1.44236E+02 -1.00000E+00  1.17072E-01
      -1    -1     0     0     0   501  0.000000000E+00  0.000000000E+00  7.408897587E+02  7.408897587E+02  0.000000000E+00  0.00000E+00  9.000E+00
      21    -1     0     0   501   502  0.000000000E+00  0.000000000E+00 -4.374144519E+02  4.374144519E+02  0.000000000E+00  0.00000E+00  9.000E+00
      25     1     1     2     0     0 -1.353434875E+02  1.819646495E+02  2.831396197E+01  2.604912162E+02  1.250000000E+02  0.00000E+00  9.000E+00
      25     1     1     2     0     0 -8.708383362E+00 -1.892428881E+02 -2.706755995E+02  3.532406925E+02  1.250000000E+02  0.00000E+00  9.000E+00
      -1     1     1     2     0   502  1.440518709E+02  7.278238597E+00  5.458369443E+02  5.645723019E+02  1.078959322E-05  0.00000E+00  9.000E+00
#rwgt            2           5   1.6449994433633141E-004           7      291819           0
</event>
<event>
      5   9999  3.79277E-02  1.60444E+02 -1.00000E+00  1.15247E-01
      21    -1     0     0   502   501  0.000000000E+00  0.000000000E+00  7.689869656E+02  7.689869656E+02  0.000000000E+00  0.00000E+00  9.000E+00
      21    -1     0     0   511   502  0.000000000E+00  0.000000000E+00 -5.342094786E+02  5.342094786E+02  0.000000000E+00  0.00000E+00  9.000E+00
      25     1     1     2     0     0  3.014041450E+02  7.934719784E+01  5.370427757E+02  6.333880164E+02  1.250000000E+02  0.00000E+00  9.000E+00
      25     1     1     2     0     0 -1.409632696E+02 -8.029180948E+01  1.063909370E+02  2.307844222E+02  1.250000000E+02  0.00000E+00  9.000E+00
      21     1     1     2   511   501 -1.604408754E+02  9.446116434E-01 -4.086562256E+02  4.390240056E+02  5.394796609E-06  0.00000E+00  9.000E+00
#rwgt            2          11   2.5329245217714366E-003           7      291898           0
</event>
<event>
      5   9999  3.79277E-02  5.48845E+01 -1.00000E+00  1.36805E-01
      21    -1     0     0   512   501  0.000000000E+00  0.000000000E+00  3.782801355E+01  3.782801355E+01  0.000000000E+00  0.00000E+00  9.000E+00
      21    -1     0     0   501   502  0.000000000E+00  0.000000000E+00 -1.261639799E+03  1.261639799E+03  0.000000000E+00  0.00000E+00  9.000E+00
      25     1     1     2     0     0 -2.032245012E+01  2.778510844E+01 -9.799755726E+02  9.885151173E+02  1.250000000E+02  0.00000E+00  9.000E+00
      25     1     1     2     0     0 -1.860477394E+01  1.090568846E+01 -1.162345370E+02  1.720480725E+02  1.250000000E+02  0.00000E+00  9.000E+00
      21     1     1     2   512   502  3.892722407E+01 -3.869079690E+01 -1.276016753E+02  1.389046222E+02  1.348699152E-06  0.00000E+00  9.000E+00
#rwgt            1           1   5.6335118361460365E-002           7      291918           0
</event>
<event>
      5   9999  3.79277E-02  4.95952E+01 -1.00000E+00  1.39277E-01
      21    -1     0     0   502   501  0.000000000E+00  0.000000000E+00  7.917117432E+02  7.917117432E+02  0.000000000E+00  0.00000E+00  9.000E+00
      21    -1     0     0   511   502  0.000000000E+00  0.000000000E+00 -2.014182174E+02  2.014182174E+02  0.000000000E+00  0.00000E+00  9.000E+00
      25     1     1     2     0     0  2.860180344E+02  1.349881979E+02  2.783702931E+02  4.394805453E+02  1.250000000E+02  0.00000E+00  9.000E+00
      25     1     1     2     0     0 -3.186977637E+02 -9.768249458E+01  3.436264384E+02  4.947870890E+02  1.250000000E+02  0.00000E+00  9.000E+00
      21     1     1     2   511   501  3.267972922E+01 -3.730570336E+01 -3.170320576E+01  5.886232633E+01  1.545128989E-06  0.00000E+00  9.000E+00
#rwgt            1           1   2.6441676983064790E-002           7      292018           0
</event>
<event>
      5   9999  3.79277E-02  2.67134E+01 -1.00000E+00  1.56624E-01
      21    -1     0     0   512   501  0.000000000E+00  0.000000000E+00  3.502578929E+02  3.502578929E+02  0.000000000E+00  0.00000E+00  9.000E+00
      21    -1     0     0   501   502  0.000000000E+00  0.000000000E+00 -1.335787668E+02  1.335787668E+02  0.000000000E+00  0.00000E+00  9.000E+00
      25     1     1     2     0     0  3.068761200E+01 -1.537946572E+02  1.611374013E+02  2.572640438E+02  1.250000000E+02  0.00000E+00  9.000E+00
      25     1     1     2     0     0 -2.064201015E+01  1.290420435E+02  1.975542016E+01  1.819154150E+02  1.250000000E+02  0.00000E+00  9.000E+00
      21     1     1     2   512   502 -1.004560185E+01  2.475261362E+01  3.578630466E+01  4.465720098E+01  0.000000000E+00  0.00000E+00  9.000E+00
#rwgt            1           1   4.2617990395675202E-002           7      292188           0
</event>
<event>
      5   9999  3.79277E-02  8.37408E+01 -1.00000E+00  1.27396E-01
      21    -1     0     0   502   511  0.000000000E+00  0.000000000E+00  8.132378110E+01  8.132378110E+01  0.000000000E+00  0.00000E+00  9.000E+00
      21    -1     0     0   501   502  0.000000000E+00  0.000000000E+00 -1.827122431E+03  1.827122431E+03  0.000000000E+00  0.00000E+00  9.000E+00
      25     1     1     2     0     0  1.393810650E+02  1.965781266E+02 -1.286260931E+03  1.314595841E+03  1.250000000E+02  0.00000E+00  9.000E+00
      25     1     1     2     0     0 -2.129587305E+02 -1.565925802E+02 -3.580598248E+02  4.622818353E+02  1.250000000E+02  0.00000E+00  9.000E+00
      21     1     1     2   501   511  7.357766543E+01 -3.998554639E+01 -1.014778939E+02  1.315685362E+02  3.015782986E-06  0.00000E+00  9.000E+00
#rwgt            1           1   3.2170140661336874E-002           7      292385           0
</event>
<event>
      5   9999  3.79277E-02  5.58507E+01 -1.00000E+00  1.36388E-01
      21    -1     0     0   502   512  0.000000000E+00  0.000000000E+00  9.702144981E+02  9.702144981E+02  0.000000000E+00  0.00000E+00  9.000E+00
      21    -1     0     0   501   502  0.000000000E+00  0.000000000E+00 -4.299449462E+02  4.299449462E+02  0.000000000E+00  0.00000E+00  9.000E+00
      25     1     1     2     0     0  3.493948874E-01 -1.122402060E+02 -2.363091834E+02  2.899396767E+02  1.250000000E+02  0.00000E+00  9.000E+00
      25     1     1     2     0     0  5.550072168E+01  1.119777285E+02 -1.188817269E+02  2.130192639E+02  1.250000000E+02  0.00000E+00  9.000E+00
      21     1     1     2   501   512 -5.585011657E+01  2.624774404E-01  8.954604623E+02  8.972005038E+02  1.078959322E-05  0.00000E+00  9.000E+00
#rwgt            1           1   3.1921872019907038E-002           7      292474           0
</event>
<event>
      5   9999  3.79277E-02  5.99684E+01 -1.00000E+00  1.34716E-01
      21    -1     0     0   502   511  0.000000000E+00  0.000000000E+00  3.732505766E+02  3.732505766E+02  0.000000000E+00  0.00000E+00  9.000E+00
      21    -1     0     0   501   502  0.000000000E+00  0.000000000E+00 -1.807353821E+03  1.807353821E+03  0.000000000E+00  0.00000E+00  9.000E+00
      25     1     1     2     0     0  1.866359823E+02  2.735089968E+01 -3.159566104E+02  3.886317553E+02  1.250000000E+02  0.00000E+00  9.000E+00
      25     1     1     2     0     0 -1.730500088E+02 -8.576005841E+01 -1.443206342E+03  1.461427603E+03  1.250000000E+02  0.00000E+00  9.000E+00
      21     1     1     2   501   511 -1.358597354E+01  5.840915873E+01  3.250597085E+02  3.305450387E+02  6.607249480E-06  0.00000E+00  9.000E+00
#rwgt            1           1   5.3429683965710927E-002           7      292612           0
</event>
<event>
      5   9999  3.79277E-02  5.75533E+01 -1.00000E+00  1.35677E-01
      21    -1     0     0   502   512  0.000000000E+00  0.000000000E+00  1.793777627E+02  1.793777627E+02  0.000000000E+00  0.00000E+00  9.000E+00
      21    -1     0     0   501   502  0.000000000E+00  0.000000000E+00 -4.443793281E+02  4.443793281E+02  0.000000000E+00  0.00000E+00  9.000E+00
      25     1     1     2     0     0 -1.235362629E+02 -1.113779910E+02  1.147515088E+01  2.083817272E+02  1.250000000E+02  0.00000E+00  9.000E+00
      25     1     1     2     0     0  1.438261577E+02  5.751987334E+01 -2.941522535E+02  3.551690411E+02  1.250000000E+02  0.00000E+00  9.000E+00
      21     1     1     2   501   512 -2.028989480E+01  5.385811764E+01  1.767553724E+01  6.020632263E+01  1.430511475E-06  0.00000E+00  9.000E+00
#rwgt            1           1   2.6638740619892912E-002           7      292855           0
</event>
<event>
      5   9999  3.79277E-02  3.40477E+01 -1.00000E+00  1.49318E-01
      21    -1     0     0   502   511  0.000000000E+00  0.000000000E+00  5.307500939E+01  5.307500939E+01  0.000000000E+00  0.00000E+00  9.000E+00
      21    -1     0     0   501   502  0.000000000E+00  0.000000000E+00 -9.418962670E+02  9.418962670E+02  0.000000000E+00  0.00000E+00  9.000E+00
      25     1     1     2     0     0  8.470731068E+01 -9.271518966E+01 -5.659347019E+02  5.930248912E+02  1.250000000E+02  0.00000E+00  9.000E+00
      25     1     1     2     0     0 -1.186611299E+02  9.524242011E+01 -3.061398155E+02  3.640029794E+02  1.250000000E+02  0.00000E+00  9.000E+00
      21     1     1     2   501   511  3.395381924E+01 -2.527230453E+00 -1.674674026E+01  3.794340580E+01  7.907449699E-07  0.00000E+00  9.000E+00
#rwgt            1           1   4.9450335621881301E-002           7      293050           0
</event>
<event>
      5   9999  3.79277E-02  4.18039E+01 -1.00000E+00  1.43662E-01
      21    -1     0     0   512   501  0.000000000E+00  0.000000000E+00  4.038929058E+01  4.038929058E+01  0.000000000E+00  0.00000E+00  9.000E+00
      21    -1     0     0   501   502  0.000000000E+00  0.000000000E+00 -1.526806884E+03  1.526806884E+03  0.000000000E+00  0.00000E+00  9.000E+00
      25     1     1     2     0     0 -1.256085045E+02 -3.215993826E+01 -1.199114372E+03  1.212564239E+03  1.250000000E+02  0.00000E+00  9.000E+00
      25     1     1     2     0     0  8.381995431E+01  3.329271393E+01 -2.666704698E+02  3.080135208E+02  1.250000000E+02  0.00000E+00  9.000E+00
      21     1     1     2   512   502  4.178855018E+01 -1.132775672E+00 -2.063275177E+01  4.661841430E+01  1.390207266E-06  0.00000E+00  9.000E+00
#rwgt            1           1   3.9686550293745071E-002           7      293214           0
</event>
<event>
      5   9999  3.79277E-02  1.71460E+02 -1.00000E+00  1.14138E-01
      21    -1     0     0   502   501  0.000000000E+00  0.000000000E+00  2.434329255E+03  2.434329255E+03  0.000000000E+00  0.00000E+00  9.000E+00
      21    -1     0     0   511   502  0.000000000E+00  0.000000000E+00 -5.606779627E+01  5.606779627E+01  0.000000000E+00  0.00000E+00  9.000E+00
      25     1     1     2     0     0 -1.283341057E+01 -2.601037001E+02  1.801231145E+03  1.824247042E+03  1.250000000E+02  0.00000E+00  9.000E+00
      25     1     1     2     0     0  3.525493692E+01  9.011568237E+01  2.301751043E+02  2.792298792E+02  1.250000000E+02  0.00000E+00  9.000E+00
      21     1     1     2   511   501 -2.242152634E+01  1.699880177E+02  3.468552090E+02  3.869201300E+02  6.607249480E-06  0.00000E+00  9.000E+00
#rwgt            2          11   5.1798224230848950E-003           7      293307           0
</event>
<event>
      5   9999  3.79277E-02  1.23546E+02 -1.00000E+00  1.19834E-01
      21    -1     0     0   502   501  0.000000000E+00  0.000000000E+00  3.475402792E+02  3.475402792E+02  0.000000000E+00  0.00000E+00  9.000E+00
      21    -1     0     0   512   502  0.000000000E+00  0.000000000E+00 -2.978000043E+02  2.978000043E+02  0.000000000E+00  0.00000E+00  9.000E+00
      25     1     1     2     0     0 -8.561049075E+01 -9.904380215E+01  1.363090736E+02  2.265921323E+02  1.250000000E+02  0.00000E+00  9.000E+00
      25     1     1     2     0     0  3.893715323E+01  2.134342469E+02  2.583642293E+01  2.517196862E+02  1.250000000E+02  0.00000E+00  9.000E+00
      21     1     1     2   512   501  4.667333752E+01 -1.143904448E+02 -1.124052216E+02  1.670284650E+02  1.907348633E-06  0.00000E+00  9.000E+00
#rwgt            1           1   3.8761793948413663E-002           7      293387           0
</event>
<event>
      5   9999  3.79277E-02  1.04268E+02 -1.00000E+00  1.23017E-01
      21    -1     0     0   502   511  0.000000000E+00  0.000000000E+00  1.640055071E+03  1.640055071E+03  0.000000000E+00  0.00000E+00  9.000E+00
      21    -1     0     0   501   502  0.000000000E+00  0.000000000E+00 -6.510160150E+01  6.510160150E+01  0.000000000E+00  0.00000E+00  9.000E+00
      25     1     1     2     0     0 -1.484288998E+01  8.103539821E+00  1.219001806E+03  1.225510662E+03  1.250000000E+02  0.00000E+00  9.000E+00
      25     1     1     2     0     0  6.876406848E+01 -9.734614518E+01  9.165602749E+01  1.955264598E+02  1.250000000E+02  0.00000E+00  9.000E+00
      21     1     1     2   501   511 -5.392117850E+01  8.924260536E+01  2.642956359E+02  2.841195510E+02  0.000000000E+00  0.00000E+00  9.000E+00
#rwgt            1           1   4.2807996388501982E-002           7      293448           0
</event>
<event>
      5   9999  3.79277E-02  3.04996E+01 -1.00000E+00  1.52543E-01
      21    -1     0     0   502   501  0.000000000E+00  0.000000000E+00  9.022987794E+02  9.022987794E+02  0.000000000E+00  0.00000E+00  9.000E+00
      21    -1     0     0   501   512  0.000000000E+00  0.000000000E+00 -3.364551052E+02  3.364551052E+02  0.000000000E+00  0.00000E+00  9.000E+00
      25     1     1     2     0     0 -1.426598899E+02  1.215369131E+02  6.569950375E+02  6.945434073E+02  1.250000000E+02  0.00000E+00  9.000E+00
      25     1     1     2     0     0  1.136568513E+02 -1.309735824E+02  1.750325567E+02  2.762849164E+02  1.250000000E+02  0.00000E+00  9.000E+00
      21     1     1     2   502   512  2.900303859E+01  9.436669325E+00 -2.661839199E+02  2.679255609E+02  3.814697266E-06  0.00000E+00  9.000E+00
#rwgt            1           1   4.1818051870307189E-002           7      293628           0
</event>
<event>
      5   9999  3.79277E-02  3.62465E+01 -1.00000E+00  1.47545E-01
      21    -1     0     0   511   501  0.000000000E+00  0.000000000E+00  1.360247874E+03  1.360247874E+03  0.000000000E+00  0.00000E+00  9.000E+00
      21    -1     0     0   501   502  0.000000000E+00  0.000000000E+00 -8.094498772E+01  8.094498772E+01  0.000000000E+00  0.00000E+00  9.000E+00
      25     1     1     2     0     0 -1.573322323E+02 -7.294130704E+01  1.467055323E+02  2.592708599E+02  1.250000000E+02  0.00000E+00  9.000E+00
      25     1     1     2     0     0  1.566697708E+02  1.091817137E+02  5.155505504E+02  5.638115232E+02  1.250000000E+02  0.00000E+00  9.000E+00
      21     1     1     2   511   502  6.624614334E-01 -3.624040665E+01  6.170468037E+02  6.181104787E+02  0.000000000E+00  0.00000E+00  9.000E+00
#rwgt            1           1   4.3905402777289368E-002           7      293744           0
</event>
<event>
      5   9999  3.79277E-02  8.55858E+01 -1.00000E+00  1.26947E-01
      21    -1     0     0   502   512  0.000000000E+00  0.000000000E+00  9.959236348E+01  9.959236348E+01  0.000000000E+00  0.00000E+00  9.000E+00
      21    -1     0     0   501   502  0.000000000E+00  0.000000000E+00 -6.195307041E+02  6.195307041E+02  0.000000000E+00  0.00000E+00  9.000E+00
      25     1     1     2     0     0  6.566866904E+01  1.283910470E+02 -4.277759231E+02  4.684163484E+02  1.250000000E+02  0.00000E+00  9.000E+00
      25     1     1     2     0     0 -5.129037774E+01 -4.402162930E+01 -8.316009198E+01  1.646487400E+02  1.250000000E+02  0.00000E+00  9.000E+00
      21     1     1     2   501   512 -1.437829130E+01 -8.436941772E+01 -9.002325489E+00  8.605797913E+01  1.348699152E-06  0.00000E+00  9.000E+00
#rwgt            1           1   4.2712600701263120E-002           7      294041           0
</event>
<event>
      5   9999  3.79277E-02  9.62446E+01 -1.00000E+00  1.24580E-01
       2    -1     0     0   502     0  0.000000000E+00  0.000000000E+00  5.108277485E+03  5.108277485E+03  0.000000000E+00  0.00000E+00  9.000E+00
      21    -1     0     0   501   502  0.000000000E+00  0.000000000E+00 -1.262450613E+01  1.262450613E+01  0.000000000E+00  0.00000E+00  9.000E+00
      25     1     1     2     0     0  4.448431012E+01  1.385426093E+02  1.859063597E+03  1.868934287E+03  1.250000000E+02  0.00000E+00  9.000E+00
      25     1     1     2     0     0 -1.235824398E+02 -8.371102607E+01  1.481025620E+03  1.493767733E+03  1.250000000E+02  0.00000E+00  9.000E+00
       2     1     1     2   501     0  7.909812967E+01 -5.483158319E+01  1.755563762E+03  1.758199971E+03  3.737624730E-05  0.00000E+00  9.000E+00
#rwgt            1           1   1.8929041016406824E-002           7      294123           0
</event>
<event>
      5   9999  3.79277E-02  2.66447E+01 -1.00000E+00  1.56706E-01
      21    -1     0     0   511   501  0.000000000E+00  0.000000000E+00  6.046053350E+01  6.046053350E+01  0.000000000E+00  0.00000E+00  9.000E+00
      21    -1     0     0   501   502  0.000000000E+00  0.000000000E+00 -7.879833118E+02  7.879833118E+02  0.000000000E+00  0.00000E+00  9.000E+00
      25     1     1     2     0     0 -1.261643549E+02 -8.154874141E+01 -4.586299059E+02  4.985318769E+02  1.250000000E+02  0.00000E+00  9.000E+00
      25     1     1     2     0     0  1.046935850E+02  6.577066424E+01 -2.711603292E+02  3.231709317E+02  1.250000000E+02  0.00000E+00  9.000E+00
      21     1     1     2   511   502  2.147076998E+01  1.577807717E+01  2.267456758E+00  2.674103669E+01  4.906081448E-07  0.00000E+00  9.000E+00
#rwgt            1           1   3.8204938253129636E-002           7      294221           0
</event>
<event>
      5   9999  3.79277E-02  6.34025E+01 -1.00000E+00  1.33436E-01
      21    -1     0     0   512   501  0.000000000E+00  0.000000000E+00  1.732704331E+02  1.732704331E+02  0.000000000E+00  0.00000E+00  9.000E+00
      21    -1     0     0   501   502  0.000000000E+00  0.000000000E+00 -1.900010788E+02  1.900010788E+02  0.000000000E+00  0.00000E+00  9.000E+00
      25     1     1     2     0     0  1.049252805E+01 -1.888684910E+01  3.450065010E+01  1.314614053E+02  1.250000000E+02  0.00000E+00  9.000E+00
      25     1     1     2     0     0 -2.089953033E+01  8.142938152E+01 -6.939669168E+01  1.658566711E+02  1.250000000E+02  0.00000E+00  9.000E+00
      21     1     1     2   512   502  1.040700228E+01 -6.254253241E+01  1.816539589E+01  6.595343558E+01  1.092571186E-06  0.00000E+00  9.000E+00
#rwgt            1           1   6.8853817352291249E-002           7      294346           0
</event>
<event>
      5   9999  3.79277E-02  1.61075E+01 -1.00000E+00  1.74518E-01
      21    -1     0     0   502   501  0.000000000E+00  0.000000000E+00  2.769605790E+02  2.769605790E+02  0.000000000E+00  0.00000E+00  9.000E+00
      21    -1     0     0   511   502  0.000000000E+00  0.000000000E+00 -2.891729795E+02  2.891729795E+02  0.000000000E+00  0.00000E+00  9.000E+00
      25     1     1     2     0     0  5.321446881E+00 -1.710862470E+02 -1.743382786E+02  2.744406258E+02  1.250000000E+02  0.00000E+00  9.000E+00
      25     1     1     2     0     0 -1.825762574E+01  1.806834648E+02  1.649467371E+02  2.753403011E+02  1.250000000E+02  0.00000E+00  9.000E+00
      21     1     1     2   511   501  1.293617886E+01 -9.597217809E+00 -2.820858995E+00  1.635263155E+01  2.269677253E-07  0.00000E+00  9.000E+00
#rwgt            1           1   4.5062685100174422E-002           7      294440           0
</event>
<event>
      5   9999  3.79277E-02  2.28661E+01 -1.00000E+00  1.61709E-01
      21    -1     0     0   502   501  0.000000000E+00  0.000000000E+00  1.990915120E+02  1.990915120E+02  0.000000000E+00  0.00000E+00  9.000E+00
      21    -1     0     0   512   502  0.000000000E+00  0.000000000E+00 -1.281715296E+03  1.281715296E+03  0.000000000E+00  0.00000E+00  9.000E+00
      25     1     1     2     0     0  1.278516863E+02  2.156153278E+02 -6.039945669E+02  6.657855962E+02  1.250000000E+02  0.00000E+00  9.000E+00
      25     1     1     2     0     0 -1.424296431E+02 -2.332317997E+02  3.350627627E+01  3.023755052E+02  1.250000000E+02  0.00000E+00  9.000E+00
      21     1     1     2   512   501  1.457795683E+01  1.761647185E+01 -5.121354938E+02  5.126457070E+02  0.000000000E+00  0.00000E+00  9.000E+00
#rwgt            1           1   5.9330043911974585E-002           7      294773           0
</event>
<event>
      5   9999  3.79277E-02  2.13359E+02 -1.00000E+00  1.10635E-01
      21    -1     0     0   502   501  0.000000000E+00  0.000000000E+00  9.700230249E+02  9.700230249E+02  0.000000000E+00  0.00000E+00  9.000E+00
      21    -1     0     0   501   511  0.000000000E+00  0.000000000E+00 -1.627948565E+02  1.627948565E+02  0.000000000E+00  0.00000E+00  9.000E+00
      25     1     1     2     0     0  7.232258661E+01  2.492485297E+02  7.130161678E+02  7.690074393E+02  1.250000000E+02  0.00000E+00  9.000E+00
      25     1     1     2     0     0  1.419649821E+01 -5.421848368E+01  5.062170742E+01  1.460436298E+02  1.250000000E+02  0.00000E+00  9.000E+00
      21     1     1     2   502   511 -8.651908482E+01 -1.950300460E+02  4.359029316E+01  2.177668123E+02  2.697398305E-06  0.00000E+00  9.000E+00
#rwgt            1           1   3.8008960696958492E-002           7      295067           0
</event>
<event>
      5   9999  3.79277E-02  2.02382E+02 -1.00000E+00  1.11461E-01
      21    -1     0     0   502   501  0.000000000E+00  0.000000000E+00  8.194711330E+02  8.194711330E+02  0.000000000E+00  0.00000E+00  9.000E+00
      21    -1     0     0   501   512  0.000000000E+00  0.000000000E+00 -3.464546685E+02  3.464546685E+02  0.000000000E+00  0.00000E+00  9.000E+00
      25     1     1     2     0     0  1.428235658E+01 -1.881812340E+02  6.866324349E+02  7.229835843E+02  1.250000000E+02  0.00000E+00  9.000E+00
      25     1     1     2     0     0 -1.327407098E+02  2.408960472E+01 -8.088395991E+01  2.009169481E+02  1.250000000E+02  0.00000E+00  9.000E+00
      21     1     1     2   502   512  1.184583532E+02  1.640916293E+02 -1.327320105E+02  2.420252691E+02  1.907348633E-06  0.00000E+00  9.000E+00
#rwgt            2          11   2.3967500784404083E-003           7      295152           0
</event>
<event>
      5   9999  3.79277E-02  3.77903E+01 -1.00000E+00  1.46388E-01
      21    -1     0     0   502   501  0.000000000E+00  0.000000000E+00  6.510706279E+02  6.510706279E+02  0.000000000E+00  0.00000E+00  9.000E+00
      21    -1     0     0   511   502  0.000000000E+00  0.000000000E+00 -1.954660300E+02  1.954660300E+02  0.000000000E+00  0.00000E+00  9.000E+00
      25     1     1     2     0     0  9.027343751E+01  1.264557024E+02  1.679238377E+02  2.606985874E+02  1.250000000E+02  0.00000E+00  9.000E+00
      25     1     1     2     0     0 -7.887749337E+01 -1.624868289E+02  4.060106253E+02  4.616202513E+02  1.250000000E+02  0.00000E+00  9.000E+00
      21     1     1     2   511   501 -1.139594414E+01  3.603112654E+01 -1.183298652E+02  1.242178192E+02  1.348699152E-06  0.00000E+00  9.000E+00
#rwgt            1           1   1.4147056496219180E-002           7      295307           0
</event>
<event>
      5   9999  3.79277E-02  9.04494E+01 -1.00000E+00  1.25821E-01
      21    -1     0     0   502   501  0.000000000E+00  0.000000000E+00  1.018400696E+03  1.018400696E+03  0.000000000E+00  0.00000E+00  9.000E+00
       2    -1     0     0   501     0  0.000000000E+00  0.000000000E+00 -5.709332895E+02  5.709332895E+02  0.000000000E+00  0.00000E+00  9.000E+00
      25     1     1     2     0     0  6.016810322E+01 -1.813734080E+02  1.822821366E+02  2.921785261E+02  1.250000000E+02  0.00000E+00  9.000E+00
      25     1     1     2     0     0  1.334498899E+01  1.286768539E+02  7.667144865E+02  7.875353486E+02  1.250000000E+02  0.00000E+00  9.000E+00
       2     1     1     2   502     0 -7.351309221E+01  5.269655410E+01 -5.015292169E+02  5.096201105E+02  9.344061824E-06  0.00000E+00  9.000E+00
#rwgt            1           1   3.2002531733000474E-002           7      295413           0
</event>
<event>
      5   9999  3.79277E-02  1.88534E+01 -1.00000E+00  1.68513E-01
      21    -1     0     0   511   501  0.000000000E+00  0.000000000E+00  1.604267865E+03  1.604267865E+03  0.000000000E+00  0.00000E+00  9.000E+00
      21    -1     0     0   501   502  0.000000000E+00  0.000000000E+00 -2.926257939E+01  2.926257939E+01  0.000000000E+00  0.00000E+00  9.000E+00
      25     1     1     2     0     0  3.436632811E+01  5.461851769E+01  1.805825164E+02  2.289088732E+02  1.250000000E+02  0.00000E+00  9.000E+00
      25     1     1     2     0     0 -5.089325969E+01 -6.369106097E+01  1.277694909E+03  1.286380952E+03  1.250000000E+02  0.00000E+00  9.000E+00
      21     1     1     2   511   502  1.652693158E+01  9.072543279E+00  1.167278609E+02  1.182406192E+02  1.348699152E-06  0.00000E+00  9.000E+00
#rwgt            1           1   5.0812573351155729E-002           7      295515           0
</event>
<event>
      5   9999  3.79277E-02  8.02618E+01 -1.00000E+00  1.28281E-01
      21    -1     0     0   502   501  0.000000000E+00  0.000000000E+00  1.680683163E+03  1.680683163E+03  0.000000000E+00  0.00000E+00  9.000E+00
      21    -1     0     0   501   512  0.000000000E+00  0.000000000E+00 -1.413131870E+02  1.413131870E+02  0.000000000E+00  0.00000E+00  9.000E+00
      25     1     1     2     0     0  1.727311128E+02 -1.516024645E+02  4.355505698E+02  5.080833036E+02  1.250000000E+02  0.00000E+00  9.000E+00
      25     1     1     2     0     0 -1.033314264E+02  1.919216323E+02  1.178073123E+03  1.204571534E+03  1.250000000E+02  0.00000E+00  9.000E+00
      21     1     1     2   502   512 -6.939968640E+01 -4.031916779E+01 -7.425371732E+01  1.093415122E+02  3.015782986E-06  0.00000E+00  9.000E+00
#rwgt            1           1   4.3180394869788814E-002           7      295705           0
</event>
<event>
      5   9999  3.79277E-02  9.06830E+01 -1.00000E+00  1.25769E-01
      21    -1     0     0   502   501  0.000000000E+00  0.000000000E+00  4.842481460E+02  4.842481460E+02  0.000000000E+00  0.00000E+00  9.000E+00
       1    -1     0     0   501     0  0.000000000E+00  0.000000000E+00 -9.541701368E+02  9.541701368E+02  0.000000000E+00  0.00000E+00  9.000E+00
      25     1     1     2     0     0  8.481494625E+01  1.237261782E+01  2.368555300E+02  2.811977931E+02  1.250000000E+02  0.00000E+00  9.000E+00
      25     1     1     2     0     0 -1.742440429E+02  2.655690541E+00  1.712983902E+02  2.744743661E+02  1.250000000E+02  0.00000E+00  9.000E+00
       1     1     1     2   502     0  8.942909665E+01 -1.502830836E+01 -8.780759110E+02  8.827461236E+02  1.078959322E-05  0.00000E+00  9.000E+00
#rwgt            1           1   4.3226226695569719E-002           7      295767           0
</event>
<event>
      5   9999  3.79277E-02  1.63820E+02 -1.00000E+00  1.14897E-01
      -2    -1     0     0     0   501  0.000000000E+00  0.000000000E+00  1.087063610E+03  1.087063610E+03  0.000000000E+00  0.00000E+00  9.000E+00
      21    -1     0     0   501   502  0.000000000E+00  0.000000000E+00 -1.837501092E+03  1.837501092E+03  0.000000000E+00  0.00000E+00  9.000E+00
      25     1     1     2     0     0  1.067569009E+01  4.513846494E+01 -1.500618209E+03  1.506529609E+03  1.250000000E+02  0.00000E+00  9.000E+00
      25     1     1     2     0     0  1.097863117E+02  6.588406719E+01 -3.031610794E+02  3.520303746E+02  1.250000000E+02  0.00000E+00  9.000E+00
      -2     1     1     2     0   502 -1.204620018E+02 -1.110225321E+02  1.053341807E+03  1.066004718E+03  2.157918644E-05  0.00000E+00  9.000E+00
#rwgt            1           1   3.2980338188110858E-002           7      295917           0
</event>
<event>
      5   9999  3.79277E-02  6.73069E+01 -1.00000E+00  1.32089E-01
      21    -1     0     0   502   501  0.000000000E+00  0.000000000E+00  1.317815413E+02  1.317815413E+02  0.000000000E+00  0.00000E+00  9.000E+00
      21    -1     0     0   511   502  0.000000000E+00  0.000000000E+00 -7.128042053E+02  7.128042053E+02  0.000000000E+00  0.00000E+00  9.000E+00
      25     1     1     2     0     0  1.328498577E+02  1.097518439E+00 -2.377241644E+02  2.996465711E+02  1.250000000E+02  0.00000E+00  9.000E+00
      25     1     1     2     0     0 -1.870009502E+02  3.887602728E+01 -3.689378985E+01  2.312290047E+02  1.250000000E+02  0.00000E+00  9.000E+00
      21     1     1     2   511   501  5.415109249E+01 -3.997354572E+01 -3.064047097E+02  3.137101709E+02  3.814697266E-06  0.00000E+00  9.000E+00
#rwgt            1           1   4.1977230743227303E-002           7      296049           0
</event>
<event>
      5   9999  3.79277E-02  1.73180E+02 -1.00000E+00  1.13973E-01
      21    -1     0     0   502   512  0.000000000E+00  0.000000000E+00  8.377375410E+02  8.377375410E+02  0.000000000E+00  0.00000E+00  9.000E+00
      21    -1     0     0   501   502  0.000000000E+00  0.000000000E+00 -2.999338358E+02  2.999338358E+02  0.000000000E+00  0.00000E+00  9.000E+00
      25     1     1     2     0     0 -5.874285748E+01 -3.106796624E+02 -1.385728355E+02  3.671512041E+02  1.250000000E+02  0.00000E+00  9.000E+00
      25     1     1     2     0     0  6.000449312E+01  1.375039710E+02  3.806462657E+02  4.278135819E+02  1.250000000E+02  0.00000E+00  9.000E+00
      21     1     1     2   501   512 -1.261635642E+00  1.731756915E+02  2.957302750E+02  3.427065908E+02  0.000000000E+00  0.00000E+00  9.000E+00
#rwgt            1           1   4.5272555384958210E-002           7      296188           0
</event>
<event>
      5   9999  3.79277E-02  2.95912E+01 -1.00000E+00  1.53455E-01
      21    -1     0     0   502   511  0.000000000E+00  0.000000000E+00  6.097983559E+02  6.097983559E+02  0.000000000E+00  0.00000E+00  9.000E+00
      21    -1     0     0   501   502  0.000000000E+00  0.000000000E+00 -7.062501429E+01  7.062501429E+01  0.000000000E+00  0.00000E+00  9.000E+00
      25     1     1     2     0     0 -3.541840176E+01 -1.164633893E+02  3.987544486E+02  4.352565847E+02  1.250000000E+02  0.00000E+00  9.000E+00
      25     1     1     2     0     0  4.474661705E+01  8.838091065E+01  8.121893258E+01  1.789831280E+02  1.250000000E+02  0.00000E+00  9.000E+00
      21     1     1     2   501   511 -9.328215290E+00  2.808247860E+01  5.919996043E+01  6.618365750E+01  0.000000000E+00  0.00000E+00  9.000E+00
#rwgt            1           1   3.4737582779952675E-002           7      296248           0
</event>
<event>
      5   9999  3.79277E-02  8.88192E+01 -1.00000E+00  1.26189E-01
       2    -1     0     0   502     0  0.000000000E+00  0.000000000E+00  8.782429257E+02  8.782429257E+02  0.000000000E+00  0.00000E+00  9.000E+00
      21    -1     0     0   501   502  0.000000000E+00  0.000000000E+00 -4.347192356E+02  4.347192356E+02  0.000000000E+00  0.00000E+00  9.000E+00
      25     1     1     2     0     0  2.233043321E+02  1.424343540E+02  2.989350823E+02  4.184967782E+02  1.250000000E+02  0.00000E+00  9.000E+00
      25     1     1     2     0     0 -1.359374879E+02 -1.264379826E+02 -3.371135300E+02  4.046431714E+02  1.250000000E+02  0.00000E+00  9.000E+00
       2     1     1     2   501     0 -8.736684425E+01 -1.599637136E+01  4.817021379E+02  4.898222116E+02  5.394796609E-06  0.00000E+00  9.000E+00
#rwgt            2          18   2.6622433733793169E-004           7      296420           0
</event>
<event>
      5   9999  3.79277E-02  1.33585E+02 -1.00000E+00  1.18424E-01
      21    -1     0     0   502   501  0.000000000E+00  0.000000000E+00  8.116814824E+02  8.116814824E+02  0.000000000E+00  0.00000E+00  9.000E+00
      21    -1     0     0   511   502  0.000000000E+00  0.000000000E+00 -3.370487663E+02  3.370487663E+02  0.000000000E+00  0.00000E+00  9.000E+00
      25     1     1     2     0     0  1.892349768E+02  1.880971743E+02  4.059824265E+02  5.016344825E+02  1.250000000E+02  0.00000E+00  9.000E+00
      25     1     1     2     0     0 -7.685216361E+01 -2.603125518E+02  2.718122742E+02  4.039502347E+02  1.250000000E+02  0.00000E+00  9.000E+00
      21     1     1     2   511   501 -1.123828132E+02  7.221537754E+01 -2.031619847E+02  2.431455315E+02  2.697398305E-06  0.00000E+00  9.000E+00
#rwgt            1           1  0.16167396625131414                7      296484           0
</event>
<event>
      5   9999  3.79277E-02  1.14292E+01 -1.00000E+00  1.89281E-01
       2    -1     0     0   502     0  0.000000000E+00  0.000000000E+00  1.948196841E+03  1.948196841E+03  0.000000000E+00  0.00000E+00  9.000E+00
      21    -1     0     0   501   502  0.000000000E+00  0.000000000E+00 -1.025979503E+02  1.025979503E+02  0.000000000E+00  0.00000E+00  9.000E+00
      25     1     1     2     0     0  9.839477492E+01  2.148389370E+02  2.058130496E+02  3.373741424E+02  1.250000000E+02  0.00000E+00  9.000E+00
      25     1     1     2     0     0 -1.097999877E+02 -2.140983561E+02  4.628014400E+02  5.363807568E+02  1.250000000E+02  0.00000E+00  9.000E+00
       2     1     1     2   501     0  1.140521277E+01 -7.405809315E-01  1.176984401E+03  1.177039892E+03  0.000000000E+00  0.00000E+00  9.000E+00
#rwgt            1           1   3.3583903755406659E-002           7      296560           0
</event>
<event>
      5   9999  3.79277E-02  3.32363E+01 -1.00000E+00  1.50013E-01
      21    -1     0     0   502   511  0.000000000E+00  0.000000000E+00  2.988408376E+02  2.988408376E+02  0.000000000E+00  0.00000E+00  9.000E+00
      21    -1     0     0   501   502  0.000000000E+00  0.000000000E+00 -2.618482108E+02  2.618482108E+02  0.000000000E+00  0.00000E+00  9.000E+00
      25     1     1     2     0     0 -5.127538442E+01 -1.642924933E+00  2.300748184E+02  2.668169528E+02  1.250000000E+02  0.00000E+00  9.000E+00
      25     1     1     2     0     0  8.292163963E+01 -8.514252599E+00 -2.086945605E+02  2.571515320E+02  1.250000000E+02  0.00000E+00  9.000E+00
      21     1     1     2   501   511 -3.164625521E+01  1.015717753E+01  1.561236893E+01  3.672056356E+01  6.307962682E-07  0.00000E+00  9.000E+00
#rwgt            1           1   4.0220454548268482E-002           7      296903           0
</event>
<event>
      5   9999  3.79277E-02  4.04108E+01 -1.00000E+00  1.44565E-01
       2    -1     0     0   502     0  0.000000000E+00  0.000000000E+00  1.082359499E+02  1.082359499E+02  0.000000000E+00  0.00000E+00  9.000E+00
      21    -1     0     0   501   502  0.000000000E+00  0.000000000E+00 -1.238121258E+03  1.238121258E+03  0.000000000E+00  0.00000E+00  9.000E+00
      25     1     1     2     0     0 -7.557689261E+01 -1.636699028E+02 -6.944468657E+02  7.282727189E+02  1.250000000E+02  0.00000E+00  9.000E+00
      25     1     1     2     0     0  1.139978472E+02  1.511454523E+02 -4.959194398E+02  5.453453472E+02  1.250000000E+02  0.00000E+00  9.000E+00
       2     1     1     2   501     0 -3.842095454E+01  1.252445054E+01  6.048099778E+01  7.273914147E+01  2.431401974E-06  0.00000E+00  9.000E+00
#rwgt            1           1   4.0541872943866589E-002           7      297075           0
</event>
<event>
      5   9999  3.79277E-02  4.36395E+01 -1.00000E+00  1.42533E-01
       2    -1     0     0   502     0  0.000000000E+00  0.000000000E+00  1.343768489E+03  1.343768489E+03  0.000000000E+00  0.00000E+00  9.000E+00
      21    -1     0     0   501   502  0.000000000E+00  0.000000000E+00 -1.095337719E+02  1.095337719E+02  0.000000000E+00  0.00000E+00  9.000E+00
      25     1     1     2     0     0  2.497428993E+00 -2.245121748E+02  3.123765788E+02  4.044948464E+02  1.250000000E+02  0.00000E+00  9.000E+00
      25     1     1     2     0     0 -4.608685074E+01  2.224215331E+02  2.047372069E+02  3.303598948E+02  1.250000000E+02  0.00000E+00  9.000E+00
       2     1     1     2   501     0  4.358942175E+01  2.090641728E+00  7.171209316E+02  7.184475200E+02  7.629394531E-06  0.00000E+00  9.000E+00
#rwgt            1           1   1.6613573967659473E-002           7      297227           0
</event>
<event>
      5   9999  3.79277E-02  2.45539E+01 -1.00000E+00  1.59339E-01
      21    -1     0     0   502   511  0.000000000E+00  0.000000000E+00  4.140634295E+02  4.140634295E+02  0.000000000E+00  0.00000E+00  9.000E+00
      21    -1     0     0   501   502  0.000000000E+00  0.000000000E+00 -1.546496372E+02  1.546496372E+02  0.000000000E+00  0.00000E+00  9.000E+00
      25     1     1     2     0     0  1.327862230E+02  2.001019612E+01 -5.741152184E+01  1.922333785E+02  1.250000000E+02  0.00000E+00  9.000E+00
      25     1     1     2     0     0 -1.213734306E+02  1.730086630E+00  2.992627863E+02  3.462913775E+02  1.250000000E+02  0.00000E+00  9.000E+00
      21     1     1     2   501   511 -1.141279235E+01 -2.174028275E+01  1.756252772E+01  3.018831071E+01  2.384185791E-07  0.00000E+00  9.000E+00
#rwgt            1           1   4.2079657549703171E-002           7      297313           0
</event>
<event>
      5   9999  3.79277E-02  4.36980E+01 -1.00000E+00  1.42498E-01
      21    -1     0     0   502   512  0.000000000E+00  0.000000000E+00  1.472552253E+02  1.472552253E+02  0.000000000E+00  0.00000E+00  9.000E+00
      21    -1     0     0   501   502  0.000000000E+00  0.000000000E+00 -6.274229562E+02  6.274229562E+02  0.000000000E+00  0.00000E+00  9.000E+00
      25     1     1     2     0     0  8.506396641E+01 -1.721823807E+02 -3.267208715E+02  3.990666342E+02  1.250000000E+02  0.00000E+00  9.000E+00
      25     1     1     2     0     0 -1.265920530E+02  1.585832889E+02 -2.004633703E+02  3.114237792E+02  1.250000000E+02  0.00000E+00  9.000E+00
      21     1     1     2   501   512  4.152808663E+01  1.359909176E+01  4.701651096E+01  6.418776814E+01  1.907348633E-06  0.00000E+00  9.000E+00
#rwgt            1           1  0.19589922896560677                7      297487           0
</event>
<event>
      5   9999  3.79277E-02  3.40027E+01 -1.00000E+00  1.49356E-01
      21    -1     0     0   502   501  0.000000000E+00  0.000000000E+00  6.214628625E+02  6.214628625E+02  0.000000000E+00  0.00000E+00  9.000E+00
      21    -1     0     0   511   502  0.000000000E+00  0.000000000E+00 -2.326408341E+02  2.326408341E+02  0.000000000E+00  0.00000E+00  9.000E+00
      25     1     1     2     0     0  1.359268239E+02  1.005141467E+02  2.318825517E+02  3.130075286E+02  1.250000000E+02  0.00000E+00  9.000E+00
      25     1     1     2     0     0 -1.039779063E+02 -1.121523873E+02  3.191674342E+02  3.753430618E+02  1.250000000E+02  0.00000E+00  9.000E+00
      21     1     1     2   511   501 -3.194891752E+01  1.163824062E+01 -1.622279576E+02  1.657531062E+02  4.264961200E-06  0.00000E+00  9.000E+00
#rwgt            1           1   3.6300548626889924E-002           7      297659           0
</event>
<event>
      5   9999  3.79277E-02  2.97075E+01 -1.00000E+00  1.53336E-01
      21    -1     0     0   512   501  0.000000000E+00  0.000000000E+00  5.229304759E+02  5.229304759E+02  0.000000000E+00  0.00000E+00  9.000E+00
      21    -1     0     0   501   502  0.000000000E+00  0.000000000E+00 -1.078566764E+02  1.078566764E+02  0.000000000E+00  0.00000E+00  9.000E+00
      25     1     1     2     0     0 -1.021902837E+02 -1.147937553E+02  1.074263163E+02  2.253572137E+02  1.250000000E+02  0.00000E+00  9.000E+00
      25     1     1     2     0     0  7.595439901E+01  1.287298913E+02  1.524080042E+02  2.473735139E+02  1.250000000E+02  0.00000E+00  9.000E+00
      21     1     1     2   512   502  2.623588468E+01 -1.393613601E+01  1.552394790E+02  1.580564247E+02  1.907348633E-06  0.00000E+00  9.000E+00
#rwgt            1           1   4.1145277255000633E-002           7      297819           0
</event>
<event>
      5   9999  3.79277E-02  2.93828E+01 -1.00000E+00  1.53670E-01
      21    -1     0     0   502   501  0.000000000E+00  0.000000000E+00  1.009107533E+03  1.009107533E+03  0.000000000E+00  0.00000E+00  9.000E+00
      21    -1     0     0   511   502  0.000000000E+00  0.000000000E+00 -1.110614114E+02  1.110614114E+02  0.000000000E+00  0.00000E+00  9.000E+00
      25     1     1     2     0     0 -1.092068629E+02 -2.357695885E+02  5.187994308E+02  5.935413104E+02  1.250000000E+02  0.00000E+00  9.000E+00
      25     1     1     2     0     0  1.193172766E+02  2.081810428E+02  4.053332992E+02  4.873356569E+02  1.250000000E+02  0.00000E+00  9.000E+00
      21     1     1     2   511   501 -1.011041368E+01  2.758854579E+01 -2.608660835E+01  3.929197703E+01  9.536743164E-07  0.00000E+00  9.000E+00
#rwgt            1           1   3.2798043911881174E-002           7      297980           0
</event>
<event>
      5   9999  3.79277E-02  6.21852E+01 -1.00000E+00  1.33878E-01
      21    -1     0     0   512   501  0.000000000E+00  0.000000000E+00  1.194427832E+03  1.194427832E+03  0.000000000E+00  0.00000E+00  9.000E+00
      21    -1     0     0   501   502  0.000000000E+00  0.000000000E+00 -2.065881475E+02  2.065881475E+02  0.000000000E+00  0.00000E+00  9.000E+00
      25     1     1     2     0     0  6.250633930E+01 -3.436591459E+02  8.110455510E+02  8.918680041E+02  1.250000000E+02  0.00000E+00  9.000E+00
      25     1     1     2     0     0 -4.599707878E+00  3.663268175E+02  8.185120024E+01  3.956527688E+02  1.250000000E+02  0.00000E+00  9.000E+00
      21     1     1     2   512   502 -5.790663142E+01 -2.266767155E+01  9.494293286E+01  1.134952060E+02  2.697398305E-06  0.00000E+00  9.000E+00
#rwgt            1           1  0.14927243729530532                7      298089           0
</event>
<event>
      5   9999  3.79277E-02  6.74583E+01 -1.00000E+00  1.32039E-01
      21    -1     0     0   502   501  0.000000000E+00  0.000000000E+00  5.307291532E+01  5.307291532E+01  0.000000000E+00  0.00000E+00  9.000E+00
      21    -1     0     0   511   502  0.000000000E+00  0.000000000E+00 -2.330980357E+03  2.330980357E+03  0.000000000E+00  0.00000E+00  9.000E+00
      25     1     1     2     0     0  2.172638643E+02  3.920378158E+00 -3.239504526E+02  4.096191547E+02  1.250000000E+02  0.00000E+00  9.000E+00
      25     1     1     2     0     0 -1.579142676E+02  2.814583356E+01 -1.681414283E+03  1.693667055E+03  1.250000000E+02  0.00000E+00  9.000E+00
      21     1     1     2   511   501 -5.934959676E+01 -3.206621172E+01 -2.725427063E+02  2.807670624E+02  0.000000000E+00  0.00000E+00  9.000E+00
#rwgt            1           1   3.5886897270021902E-002           7      298251           0
</event>
<event>
      5   9999  3.79277E-02  1.45811E+01 -1.00000E+00  1.78550E-01
      21    -1     0     0   502   501  0.000000000E+00  0.000000000E+00  2.374402787E+02  2.374402787E+02  0.000000000E+00  0.00000E+00  9.000E+00
      21    -1     0     0   501   512  0.000000000E+00  0.000000000E+00 -2.780332968E+02  2.780332968E+02  0.000000000E+00  0.00000E+00  9.000E+00
      25     1     1     2     0     0 -1.909899070E+01 -1.159508398E+02 -1.986067995E+02  2.624481463E+02  1.250000000E+02  0.00000E+00  9.000E+00
      25     1     1     2     0     0  2.860010233E+01  1.048902555E+02  1.675344100E+02  2.356113539E+02  1.250000000E+02  0.00000E+00  9.000E+00
      21     1     1     2   502   512 -9.501111635E+00  1.106058432E+01 -9.520628583E+00  1.741407524E+01  0.000000000E+00  0.00000E+00  9.000E+00
#rwgt            1           1   2.3278851109410800E-002           7      298363           0
</event>
<event>
      5   9999  3.79277E-02  7.70546E+01 -1.00000E+00  1.29143E-01
      21    -1     0     0   502   501  0.000000000E+00  0.000000000E+00  2.433092801E+02  2.433092801E+02  0.000000000E+00  0.00000E+00  9.000E+00
      -2    -1     0     0     0   502  0.000000000E+00  0.000000000E+00 -1.278608886E+03  1.278608886E+03  0.000000000E+00  0.00000E+00  9.000E+00
      25     1     1     2     0     0  8.202546455E+01  1.293044352E+02  8.805330121E+01  2.163936174E+02  1.250000000E+02  0.00000E+00  9.000E+00
      25     1     1     2     0     0 -1.065886759E+02 -5.626977622E+01  5.804027089E+00  1.737415329E+02  1.250000000E+02  0.00000E+00  9.000E+00
      -2     1     1     2     0   501  2.456321132E+01 -7.303465893E+01 -1.129156934E+03  1.131783016E+03  2.157918644E-05  0.00000E+00  9.000E+00
#rwgt            1           1   3.5369067421966403E-002           7      298551           0
</event>
<event>
      5   9999  3.79277E-02  4.29871E+01 -1.00000E+00  1.42927E-01
      21    -1     0     0   502   501  0.000000000E+00  0.000000000E+00  5.770404771E+01  5.770404771E+01  0.000000000E+00  0.00000E+00  9.000E+00
       1    -1     0     0   501     0  0.000000000E+00  0.000000000E+00 -1.708230473E+03  1.708230473E+03  0.000000000E+00  0.00000E+00  9.000E+00
      25     1     1     2     0     0  9.108010366E+01  1.210374050E+02 -1.629375215E+02  2.551847852E+02  1.250000000E+02  0.00000E+00  9.000E+00
      25     1     1     2     0     0 -7.251169742E+01 -8.226746644E+01 -6.144407150E+02  6.365440083E+02  1.250000000E+02  0.00000E+00  9.000E+00
       1     1     1     2   502     0 -1.856840624E+01 -3.876993852E+01 -8.731481886E+02  8.742057270E+02  1.078959322E-05  0.00000E+00  9.000E+00
#rwgt            1           1   4.0562014582059464E-002           7      298649           0
</event>
<event>
      5   9999  3.79277E-02  2.02534E+01 -1.00000E+00  1.65919E-01
      21    -1     0     0   502   501  0.000000000E+00  0.000000000E+00  2.261784596E+02  2.261784596E+02  0.000000000E+00  0.00000E+00  9.000E+00
      21    -1     0     0   501   511  0.000000000E+00  0.000000000E+00 -1.846632510E+02  1.846632510E+02  0.000000000E+00  0.00000E+00  9.000E+00
      25     1     1     2     0     0 -9.319712861E+00  1.272299766E+02  1.036863294E+02  2.065191974E+02  1.250000000E+02  0.00000E+00  9.000E+00
      25     1     1     2     0     0 -4.727750697E+00 -1.126399150E+02 -3.759731437E+01  1.724779990E+02  1.250000000E+02  0.00000E+00  9.000E+00
      21     1     1     2   502   511  1.404746356E+01 -1.459006155E+01 -2.457380639E+01  3.184451427E+01  3.371747881E-07  0.00000E+00  9.000E+00
#rwgt            1           1   3.3894289740004378E-002           7      298764           0
</event>
<event>
      5   9999  3.79277E-02  9.04013E+00 -1.00000E+00  2.00964E-01
      21    -1     0     0   512   501  0.000000000E+00  0.000000000E+00  6.600611682E+01  6.600611682E+01  0.000000000E+00  0.00000E+00  9.000E+00
      21    -1     0     0   501   502  0.000000000E+00  0.000000000E+00 -6.415874199E+02  6.415874199E+02  0.000000000E+00  0.00000E+00  9.000E+00
      25     1     1     2     0     0 -1.336894710E+02 -1.336412947E+01 -2.249190708E+02  2.902844519E+02  1.250000000E+02  0.00000E+00  9.000E+00
      25     1     1     2     0     0  1.246871034E+02  1.418958625E+01 -3.618797920E+02  4.029022238E+02  1.250000000E+02  0.00000E+00  9.000E+00
      21     1     1     2   512   502  9.002367565E+00 -8.254567855E-01  1.121755965E+01  1.440686105E+01  3.371747881E-07  0.00000E+00  9.000E+00
#rwgt            1           1   3.8548243315962023E-002           7      298896           0
</event>
<event>
      5   9999  3.79277E-02  2.20093E+01 -1.00000E+00  1.63010E-01
      21    -1     0     0   502   501  0.000000000E+00  0.000000000E+00  7.031213296E+02  7.031213296E+02  0.000000000E+00  0.00000E+00  9.000E+00
      21    -1     0     0   501   511  0.000000000E+00  0.000000000E+00 -6.313742478E+01  6.313742478E+01  0.000000000E+00  0.00000E+00  9.000E+00
      25     1     1     2     0     0 -7.531551395E+01 -8.573494926E+01  3.107706021E+02  3.538732475E+02  1.250000000E+02  0.00000E+00  9.000E+00
      25     1     1     2     0     0  5.391304628E+01  8.060217485E+01  3.487503638E+02  3.829557982E+02  1.250000000E+02  0.00000E+00  9.000E+00
      21     1     1     2   502   511  2.140246767E+01  5.132774413E+00 -1.953706108E+01  2.942970865E+01  9.233911863E-07  0.00000E+00  9.000E+00
#rwgt            1           1   4.4408978272426944E-002           7      299186           0
</event>
<event>
      5   9999  3.79277E-02  7.35299E+01 -1.00000E+00  1.30148E-01
      21    -1     0     0   502   501  0.000000000E+00  0.000000000E+00  1.993192311E+02  1.993192311E+02  0.000000000E+00  0.00000E+00  9.000E+00
      21    -1     0     0   512   502  0.000000000E+00  0.000000000E+00 -8.712688535E+02  8.712688535E+02  0.000000000E+00  0.00000E+00  9.000E+00
      25     1     1     2     0     0  5.124458444E+01 -5.696239210E+00  1.200911431E+02  1.808461700E+02  1.250000000E+02  0.00000E+00  9.000E+00
      25     1     1     2     0     0 -1.051089745E+02  5.574888492E+01 -1.119834071E+02  2.057209716E+02  1.250000000E+02  0.00000E+00  9.000E+00
      21     1     1     2   512   501  5.386439007E+01 -5.005264571E+01 -6.800573583E+02  6.840209430E+02  7.629394531E-06  0.00000E+00  9.000E+00
#rwgt            1           1   5.2134949669560428E-002           7      299449           0
</event>
<event>
      5   9999  3.79277E-02  2.07987E+02 -1.00000E+00  1.11032E-01
       2    -1     0     0   502     0  0.000000000E+00  0.000000000E+00  4.896213720E+02  4.896213720E+02  0.000000000E+00  0.00000E+00  9.000E+00
      21    -1     0     0   501   502  0.000000000E+00  0.000000000E+00 -3.213429860E+02  3.213429860E+02  0.000000000E+00  0.00000E+00  9.000E+00
      25     1     1     2     0     0 -6.684827993E+01 -3.413171763E+01  4.511575951E+01  1.526240428E+02  1.250000000E+02  0.00000E+00  9.000E+00
      25     1     1     2     0     0  5.690509956E+01 -1.736175337E+02 -1.836778307E+02  2.876521925E+02  1.250000000E+02  0.00000E+00  9.000E+00
       2     1     1     2   501     0  9.943180377E+00  2.077492513E+02  3.068404572E+02  3.706881228E+02  6.607249480E-06  0.00000E+00  9.000E+00
#rwgt            1           1   2.9512831193967144E-002           7      299491           0
</event>
<event>
      5   9999  3.79277E-02  2.28004E+01 -1.00000E+00  1.61806E-01
      21    -1     0     0   511   501  0.000000000E+00  0.000000000E+00  2.491950494E+03  2.491950494E+03  0.000000000E+00  0.00000E+00  9.000E+00
      21    -1     0     0   501   502  0.000000000E+00  0.000000000E+00 -4.257628717E+01  4.257628717E+01  0.000000000E+00  0.00000E+00  9.000E+00
      25     1     1     2     0     0 -2.556741239E+01 -2.678753819E+01  2.042663642E+03  2.046819733E+03  1.250000000E+02  0.00000E+00  9.000E+00
      25     1     1     2     0     0  2.277365211E+01  4.158979954E+00  6.057258376E+01  1.408189414E+02  1.250000000E+02  0.00000E+00  9.000E+00
      21     1     1     2   511   502  2.793760283E+00  2.262855824E+01  3.461379818E+02  3.468881076E+02  5.394796609E-06  0.00000E+00  9.000E+00
#rwgt            1           1  0.15079822866221732                7      299520           0
</event>
<event>
      5   9999  3.79277E-02  9.61779E+00 -1.00000E+00  1.97734E-01
      21    -1     0     0   502   512  0.000000000E+00  0.000000000E+00  1.387883558E+03  1.387883558E+03  0.000000000E+00  0.00000E+00  9.000E+00
      21    -1     0     0   501   502  0.000000000E+00  0.000000000E+00 -1.440567375E+02  1.440567375E+02  0.000000000E+00  0.00000E+00  9.000E+00
      25     1     1     2     0     0  7.819717835E+01  1.635811089E+01 -7.290719248E+01  1.652962347E+02  1.250000000E+02  0.00000E+00  9.000E+00
      25     1     1     2     0     0 -8.092003037E+01 -7.133795790E+00  1.978901595E+02  2.477588698E+02  1.250000000E+02  0.00000E+00  9.000E+00
      21     1     1     2   501   512  2.722852019E+00 -9.224315097E+00  1.118843854E+03  1.118885191E+03  2.157918644E-05  0.00000E+00  9.000E+00
#rwgt            1           1   3.9176104701492680E-002           7      299772           0
</event>
<event>
      5   9999  3.79277E-02  8.18629E+01 -1.00000E+00  1.27867E-01
      21    -1     0     0   502   501  0.000000000E+00  0.000000000E+00  1.790622058E+02  1.790622058E+02  0.000000000E+00  0.00000E+00  9.000E+00
      21    -1     0     0   511   502  0.000000000E+00  0.000000000E+00 -3.713574691E+02  3.713574691E+02  0.000000000E+00  0.00000E+00  9.000E+00
      25     1     1     2     0     0 -3.523428009E+01  1.396760181E+02  8.607945600E+00  1.909186771E+02  1.250000000E+02  0.00000E+00  9.000E+00
      25     1     1     2     0     0 -4.006283782E+01 -1.717987980E+02 -1.425675318E+02  2.589794569E+02  1.250000000E+02  0.00000E+00  9.000E+00
      21     1     1     2   511   501  7.529711791E+01  3.212277991E+01 -5.833567722E+01  1.005215409E+02  1.168007728E-06  0.00000E+00  9.000E+00
#rwgt            1           1   3.0285175037200504E-002           7      300049           0
</event>
<event>
      5   9999  3.79277E-02  6.71901E+01 -1.00000E+00  1.32128E-01
      21    -1     0     0   502   501  0.000000000E+00  0.000000000E+00  1.759852964E+02  1.759852964E+02  0.000000000E+00  0.00000E+00  9.000E+00
      21    -1     0     0   512   502  0.000000000E+00  0.000000000E+00 -4.744177901E+02  4.744177901E+02  0.000000000E+00  0.00000E+00  9.000E+00
      25     1     1     2     0     0  3.824357430E+01  2.905375096E+01 -7.790978878E+01  1.549245836E+02  1.250000000E+02  0.00000E+00  9.000E+00
      25     1     1     2     0     0 -4.055971312E+01  3.809641523E+01  9.905234503E+01  1.689165304E+02  1.250000000E+02  0.00000E+00  9.000E+00
      21     1     1     2   512   501  2.316138828E+00 -6.715016619E+01 -3.195750500E+02  3.265619725E+02  3.814697266E-06  0.00000E+00  9.000E+00
#rwgt            1           1   4.3456506507219807E-002           7      300259           0
</event>
<event>
      5   9999  3.79277E-02  1.46698E+01 -1.00000E+00  1.78299E-01
      21    -1     0     0   511   501  0.000000000E+00  0.000000000E+00  1.480866693E+03  1.480866693E+03  0.000000000E+00  0.00000E+00  9.000E+00
      21    -1     0     0   501   502  0.000000000E+00  0.000000000E+00 -5.990787607E+01  5.990787607E+01  0.000000000E+00  0.00000E+00  9.000E+00
      25     1     1     2     0     0  2.446790309E+02  6.204376467E+00  5.575902337E+02  6.216415294E+02  1.250000000E+02  0.00000E+00  9.000E+00
      25     1     1     2     0     0 -2.419039620E+02 -2.060935051E+01  6.469657624E+02  7.022335579E+02  1.250000000E+02  0.00000E+00  9.000E+00
      21     1     1     2   511   502 -2.775068889E+00  1.440497405E+01  2.164028211E+02  2.168994819E+02  2.697398305E-06  0.00000E+00  9.000E+00
#rwgt            1           1   2.5366310809111531E-002           7      300378           0
</event>
<event>
      5   9999  3.79277E-02  2.06320E+01 -1.00000E+00  1.65262E-01
      21    -1     0     0   502   501  0.000000000E+00  0.000000000E+00  6.655525234E+01  6.655525234E+01  0.000000000E+00  0.00000E+00  9.000E+00
      21    -1     0     0   512   502  0.000000000E+00  0.000000000E+00 -1.263529252E+03  1.263529252E+03  0.000000000E+00  0.00000E+00  9.000E+00
      25     1     1     2     0     0 -6.882391647E+00  1.023048165E+02 -5.777339452E+02  5.999292910E+02  1.250000000E+02  0.00000E+00  9.000E+00
      25     1     1     2     0     0 -1.158468715E+00 -1.213054882E+02 -8.200791718E+01  1.925270423E+02  1.250000000E+02  0.00000E+00  9.000E+00
      21     1     1     2   512   501  8.040860362E+00  1.900067170E+01 -5.372321377E+02  5.376281715E+02  7.629394531E-06  0.00000E+00  9.000E+00
#rwgt            1           1   4.5257485140269102E-002           7      300637           0
</event>
<event>
      5   9999  3.79277E-02  5.16527E+01 -1.00000E+00  1.38274E-01
      21    -1     0     0   502   501  0.000000000E+00  0.000000000E+00  4.697561489E+02  4.697561489E+02  0.000000000E+00  0.00000E+00  9.000E+00
      21    -1     0     0   501   511  0.000000000E+00  0.000000000E+00 -2.097251112E+02  2.097251112E+02  0.000000000E+00  0.00000E+00  9.000E+00
      25     1     1     2     0     0  2.089170102E+02  9.730964893E+01  2.559377027E+02  3.663940401E+02  1.250000000E+02  0.00000E+00  9.000E+00
      25     1     1     2     0     0 -1.731660675E+02 -6.002860189E+01  6.695336898E+01  2.317275849E+02  1.250000000E+02  0.00000E+00  9.000E+00
      21     1     1     2   502   511 -3.575094273E+01 -3.728104704E+01 -6.286003394E+01  8.135963521E+01  0.000000000E+00  0.00000E+00  9.000E+00
#rwgt            1           1   3.3451262294717864E-002           7      300809           0
</event>
<event>
      5   9999  3.79277E-02  1.58144E+01 -1.00000E+00  1.75247E-01
      21    -1     0     0   502   501  0.000000000E+00  0.000000000E+00  1.849748721E+02  1.849748721E+02  0.000000000E+00  0.00000E+00  9.000E+00
      21    -1     0     0   501   512  0.000000000E+00  0.000000000E+00 -9.943951091E+02  9.943951091E+02  0.000000000E+00  0.00000E+00  9.000E+00
      25     1     1     2     0     0 -2.457600913E+02  9.648105320E+01 -7.169258317E+02  7.741539021E+02  1.250000000E+02  0.00000E+00  9.000E+00
      25     1     1     2     0     0  2.578713954E+02 -8.631189846E+01  1.200466057E+01  2.995271478E+02  1.250000000E+02  0.00000E+00  9.000E+00
      21     1     1     2   502   512 -1.211130411E+01 -1.016915474E+01 -1.044990659E+02  1.056889312E+02  2.336015456E-06  0.00000E+00  9.000E+00
#rwgt            2          11   9.0551033218886734E-004           7      300877           0
</event>
<event>
      5   9999  3.79277E-02  3.49515E+01 -1.00000E+00  1.48570E-01
      21    -1     0     0   511   501  0.000000000E+00  0.000000000E+00  3.710146732E+02  3.710146732E+02  0.000000000E+00  0.00000E+00  9.000E+00
      21    -1     0     0   501   502  0.000000000E+00  0.000000000E+00 -1.572351680E+02  1.572351680E+02  0.000000000E+00  0.00000E+00  9.000E+00
      25     1     1     2     0     0 -6.782069990E+00 -3.654495100E+01 -1.033609573E+02  1.664031773E+02  1.250000000E+02  0.00000E+00  9.000E+00
      25     1     1     2     0     0  4.087200521E+01  4.425743262E+01  2.416006628E+02  2.786128522E+02  1.250000000E+02  0.00000E+00  9.000E+00
      21     1     1     2   511   502 -3.408993522E+01 -7.712481623E+00  7.553979972E+01  8.323381162E+01  1.651812370E-06  0.00000E+00  9.000E+00
#rwgt            1           1   3.6964091066229700E-002           7      300897           0
</event>
<event>
      5   9999  3.79277E-02  7.13809E+01 -1.00000E+00  1.30792E-01
      21    -1     0     0   502   501  0.000000000E+00  0.000000000E+00  9.975579473E+02  9.975579473E+02  0.000000000E+00  0.00000E+00  9.000E+00
      21    -1     0     0   512   502  0.000000000E+00  0.000000000E+00 -2.625032848E+02  2.625032848E+02  0.000000000E+00  0.00000E+00  9.000E+00
      25     1     1     2     0     0 -3.839591278E+01  1.928162197E+01  8.264158068E+02  8.369194183E+02  1.250000000E+02  0.00000E+00  9.000E+00
      25     1     1     2     0     0  1.017488661E+02 -5.216993959E+01  1.150193313E+02  2.047656732E+02  1.250000000E+02  0.00000E+00  9.000E+00
      21     1     1     2   512   501 -6.335295330E+01  3.288831762E+01 -2.063804755E+02  2.183761407E+02  0.000000000E+00  0.00000E+00  9.000E+00
#rwgt            1           1   3.7587134139958532E-002           7      301057           0
</event>
<event>
      5   9999  3.79277E-02  9.91755E+00 -1.00000E+00  1.96174E-01
      21    -1     0     0   502   501  0.000000000E+00  0.000000000E+00  1.072391043E+02  1.072391043E+02  0.000000000E+00  0.00000E+00  9.000E+00
      21    -1     0     0   511   502  0.000000000E+00  0.000000000E+00 -3.521546184E+02  3.521546184E+02  0.000000000E+00  0.00000E+00  9.000E+00
      25     1     1     2     0     0 -8.576216121E+01 -1.425733162E+01 -2.897476029E+01  1.549934080E+02  1.250000000E+02  0.00000E+00  9.000E+00
      25     1     1     2     0     0  7.585465952E+01  1.381110016E+01 -7.836101757E+01  1.664635844E+02  1.250000000E+02  0.00000E+00  9.000E+00
      21     1     1     2   511   501  9.907501687E+00  4.462314599E-01 -1.375797363E+02  1.379367302E+02  1.907348633E-06  0.00000E+00  9.000E+00
#rwgt            1           1  0.25412243758814479                7      301117           0
</event>
<event>
      5   9999  3.79277E-02  2.75083E+01 -1.00000E+00  1.55702E-01
      21    -1     0     0   502   501  0.000000000E+00  0.000000000E+00  1.938888411E+02  1.938888411E+02  0.000000000E+00  0.00000E+00  9.000E+00
      21    -1     0     0   501   512  0.000000000E+00  0.000000000E+00 -3.780733595E+02  3.780733595E+02  0.000000000E+00  0.00000E+00  9.000E+00
      25     1     1     2     0     0  1.045254419E+02 -1.489282752E+02  5.229181620E+01  2.268581786E+02  1.250000000E+02  0.00000E+00  9.000E+00
      25     1     1     2     0     0 -1.279642549E+02  1.345293241E+02 -2.094590469E+02  3.065470305E+02  1.250000000E+02  0.00000E+00  9.000E+00
      21     1     1     2   502   512  2.343881305E+01  1.439895114E+01 -2.701728777E+01  3.855699145E+01  4.768371582E-07  0.00000E+00  9.000E+00
#rwgt            1           1   3.7047194553300293E-002           7      301347           0
</event>
<event>
      5   9999  3.79277E-02  4.84092E+01 -1.00000E+00  1.39881E-01
      21    -1     0     0   502   501  0.000000000E+00  0.000000000E+00  1.759183224E+02  1.759183224E+02  0.000000000E+00  0.00000E+00  9.000E+00
      21    -1     0     0   511   502  0.000000000E+00  0.000000000E+00 -1.385349170E+03  1.385349170E+03  0.000000000E+00  0.00000E+00  9.000E+00
      25     1     1     2     0     0  1.813455937E+00 -4.760216410E+01  8.231944267E+01  1.570692373E+02  1.250000000E+02  0.00000E+00  9.000E+00
      25     1     1     2     0     0 -1.918519613E+01  9.278704252E+01 -5.457330990E+01  1.660745410E+02  1.250000000E+02  0.00000E+00  9.000E+00
      21     1     1     2   511   501  1.737174020E+01 -4.518487842E+01 -1.237176980E+03  1.238123714E+03  1.525878906E-05  0.00000E+00  9.000E+00
#rwgt            1           1   4.3457919809508569E-002           7      301600           0
</event>
<event>
      5   9999  3.79277E-02  1.70980E+01 -1.00000E+00  1.72190E-01
      21    -1     0     0   502   501  0.000000000E+00  0.000000000E+00  2.694521151E+02  2.694521151E+02  0.000000000E+00  0.00000E+00  9.000E+00
      21    -1     0     0   501   512  0.000000000E+00  0.000000000E+00 -3.314170912E+02  3.314170912E+02  0.000000000E+00  0.00000E+00  9.000E+00
      25     1     1     2     0     0 -6.481823799E+01 -1.549376861E+02 -1.395551336E+02  2.516102658E+02  1.250000000E+02  0.00000E+00  9.000E+00
      25     1     1     2     0     0  7.320990723E+01  1.400406837E+02  1.648561664E+02  2.603337074E+02  1.250000000E+02  0.00000E+00  9.000E+00
      21     1     1     2   502   512 -8.391669238E+00  1.489700232E+01 -8.726600882E+01  8.892523313E+01  1.348699152E-06  0.00000E+00  9.000E+00
#rwgt            1           1   3.8659453895863061E-002           7      301665           0
</event>
<event>
      5   9999  3.79277E-02  1.10033E+01 -1.00000E+00  1.91077E-01
      21    -1     0     0   511   501  0.000000000E+00  0.000000000E+00  2.846315996E+02  2.846315996E+02  0.000000000E+00  0.00000E+00  9.000E+00
      21    -1     0     0   501   502  0.000000000E+00  0.000000000E+00 -1.355012509E+02  1.355012509E+02  0.000000000E+00  0.00000E+00  9.000E+00
      25     1     1     2     0     0 -1.130231213E+02 -1.040338688E+01  1.412411094E+01  1.694312454E+02  1.250000000E+02  0.00000E+00  9.000E+00
      25     1     1     2     0     0  1.239912977E+02  9.525390516E+00  7.827979587E+01  1.929178618E+02  1.250000000E+02  0.00000E+00  9.000E+00
      21     1     1     2   511   502 -1.096817639E+01  8.779963604E-01  5.672644193E+01  5.778374326E+01  0.000000000E+00  0.00000E+00  9.000E+00
#rwgt            1           1   3.4427508267882739E-002           7      301896           0
</event>
<event>
      5   9999  3.79277E-02  1.18145E+01 -1.00000E+00  1.87742E-01
      21    -1     0     0   512   501  0.000000000E+00  0.000000000E+00  7.050905851E+01  7.050905851E+01  0.000000000E+00  0.00000E+00  9.000E+00
      21    -1     0     0   501   502  0.000000000E+00  0.000000000E+00 -9.063230525E+02  9.063230525E+02  0.000000000E+00  0.00000E+00  9.000E+00
      25     1     1     2     0     0 -3.979501507E+01 -1.248688907E+02 -3.195173871E+02  3.672767945E+02  1.250000000E+02  0.00000E+00  9.000E+00
      25     1     1     2     0     0  2.900382166E+01  1.296785225E+02 -5.470192951E+02  5.766392721E+02  1.250000000E+02  0.00000E+00  9.000E+00
      21     1     1     2   512   502  1.079119342E+01 -4.809631832E+00  3.072268821E+01  3.291604448E+01  3.371747881E-07  0.00000E+00  9.000E+00
#rwgt            1           1   3.9461507349566792E-002           7      302094           0
</event>
<event>
      5   9999  3.79277E-02  2.32533E+01 -1.00000E+00  1.61144E-01
       2    -1     0     0   502     0  0.000000000E+00  0.000000000E+00  2.079748983E+02  2.079748983E+02  0.000000000E+00  0.00000E+00  9.000E+00
      21    -1     0     0   501   502  0.000000000E+00  0.000000000E+00 -4.124140136E+02  4.124140136E+02  0.000000000E+00  0.00000E+00  9.000E+00
      25     1     1     2     0     0 -1.294228245E+02 -5.694684003E+01  2.619729901E+01  1.905374204E+02  1.250000000E+02  0.00000E+00  9.000E+00
      25     1     1     2     0     0  1.406384391E+02  7.731655188E+01 -2.967423759E+02  3.597750094E+02  1.250000000E+02  0.00000E+00  9.000E+00
       2     1     1     2   501     0 -1.121561463E+01 -2.036971185E+01  6.610596159E+01  7.007648201E+01  9.536743164E-07  0.00000E+00  9.000E+00
#rwgt            1           1   3.1646228500449555E-002           7      302427           0
</event>
<event>
      5   9999  3.79277E-02  4.99139E+01 -1.00000E+00  1.39118E-01
      21    -1     0     0   502   501  0.000000000E+00  0.000000000E+00  6.763393190E+02  6.763393190E+02  0.000000000E+00  0.00000E+00  9.000E+00
      21    -1     0     0   501   511  0.000000000E+00  0.000000000E+00 -3.018358038E+02  3.018358038E+02  0.000000000E+00  0.00000E+00  9.000E+00
      25     1     1     2     0     0 -1.167477544E+02 -7.207530973E+01  4.685834501E+02  5.040043037E+02  1.250000000E+02  0.00000E+00  9.000E+00
      25     1     1     2     0     0  1.509327404E+02  1.084454299E+02  1.201731334E+02  2.541804189E+02  1.250000000E+02  0.00000E+00  9.000E+00
      21     1     1     2   502   511 -3.418498600E+01 -3.637012020E+01 -2.142530682E+02  2.199904001E+02  2.697398305E-06  0.00000E+00  9.000E+00
#rwgt            1           1   3.3142282934493943E-002           7      302628           0
</event>
<event>
      5   9999  3.79277E-02  3.07162E+01 -1.00000E+00  1.52332E-01
      21    -1     0     0   502   501  0.000000000E+00  0.000000000E+00  3.691298055E+02  3.691298055E+02  0.000000000E+00  0.00000E+00  9.000E+00
      21    -1     0     0   512   502  0.000000000E+00  0.000000000E+00 -1.059833643E+02  1.059833643E+02  0.000000000E+00  0.00000E+00  9.000E+00
      25     1     1     2     0     0 -7.428157496E+01 -1.528083400E+00  1.926601420E+01  1.466842416E+02  1.250000000E+02  0.00000E+00  9.000E+00
      25     1     1     2     0     0  5.988224637E+01  2.866002940E+01  2.582700505E+02  2.945092523E+02  1.250000000E+02  0.00000E+00  9.000E+00
      21     1     1     2   512   501  1.439932859E+01 -2.713194600E+01 -1.438962349E+01  3.391967603E+01  1.685873940E-07  0.00000E+00  9.000E+00
#rwgt            1           1   4.8760574321922677E-002           7      302736           0
</event>
<event>
      5   9999  3.79277E-02  1.55396E+01 -1.00000E+00  1.75950E-01
      21    -1     0     0   502   501  0.000000000E+00  0.000000000E+00  1.555920435E+03  1.555920435E+03  0.000000000E+00  0.00000E+00  9.000E+00
      21    -1     0     0   511   502  0.000000000E+00  0.000000000E+00 -5.725533772E+01  5.725533772E+01  0.000000000E+00  0.00000E+00  9.000E+00
      25     1     1     2     0     0  6.710655225E+01  4.854014967E+01  1.083907232E+02  1.850215781E+02  1.250000000E+02  0.00000E+00  9.000E+00
      25     1     1     2     0     0 -7.101880897E+01 -6.357921258E+01  1.400666424E+03  1.409459975E+03  1.250000000E+02  0.00000E+00  9.000E+00
      21     1     1     2   511   501  3.912256726E+00  1.503906292E+01 -1.039205010E+01  1.869422027E+01  7.996802250E-07  0.00000E+00  9.000E+00
#rwgt            1           1   5.6820879453205679E-002           7      302852           0
</event>
<event>
      5   9999  3.79277E-02  3.65340E+01 -1.00000E+00  1.47324E-01
      21    -1     0     0   502   501  0.000000000E+00  0.000000000E+00  5.020568511E+02  5.020568511E+02  0.000000000E+00  0.00000E+00  9.000E+00
       3    -1     0     0   501     0  0.000000000E+00  0.000000000E+00 -7.872880697E+02  7.872880697E+02  0.000000000E+00  0.00000E+00  9.000E+00
      25     1     1     2     0     0  6.903950306E+01 -2.170551875E+02  2.428852960E+02  3.556651155E+02  1.250000000E+02  0.00000E+00  9.000E+00
      25     1     1     2     0     0 -3.287098124E+01  2.222096864E+02  1.205904491E+02  2.839448935E+02  1.250000000E+02  0.00000E+00  9.000E+00
       3     1     1     2   502     0 -3.616852182E+01 -5.154498901E+00 -6.487069637E+02  6.497349118E+02  7.629394531E-06  0.00000E+00  9.000E+00
#rwgt            1           1   4.5279518527670946E-002           7      303262           0
</event>
<event>
      5   9999  3.79277E-02  5.95093E+01 -1.00000E+00  1.34894E-01
      21    -1     0     0   502   501  0.000000000E+00  0.000000000E+00  9.626570437E+02  9.626570437E+02  0.000000000E+00  0.00000E+00  9.000E+00
      21    -1     0     0   501   511  0.000000000E+00  0.000000000E+00 -2.030314704E+02  2.030314704E+02  0.000000000E+00  0.00000E+00  9.000E+00
      25     1     1     2     0     0  3.539988542E+02  5.871424116E+01  2.627567001E+02  4.619833702E+02  1.250000000E+02  0.00000E+00  9.000E+00
      25     1     1     2     0     0 -3.395117837E+02 -1.164332024E+02  5.162989590E+02  6.411041701E+02  1.250000000E+02  0.00000E+00  9.000E+00
      21     1     1     2   502   511 -1.448707045E+01  5.771896122E+01 -1.943008572E+01  6.260097384E+01  1.092571186E-06  0.00000E+00  9.000E+00
#rwgt            1           1   4.4880111412576008E-002           7      303508           0
</event>
<event>
      5   9999  3.79277E-02  1.11660E+01 -1.00000E+00  1.90378E-01
      21    -1     0     0   502   512  0.000000000E+00  0.000000000E+00  1.297280465E+02  1.297280465E+02  0.000000000E+00  0.00000E+00  9.000E+00
      21    -1     0     0   501   502  0.000000000E+00  0.000000000E+00 -6.343380550E+02  6.343380550E+02  0.000000000E+00  0.00000E+00  9.000E+00
      25     1     1     2     0     0  1.800966420E+02 -1.102427728E+02 -3.854923521E+02  4.569656693E+02  1.250000000E+02  0.00000E+00  9.000E+00
      25     1     1     2     0     0 -1.855311568E+02  1.199970113E+02 -1.351241361E+02  2.875841182E+02  1.250000000E+02  0.00000E+00  9.000E+00
      21     1     1     2   501   512  5.434514808E+00 -9.754238574E+00  1.600647964E+01  1.951631399E+01  4.768371582E-07  0.00000E+00  9.000E+00
#rwgt            1           1   8.3849319604550804E-002           7      303636           0
</event>
<event>
      5   9999  3.79277E-02  5.60432E+01 -1.00000E+00  1.36306E-01
      21    -1     0     0   502   501  0.000000000E+00  0.000000000E+00  5.855065336E+01  5.855065336E+01  0.000000000E+00  0.00000E+00  9.000E+00
       1    -1     0     0   501     0  0.000000000E+00  0.000000000E+00 -8.371268929E+02  8.371268929E+02  0.000000000E+00  0.00000E+00  9.000E+00
      25     1     1     2     0     0 -4.624324677E+01 -1.041417776E+02 -2.764124961E+02  3.240568093E+02  1.250000000E+02  0.00000E+00  9.000E+00
      25     1     1     2     0     0  9.733393208E+01  8.110736822E+01 -2.153341025E+02  2.793672766E+02  1.250000000E+02  0.00000E+00  9.000E+00
       1     1     1     2   502     0 -5.109068531E+01  2.303440937E+01 -2.868296409E+02  2.922534603E+02  5.394796609E-06  0.00000E+00  9.000E+00
#rwgt            1           1   3.6665053617423525E-002           7      303941           0
</event>
<event>
      5   9999  3.79277E-02  1.96973E+02 -1.00000E+00  1.11890E-01
      21    -1     0     0   511   501  0.000000000E+00  0.000000000E+00  5.888682062E+02  5.888682062E+02  0.000000000E+00  0.00000E+00  9.000E+00
      21    -1     0     0   501   502  0.000000000E+00  0.000000000E+00 -5.156367729E+02  5.156367729E+02  0.000000000E+00  0.00000E+00  9.000E+00
      25     1     1     2     0     0 -5.980315967E+01  3.686520196E+02  9.535001268E+01  4.052127273E+02  1.250000000E+02  0.00000E+00  9.000E+00
      25     1     1     2     0     0  7.776523458E+01 -1.724992374E+02 -2.891499291E+02  3.674725842E+02  1.250000000E+02  0.00000E+00  9.000E+00
      21     1     1     2   511   502 -1.796207490E+01 -1.961527821E+02  2.670313497E+02  3.318196676E+02  5.394796609E-06  0.00000E+00  9.000E+00
#rwgt            2          11   1.7194043883574260E-003           7      304064           0
</event>
<event>
      5   9999  3.79277E-02  3.37266E+01 -1.00000E+00  1.49590E-01
      21    -1     0     0   502   501  0.000000000E+00  0.000000000E+00  2.083067266E+02  2.083067266E+02  0.000000000E+00  0.00000E+00  9.000E+00
       2    -1     0     0   501     0  0.000000000E+00  0.000000000E+00 -2.692437628E+03  2.692437628E+03  0.000000000E+00  0.00000E+00  9.000E+00
      25     1     1     2     0     0  8.436982831E+01 -4.970492584E+01 -1.010849148E+02  1.882339172E+02  1.250000000E+02  0.00000E+00  9.000E+00
      25     1     1     2     0     0 -5.405664838E+01  3.492003731E+01  1.346007267E+02  1.946378326E+02  1.250000000E+02  0.00000E+00  9.000E+00
       2     1     1     2   502     0 -3.031317993E+01  1.478488853E+01 -2.517646714E+03  2.517872605E+03  4.315837288E-05  0.00000E+00  9.000E+00
#rwgt            1           1   4.4830057555122677E-002           7      304129           0
</event>
<event>
      5   9999  3.79277E-02  2.23681E+01 -1.00000E+00  1.62457E-01
      21    -1     0     0   502   511  0.000000000E+00  0.000000000E+00  3.810096368E+01  3.810096368E+01  0.000000000E+00  0.00000E+00  9.000E+00
      21    -1     0     0   501   502  0.000000000E+00  0.000000000E+00 -7.523458781E+02  7.523458781E+02  0.000000000E+00  0.00000E+00  9.000E+00
      25     1     1     2     0     0  4.485880511E+01 -4.028283410E+01 -1.583351521E+02  2.105470007E+02  1.250000000E+02  0.00000E+00  9.000E+00
      25     1     1     2     0     0 -4.496692950E+01  1.791497437E+01 -5.243807596E+02  5.412422305E+02  1.250000000E+02  0.00000E+00  9.000E+00
      21     1     1     2   501   511  1.081243895E-01  2.236785973E+01 -3.152900269E+01  3.865761051E+01  5.840038640E-07  0.00000E+00  9.000E+00
#rwgt            1           1   4.4133763164692183E-002           7      304357           0
</event>
<event>
      5   9999  3.79277E-02  1.47821E+01 -1.00000E+00  1.77984E-01
      21    -1     0     0   502   501  0.000000000E+00  0.000000000E+00  1.620221887E+02  1.620221887E+02  0.000000000E+00  0.00000E+00  9.000E+00
      21    -1     0     0   501   512  0.000000000E+00  0.000000000E+00 -3.382809781E+02  3.382809781E+02  0.000000000E+00  0.00000E+00  9.000E+00
      25     1     1     2     0     0  1.028802442E+02  5.032621840E+01 -2.130503021E+02  2.722728487E+02  1.250000000E+02  0.00000E+00  9.000E+00
      25     1     1     2     0     0 -1.101307687E+02 -3.744440199E+01  7.542333066E+01  1.866669447E+02  1.250000000E+02  0.00000E+00  9.000E+00
      21     1     1     2   502   512  7.250524453E+00 -1.288181641E+01 -3.863181790E+01  4.136337333E+01  9.536743164E-07  0.00000E+00  9.000E+00
#rwgt            1           1   3.0692463861253811E-002           7      304656           0
</event>
<event>
      5   9999  3.79277E-02  6.22085E+01 -1.00000E+00  1.33870E-01
      21    -1     0     0   502   501  0.000000000E+00  0.000000000E+00  2.097841607E+02  2.097841607E+02  0.000000000E+00  0.00000E+00  9.000E+00
      21    -1     0     0   501   511  0.000000000E+00  0.000000000E+00 -4.414085656E+02  4.414085656E+02  0.000000000E+00  0.00000E+00  9.000E+00
      25     1     1     2     0     0  6.454931949E+01  2.005472255E+02  3.276067561E+01  2.471519091E+02  1.250000000E+02  0.00000E+00  9.000E+00
      25     1     1     2     0     0 -3.225679736E+01 -1.473768503E+02 -8.389071561E+01  2.131269320E+02  1.250000000E+02  0.00000E+00  9.000E+00
      21     1     1     2   502   511 -3.229252214E+01 -5.317037522E+01 -1.804943649E+02  1.909138851E+02  2.697398305E-06  0.00000E+00  9.000E+00
#rwgt            1           1   3.0297434011247123E-002           7      304890           0
</event>
<event>
      5   9999  3.79277E-02  5.62107E+01 -1.00000E+00  1.36235E-01
      21    -1     0     0   512   501  0.000000000E+00  0.000000000E+00  3.946003653E+02  3.946003653E+02  0.000000000E+00  0.00000E+00  9.000E+00
      21    -1     0     0   501   502  0.000000000E+00  0.000000000E+00 -1.411090330E+02  1.411090330E+02  0.000000000E+00  0.00000E+00  9.000E+00
      25     1     1     2     0     0  1.695324890E+01  3.467880393E+01 -8.028838179E+01  1.534967633E+02  1.250000000E+02  0.00000E+00  9.000E+00
      25     1     1     2     0     0 -6.816064428E-03  1.891655448E+01  1.940375243E+02  2.315888532E+02  1.250000000E+02  0.00000E+00  9.000E+00
      21     1     1     2   512   502 -1.694643283E+01 -5.359535841E+01  1.397421898E+02  1.506237818E+02  1.907348633E-06  0.00000E+00  9.000E+00
#rwgt            1           1   5.4669331779106892E-002           7      304983           0
</event>
<event>
      5   9999  3.79277E-02  3.90789E+01 -1.00000E+00  1.45470E-01
      21    -1     0     0   502   511  0.000000000E+00  0.000000000E+00  1.780309119E+02  1.780309119E+02  0.000000000E+00  0.00000E+00  9.000E+00
      21    -1     0     0   501   502  0.000000000E+00  0.000000000E+00 -7.909088889E+02  7.909088889E+02  0.000000000E+00  0.00000E+00  9.000E+00
      25     1     1     2     0     0 -1.585938802E+02 -2.268991408E+02 -4.799562817E+02  5.679949570E+02  1.250000000E+02  0.00000E+00  9.000E+00
      25     1     1     2     0     0  1.906089024E+02  2.493089720E+02 -1.082298996E+02  3.547188018E+02  1.250000000E+02  0.00000E+00  9.000E+00
      21     1     1     2   501   511 -3.201502216E+01 -2.240983129E+01 -2.469179568E+01  4.622604197E+01  5.840038640E-07  0.00000E+00  9.000E+00
#rwgt            1           1   5.8639967021008009E-002           7      305091           0
</event>
<event>
      5   9999  3.79277E-02  7.66820E+00 -1.00000E+00  2.10105E-01
      21    -1     0     0   512   501  0.000000000E+00  0.000000000E+00  3.987671980E+02  3.987671980E+02  0.000000000E+00  0.00000E+00  9.000E+00
      21    -1     0     0   501   502  0.000000000E+00  0.000000000E+00 -1.614383332E+02  1.614383332E+02  0.000000000E+00  0.00000E+00  9.000E+00
      25     1     1     2     0     0 -6.933582629E+01 -9.700008523E+01  2.097897837E+02  2.717595016E+02  1.250000000E+02  0.00000E+00  9.000E+00
      25     1     1     2     0     0  7.164031525E+01  8.968635973E+01 -7.505581900E+01  1.855649586E+02  1.250000000E+02  0.00000E+00  9.000E+00
      21     1     1     2   512   502 -2.304488956E+00  7.313725503E+00  1.025949001E+02  1.028810710E+02  1.907348633E-06  0.00000E+00  9.000E+00
#rwgt            1           1   3.1448432142157104E-002           7      305217           0
</event>
<event>
      5   9999  3.79277E-02  1.36827E+01 -1.00000E+00  1.81229E-01
      21    -1     0     0   502   501  0.000000000E+00  0.000000000E+00  3.481831704E+02  3.481831704E+02  0.000000000E+00  0.00000E+00  9.000E+00
      21    -1     0     0   501   511  0.000000000E+00  0.000000000E+00 -4.165625644E+02  4.165625644E+02  0.000000000E+00  0.00000E+00  9.000E+00
      25     1     1     2     0     0  1.293895368E+01 -1.181369026E+01  2.708870036E+02  2.988507128E+02  1.250000000E+02  0.00000E+00  9.000E+00
      25     1     1     2     0     0 -1.099875409E+01  2.535808884E+01 -1.679107193E+00  1.280305614E+02  1.250000000E+02  0.00000E+00  9.000E+00
      21     1     1     2   502   511 -1.940199592E+00 -1.354439858E+01 -3.375872904E+02  3.378644606E+02  0.000000000E+00  0.00000E+00  9.000E+00
#rwgt            1           1   5.6984716174732199E-002           7      305427           0
</event>
<event>
      5   9999  3.79277E-02  9.30351E+01 -1.00000E+00  1.25255E-01
      21    -1     0     0   502   501  0.000000000E+00  0.000000000E+00  3.146746935E+02  3.146746935E+02  0.000000000E+00  0.00000E+00  9.000E+00
      21    -1     0     0   512   502  0.000000000E+00  0.000000000E+00 -6.159955708E+02  6.159955708E+02  0.000000000E+00  0.00000E+00  9.000E+00
      25     1     1     2     0     0  8.785922232E+01  1.159290921E+02  2.001631618E+02  2.772166818E+02  1.250000000E+02  0.00000E+00  9.000E+00
      25     1     1     2     0     0 -9.666024246E+01 -2.331122312E+01 -1.758098359E+01  1.606882279E+02  1.250000000E+02  0.00000E+00  9.000E+00
      21     1     1     2   512   501  8.801020136E+00 -9.261786893E+01 -4.839030555E+02  4.927653547E+02  7.629394531E-06  0.00000E+00  9.000E+00
#rwgt            1           1   4.1478552907588444E-002           7      305828           0
</event>
<event>
      5   9999  3.79277E-02  1.77787E+02 -1.00000E+00  1.13542E-01
      21    -1     0     0   502   511  0.000000000E+00  0.000000000E+00  6.951206444E+02  6.951206444E+02  0.000000000E+00  0.00000E+00  9.000E+00
      21    -1     0     0   501   502  0.000000000E+00  0.000000000E+00 -1.001457649E+03  1.001457649E+03  0.000000000E+00  0.00000E+00  9.000E+00
      25     1     1     2     0     0  3.346873701E+02  1.483190645E+02 -3.473514645E+02  5.198963555E+02  1.250000000E+02  0.00000E+00  9.000E+00
      25     1     1     2     0     0 -4.197135131E+02  7.818355039E+00 -4.659208206E+02  6.394746053E+02  1.250000000E+02  0.00000E+00  9.000E+00
      21     1     1     2   501   511  8.502614304E+01 -1.561374196E+02  5.069352809E+02  5.372073322E+02  1.206313194E-05  0.00000E+00  9.000E+00
#rwgt            1           1   2.1803388877625059E-002           7      305942           0
</event>
<event>
      5   9999  3.79277E-02  2.20470E+01 -1.00000E+00  1.62951E-01
       1    -1     0     0   502     0  0.000000000E+00  0.000000000E+00  1.099670424E+03  1.099670424E+03  0.000000000E+00  0.00000E+00  9.000E+00
      21    -1     0     0   501   502  0.000000000E+00  0.000000000E+00 -1.523649051E+02  1.523649051E+02  0.000000000E+00  0.00000E+00  9.000E+00
      25     1     1     2     0     0  5.919098174E+01 -2.230408124E+02  7.807360162E+01  2.738088084E+02  1.250000000E+02  0.00000E+00  9.000E+00
      25     1     1     2     0     0 -7.290677604E+01  2.057796672E+02  2.370377378E+02  3.456480270E+02  1.250000000E+02  0.00000E+00  9.000E+00
       1     1     1     2   501     0  1.371579430E+01  1.726114519E+01  6.321941791E+02  6.325784933E+02  0.000000000E+00  0.00000E+00  9.000E+00
#rwgt            1           1   3.9059980274265452E-002           7      305999           0
</event>
<event>
      5   9999  3.79277E-02  9.69651E+01 -1.00000E+00  1.24433E-01
      21    -1     0     0   502   501  0.000000000E+00  0.000000000E+00  2.732518802E+03  2.732518802E+03  0.000000000E+00  0.00000E+00  9.000E+00
      21    -1     0     0   501   511  0.000000000E+00  0.000000000E+00 -7.925963618E+01  7.925963618E+01  0.000000000E+00  0.00000E+00  9.000E+00
      25     1     1     2     0     0  1.219446325E+02  3.493491964E+02  1.584927349E+03  1.632340361E+03  1.250000000E+02  0.00000E+00  9.000E+00
      25     1     1     2     0     0 -1.931584364E+02 -2.835402302E+02  9.886759652E+02  1.053949908E+03  1.250000000E+02  0.00000E+00  9.000E+00
      21     1     1     2   502   511  7.121380383E+01 -6.580896617E+01  7.965585206E+01  1.254881694E+02  4.370284743E-06  0.00000E+00  9.000E+00
#rwgt            1           1  0.84086467970935164                7      306166           0
</event>
<event>
      5   9999  3.79277E-02  6.33530E+01 -1.00000E+00  1.33453E-01
      21    -1     0     0   502   501  0.000000000E+00  0.000000000E+00  3.176447092E+03  3.176447092E+03  0.000000000E+00  0.00000E+00  9.000E+00
      21    -1     0     0   501   512  0.000000000E+00  0.000000000E+00 -2.864340340E+01  2.864340340E+01  0.000000000E+00  0.00000E+00  9.000E+00
      25     1     1     2     0     0  3.796956253E+00  9.391346125E+01  3.998499044E+02  4.293472967E+02  1.250000000E+02  0.00000E+00  9.000E+00
      25     1     1     2     0     0 -1.797524885E+01 -3.216740792E+01  2.678758081E+03  2.681926119E+03  1.250000000E+02  0.00000E+00  9.000E+00
      21     1     1     2   502   512  1.417829260E+01 -6.174605332E+01  6.919570285E+01  9.381707934E+01  2.523185073E-06  0.00000E+00  9.000E+00
#rwgt            1           1   3.4026940682507070E-002           7      306299           0
</event>
<event>
      5   9999  3.79277E-02  2.94122E+01 -1.00000E+00  1.53639E-01
      21    -1     0     0   502   511  0.000000000E+00  0.000000000E+00  3.632558885E+02  3.632558885E+02  0.000000000E+00  0.00000E+00  9.000E+00
      21    -1     0     0   501   502  0.000000000E+00  0.000000000E+00 -2.571960323E+02  2.571960323E+02  0.000000000E+00  0.00000E+00  9.000E+00
      25     1     1     2     0     0  7.598761876E+01 -9.592640842E+01 -9.335957628E+00  1.751803475E+02  1.250000000E+02  0.00000E+00  9.000E+00
      25     1     1     2     0     0 -7.282243967E+01  6.668497978E+01 -1.253716891E+02  2.027142192E+02  1.250000000E+02  0.00000E+00  9.000E+00
      21     1     1     2   501   511 -3.165179093E+00  2.924142864E+01  2.407675029E+02  2.425573540E+02  2.697398305E-06  0.00000E+00  9.000E+00
#rwgt            1           1   3.6799148089130394E-002           7      306428           0
</event>
<event>
      5   9999  3.79277E-02  2.96078E+01 -1.00000E+00  1.53438E-01
      21    -1     0     0   502   501  0.000000000E+00  0.000000000E+00  4.565665581E+01  4.565665581E+01  0.000000000E+00  0.00000E+00  9.000E+00
      -1    -1     0     0     0   502  0.000000000E+00  0.000000000E+00 -1.112916439E+03  1.112916439E+03  0.000000000E+00  0.00000E+00  9.000E+00
      25     1     1     2     0     0 -1.024166614E+02  7.861941934E+01 -2.022562393E+02  2.705601079E+02  1.250000000E+02  0.00000E+00  9.000E+00
      25     1     1     2     0     0  1.055796414E+02 -4.918102150E+01 -7.167693472E+02  7.368508198E+02  1.250000000E+02  0.00000E+00  9.000E+00
      -1     1     1     2     0   501 -3.162980046E+00 -2.943839784E+01 -1.482341970E+02  1.511621675E+02  2.697398305E-06  0.00000E+00  9.000E+00
#rwgt            1           1   1.9551969450907331E-002           7      306603           0
</event>
<event>
      5   9999  3.79277E-02  7.12386E+01 -1.00000E+00  1.30836E-01
      21    -1     0     0   502   501  0.000000000E+00  0.000000000E+00  6.570020567E+02  6.570020567E+02  0.000000000E+00  0.00000E+00  9.000E+00
      21    -1     0     0   511   502  0.000000000E+00  0.000000000E+00 -2.197050199E+02  2.197050199E+02  0.000000000E+00  0.00000E+00  9.000E+00
      25     1     1     2     0     0  1.437980750E+02  2.333056748E+02  1.586257123E+02  3.404358102E+02  1.250000000E+02  0.00000E+00  9.000E+00
      25     1     1     2     0     0 -1.340128138E+02 -3.038690013E+02  2.969674451E+02  4.627207232E+02  1.250000000E+02  0.00000E+00  9.000E+00
      21     1     1     2   511   501 -9.785261160E+00  7.056332645E+01 -1.829612052E+01  7.355054318E+01  1.526623782E-06  0.00000E+00  9.000E+00
#rwgt            1           1  0.19777305026287029                7      306787           0
</event>
<event>
      5   9999  3.79277E-02  2.39277E+01 -1.00000E+00  1.60190E-01
      21    -1     0     0   502   501  0.000000000E+00  0.000000000E+00  3.966372477E+02  3.966372477E+02  0.000000000E+00  0.00000E+00  9.000E+00
       1    -1     0     0   501     0  0.000000000E+00  0.000000000E+00 -4.429956593E+02  4.429956593E+02  0.000000000E+00  0.00000E+00  9.000E+00
      25     1     1     2     0     0  1.081046084E+02  5.922113087E+01  1.329474766E+01  1.760553862E+02  1.250000000E+02  0.00000E+00  9.000E+00
      25     1     1     2     0     0 -8.870906304E+01 -7.323345846E+01  2.776131391E+02  3.254635038E+02  1.250000000E+02  0.00000E+00  9.000E+00
       1     1     1     2   502     0 -1.939554533E+01  1.401232759E+01 -3.372662984E+02  3.381140171E+02  5.394796609E-06  0.00000E+00  9.000E+00
#rwgt            2          12   2.5070820116653480E-004           7      306925           0
</event>
<event>
      5   9999  3.79277E-02  1.07592E+02 -1.00000E+00  1.22415E-01
      21    -1     0     0   502   511  0.000000000E+00  0.000000000E+00  1.572218724E+02  1.572218724E+02  0.000000000E+00  0.00000E+00  9.000E+00
      21    -1     0     0   501   502  0.000000000E+00  0.000000000E+00 -6.882939133E+02  6.882939133E+02  0.000000000E+00  0.00000E+00  9.000E+00
      25     1     1     2     0     0  1.762420320E+02 -4.817027885E+01 -2.622345052E+01  2.229221814E+02  1.250000000E+02  0.00000E+00  9.000E+00
      25     1     1     2     0     0 -1.083930507E+02 -3.533109676E+01 -4.843758928E+02  5.130714817E+02  1.250000000E+02  0.00000E+00  9.000E+00
      21     1     1     2   501   511 -6.784898129E+01  8.350137561E+01 -2.047269764E+01  1.095221226E+02  5.840038640E-07  0.00000E+00  9.000E+00
#rwgt            1           1   3.7434861304981901E-002           7      306944           0
</event>
<event>
      5   9999  3.79277E-02  5.70333E+01 -1.00000E+00  1.35891E-01
       1    -1     0     0   502     0  0.000000000E+00  0.000000000E+00  7.194566243E+02  7.194566243E+02  0.000000000E+00  0.00000E+00  9.000E+00
      21    -1     0     0   501   502  0.000000000E+00  0.000000000E+00 -6.402595921E+01  6.402595921E+01  0.000000000E+00  0.00000E+00  9.000E+00
      25     1     1     2     0     0  1.253608076E+02  4.279555750E+00  2.619395439E+02  3.161818644E+02  1.250000000E+02  0.00000E+00  9.000E+00
      25     1     1     2     0     0 -1.340318722E+02 -6.064986979E+01  3.266775643E+02  3.794551100E+02  1.250000000E+02  0.00000E+00  9.000E+00
       1     1     1     2   501     0  8.671064582E+00  5.637031404E+01  6.681355685E+01  8.784560914E+01  9.536743164E-07  0.00000E+00  9.000E+00
#rwgt            1           1   4.4092554967726641E-002           7      306996           0
</event>
<event>
      5   9999  3.79277E-02  5.39328E+00 -1.00000E+00  2.32911E-01
      21    -1     0     0   511   501  0.000000000E+00  0.000000000E+00  3.263551790E+02  3.263551790E+02  0.000000000E+00  0.00000E+00  9.000E+00
      21    -1     0     0   501   502  0.000000000E+00  0.000000000E+00 -2.148418060E+02  2.148418060E+02  0.000000000E+00  0.00000E+00  9.000E+00
      25     1     1     2     0     0 -1.300529095E+02 -1.328239883E+02 -5.329625393E+01  2.302638961E+02  1.250000000E+02  0.00000E+00  9.000E+00
      25     1     1     2     0     0  1.354238941E+02  1.323340752E+02  1.034843432E+02  2.493711046E+02  1.250000000E+02  0.00000E+00  9.000E+00
      21     1     1     2   511   502 -5.370984559E+00  4.899131341E-01  6.132528373E+01  6.156198433E+01  9.536743164E-07  0.00000E+00  9.000E+00
#rwgt            1           1   3.7746870836719737E-002           7      307357           0
</event>
<event>
      5   9999  3.79277E-02  2.89051E+01 -1.00000E+00  1.54170E-01
      21    -1     0     0   512   501  0.000000000E+00  0.000000000E+00  9.708400474E+01  9.708400474E+01  0.000000000E+00  0.00000E+00  9.000E+00
      21    -1     0     0   501   502  0.000000000E+00  0.000000000E+00 -4.986856160E+02  4.986856160E+02  0.000000000E+00  0.00000E+00  9.000E+00
      25     1     1     2     0     0  1.492496205E+02 -3.229240376E+01 -1.626043542E+02  2.557018275E+02  1.250000000E+02  0.00000E+00  9.000E+00
      25     1     1     2     0     0 -1.682056958E+02  1.047105072E+01 -2.259564314E+02  3.083571110E+02  1.250000000E+02  0.00000E+00  9.000E+00
      21     1     1     2   512   502  1.895607529E+01  2.182135304E+01 -1.304082571E+01  3.171068233E+01  5.331201500E-07  0.00000E+00  9.000E+00
#rwgt            1           1   4.8015912937449869E-002           7      307704           0
</event>
<event>
      5   9999  3.79277E-02  9.40366E+01 -1.00000E+00  1.25041E-01
      21    -1     0     0   502   501  0.000000000E+00  0.000000000E+00  5.580021431E+02  5.580021431E+02  0.000000000E+00  0.00000E+00  9.000E+00
       2    -1     0     0   501     0  0.000000000E+00  0.000000000E+00 -1.895090673E+02  1.895090673E+02  0.000000000E+00  0.00000E+00  9.000E+00
      25     1     1     2     0     0  2.110382355E+02  6.419451574E+00  3.546633474E+02  4.312649257E+02  1.250000000E+02  0.00000E+00  9.000E+00
      25     1     1     2     0     0 -1.177827462E+02 -1.851484378E+01  9.040902850E+01  1.949727345E+02  1.250000000E+02  0.00000E+00  9.000E+00
       2     1     1     2   502     0 -9.325548922E+01  1.209539221E+01 -7.657930008E+01  1.212735502E+02  1.348699152E-06  0.00000E+00  9.000E+00
#rwgt            1           1   3.5893961107318358E-002           7      307852           0
</event>
<event>
      5   9999  3.79277E-02  2.77862E+00 -1.00000E+00  3.07351E-01
      21    -1     0     0   502   501  0.000000000E+00  0.000000000E+00  3.568525550E+02  3.568525550E+02  0.000000000E+00  0.00000E+00  9.000E+00
       1    -1     0     0   501     0  0.000000000E+00  0.000000000E+00 -1.532293788E+02  1.532293788E+02  0.000000000E+00  0.00000E+00  9.000E+00
      25     1     1     2     0     0  1.813967713E+01  1.239369486E+02  6.901886568E+01  1.899421463E+02  1.250000000E+02  0.00000E+00  9.000E+00
      25     1     1     2     0     0 -1.854032597E+01 -1.211873689E+02  1.936286158E+02  2.610501157E+02  1.250000000E+02  0.00000E+00  9.000E+00
       1     1     1     2   502     0  4.006488374E-01 -2.749579656E+00 -5.902430529E+01  5.908967188E+01  1.168007728E-06  0.00000E+00  9.000E+00
#rwgt            1           1   4.1369782753088308E-002           7      308051           0
</event>
<event>
      5   9999  3.79277E-02  3.36068E+01 -1.00000E+00  1.49692E-01
      21    -1     0     0   511   501  0.000000000E+00  0.000000000E+00  5.592192698E+01  5.592192698E+01  0.000000000E+00  0.00000E+00  9.000E+00
      21    -1     0     0   501   502  0.000000000E+00  0.000000000E+00 -1.775820064E+03  1.775820064E+03  0.000000000E+00  0.00000E+00  9.000E+00
      25     1     1     2     0     0  1.844007593E+02 -1.244581478E+02 -6.144129109E+02  6.652982005E+02  1.250000000E+02  0.00000E+00  9.000E+00
      25     1     1     2     0     0 -2.051941174E+02  9.805632717E+01 -1.102584109E+03  1.132711961E+03  1.250000000E+02  0.00000E+00  9.000E+00
      21     1     1     2   511   502  2.079335808E+01  2.640182066E+01 -2.901117720E+00  3.373183005E+01  4.951133646E-07  0.00000E+00  9.000E+00
#rwgt            1           1   3.9464006568035739E-002           7      308704           0
</event>
<event>
      5   9999  3.79277E-02  6.56593E+01 -1.00000E+00  1.32644E-01
      21    -1     0     0   512   501  0.000000000E+00  0.000000000E+00  1.242738497E+02  1.242738497E+02  0.000000000E+00  0.00000E+00  9.000E+00
      21    -1     0     0   501   502  0.000000000E+00  0.000000000E+00 -4.844672750E+02  4.844672750E+02  0.000000000E+00  0.00000E+00  9.000E+00
      25     1     1     2     0     0  3.095264063E+01 -1.074692923E+02 -4.571509199E+01  1.738464391E+02  1.250000000E+02  0.00000E+00  9.000E+00
      25     1     1     2     0     0 -4.597687687E+01  1.713865473E+02 -2.953050487E+02  3.664932382E+02  1.250000000E+02  0.00000E+00  9.000E+00
      21     1     1     2   512   502  1.502423624E+01 -6.391725498E+01 -1.917328458E+01  6.840144735E+01  8.920806376E-07  0.00000E+00  9.000E+00
#rwgt            2          11   2.8637575201799254E-003           7      308881           0
</event>
<event>
      5   9999  3.79277E-02  8.11238E+01 -1.00000E+00  1.28057E-01
      21    -1     0     0   502   511  0.000000000E+00  0.000000000E+00  1.264971929E+03  1.264971929E+03  0.000000000E+00  0.00000E+00  9.000E+00
      21    -1     0     0   501   502  0.000000000E+00  0.000000000E+00 -5.338271152E+01  5.338271152E+01  0.000000000E+00  0.00000E+00  9.000E+00
      25     1     1     2     0     0 -8.775248198E+01  1.058633087E+02  3.329813153E+02  3.813254444E+02  1.250000000E+02  0.00000E+00  9.000E+00
      25     1     1     2     0     0  9.643887771E+01 -1.865206711E+02  6.734130432E+02  7.163801677E+02  1.250000000E+02  0.00000E+00  9.000E+00
      21     1     1     2   501   511 -8.686395733E+00  8.065736241E+01  2.051948586E+02  2.206490281E+02  2.697398305E-06  0.00000E+00  9.000E+00
#rwgt            1           1   4.3131653723751481E-002           7      309081           0
</event>
<event>
      5   9999  3.79277E-02  4.65585E+01 -1.00000E+00  1.40866E-01
      21    -1     0     0   502   512  0.000000000E+00  0.000000000E+00  6.856302211E+02  6.856302211E+02  0.000000000E+00  0.00000E+00  9.000E+00
      21    -1     0     0   501   502  0.000000000E+00  0.000000000E+00 -9.161973465E+01  9.161973465E+01  0.000000000E+00  0.00000E+00  9.000E+00
      25     1     1     2     0     0  3.251981871E+01 -7.397384405E+01  2.338627690E+01  1.506704555E+02  1.250000000E+02  0.00000E+00  9.000E+00
      25     1     1     2     0     0 -7.906548806E+01  7.506580087E+01  2.344117581E+02  2.871586638E+02  1.250000000E+02  0.00000E+00  9.000E+00
      21     1     1     2   501   512  4.654566935E+01 -1.091956822E+00  3.362124515E+02  3.394208365E+02  3.814697266E-06  0.00000E+00  9.000E+00
#rwgt            1           1   2.6257111617513262E-002           7      309166           0
</event>
<event>
      5   9999 -3.79277E-02  3.01775E+01 -1.00000E+00  1.52862E-01
       2    -1     0     0   502     0  0.000000000E+00  0.000000000E+00  2.394227329E+03  2.394227329E+03  0.000000000E+00  0.00000E+00  9.000E+00
      21    -1     0     0   501   502  0.000000000E+00  0.000000000E+00 -6.236289215E+01  6.236289215E+01  0.000000000E+00  0.00000E+00  9.000E+00
      25     1     1     2     0     0  1.183015967E+02 -1.969580403E+02  3.584394259E+02  4.437246437E+02  1.250000000E+02  0.00000E+00  9.000E+00
      25     1     1     2     0     0 -1.419059602E+02  1.781560677E+02  8.450678686E+02  8.841049647E+02  1.250000000E+02  0.00000E+00  9.000E+00
       2     1     1     2   501     0  2.360436343E+01  1.880197263E+01  1.128357142E+03  1.128760612E+03  1.525878906E-05  0.00000E+00  9.000E+00
#rwgt            1           1  -2.6141156333843868E-002           7      309292           0
</event>
<event>
      5   9999  3.79277E-02  2.47540E+01 -1.00000E+00  1.59073E-01
      21    -1     0     0   511   501  0.000000000E+00  0.000000000E+00  7.767549612E+02  7.767549612E+02  0.000000000E+00  0.00000E+00  9.000E+00
      21    -1     0     0   501   502  0.000000000E+00  0.000000000E+00 -1.424171115E+02  1.424171115E+02  0.000000000E+00  0.00000E+00  9.000E+00
      25     1     1     2     0     0  1.660829280E+02  5.291025753E+01 -3.019967936E+01  2.166103759E+02  1.250000000E+02  0.00000E+00  9.000E+00
      25     1     1     2     0     0 -1.570636825E+02 -2.985781914E+01  6.028679757E+02  6.361094920E+02  1.250000000E+02  0.00000E+00  9.000E+00
      21     1     1     2   511   502 -9.019245502E+00 -2.305243839E+01  6.166955339E+01  6.645220478E+01  1.168007728E-06  0.00000E+00  9.000E+00
#rwgt            1           1   4.6370476845863907E-002           7      309440           0
</event>
<event>
      5   9999 -3.79277E-02  5.80273E+01 -1.00000E+00  1.35484E-01
      21    -1     0     0   502   501  0.000000000E+00  0.000000000E+00  1.498695505E+03  1.498695505E+03  0.000000000E+00  0.00000E+00  9.000E+00
      21    -1     0     0   501   512  0.000000000E+00  0.000000000E+00 -6.906635648E+01  6.906635648E+01  0.000000000E+00  0.00000E+00  9.000E+00
      25     1     1     2     0     0 -8.142641162E+01  1.889765145E+02  2.546470851E+02  3.504461749E+02  1.250000000E+02  0.00000E+00  9.000E+00
      25     1     1     2     0     0  2.423077529E+01 -1.987655419E+02  1.084005638E+03  1.109408895E+03  1.250000000E+02  0.00000E+00  9.000E+00
      21     1     1     2   502   512  5.719563633E+01  9.789027415E+00  9.097642529E+01  1.079067923E+02  1.348699152E-06  0.00000E+00  9.000E+00
#rwgt            1           1  -3.4874380129377741E-002           7      309570           0
</event>
<event>
      5   9999  3.79277E-02  3.50788E+01 -1.00000E+00  1.48467E-01
      21    -1     0     0   511   501  0.000000000E+00  0.000000000E+00  6.753819862E+02  6.753819862E+02  0.000000000E+00  0.00000E+00  9.000E+00
      21    -1     0     0   501   502  0.000000000E+00  0.000000000E+00 -1.425224240E+02  1.425224240E+02  0.000000000E+00  0.00000E+00  9.000E+00
      25     1     1     2     0     0  2.145665068E+02 -4.732021996E+01  1.947654560E+02  3.191184293E+02  1.250000000E+02  0.00000E+00  9.000E+00
      25     1     1     2     0     0 -1.808100955E+02  5.686094344E+01  8.369851778E+01  2.419832626E+02  1.250000000E+02  0.00000E+00  9.000E+00
      21     1     1     2   511   502 -3.375641132E+01 -9.540723479E+00  2.543955884E+02  2.568027183E+02  2.697398305E-06  0.00000E+00  9.000E+00
#rwgt            1           1   3.2324168347346853E-002           7      309647           0
</event>
<event>
      5   9999  3.79277E-02  4.63193E+01 -1.00000E+00  1.40997E-01
      21    -1     0     0   502   501  0.000000000E+00  0.000000000E+00  5.844387297E+02  5.844387297E+02  0.000000000E+00  0.00000E+00  9.000E+00
      21    -1     0     0   512   502  0.000000000E+00  0.000000000E+00 -7.732350477E+01  7.732350477E+01  0.000000000E+00  0.00000E+00  9.000E+00
      25     1     1     2     0     0 -1.006133382E+02  6.415777470E+01  1.378108813E+02  2.210341668E+02  1.250000000E+02  0.00000E+00  9.000E+00
      25     1     1     2     0     0  1.395350762E+02 -3.904658208E+01  3.216605809E+02  3.742795778E+02  1.250000000E+02  0.00000E+00  9.000E+00
      21     1     1     2   512   501 -3.892173795E+01 -2.511119263E+01  4.764376272E+01  6.644848987E+01  9.536743164E-07  0.00000E+00  9.000E+00
#rwgt            1           1   4.2834477847752885E-002           7      309733           0
</event>
<event>
      5   9999  3.79277E-02  2.42729E+02 -1.00000E+00  1.08670E-01
       2    -1     0     0   502     0  0.000000000E+00  0.000000000E+00  3.144022779E+03  3.144022779E+03  0.000000000E+00  0.00000E+00  9.000E+00
      21    -1     0     0   501   502  0.000000000E+00  0.000000000E+00 -1.724483988E+02  1.724483988E+02  0.000000000E+00  0.00000E+00  9.000E+00
      25     1     1     2     0     0 -4.567890862E+01 -3.663152925E+01 -8.598982300E+01  1.626274309E+02  1.250000000E+02  0.00000E+00  9.000E+00
      25     1     1     2     0     0  2.759260972E+02  1.134660419E+02  5.774391906E+02  6.618691507E+02  1.250000000E+02  0.00000E+00  9.000E+00
       2     1     1     2   501     0 -2.302471886E+02 -7.683451268E+01  2.480125013E+03  2.491974597E+03  3.051757812E-05  0.00000E+00  9.000E+00
#rwgt            1           1   4.0844917246878096E-002           7      309844           0
</event>
<event>
      5   9999  3.79277E-02  2.57435E+01 -1.00000E+00  1.57803E-01
      21    -1     0     0   502   511  0.000000000E+00  0.000000000E+00  5.599664645E+02  5.599664645E+02  0.000000000E+00  0.00000E+00  9.000E+00
      21    -1     0     0   501   502  0.000000000E+00  0.000000000E+00 -1.336884838E+02  1.336884838E+02  0.000000000E+00  0.00000E+00  9.000E+00
      25     1     1     2     0     0  5.873319969E+01 -2.370873031E+01 -7.991859823E+01  1.613185513E+02  1.250000000E+02  0.00000E+00  9.000E+00
      25     1     1     2     0     0 -4.239624126E+01  4.360429100E+01  4.292240965E+02  4.511730272E+02  1.250000000E+02  0.00000E+00  9.000E+00
      21     1     1     2   501   511 -1.633695843E+01 -1.989556070E+01  7.697248246E+01  8.116336983E+01  9.536743164E-07  0.00000E+00  9.000E+00
#rwgt            1           1   4.6804958460356198E-002           7      310031           0
</event>
<event>
      5   9999  3.79277E-02  1.74487E+01 -1.00000E+00  1.71412E-01
      21    -1     0     0   502   501  0.000000000E+00  0.000000000E+00  1.381647012E+02  1.381647012E+02  0.000000000E+00  0.00000E+00  9.000E+00
      21    -1     0     0   512   502  0.000000000E+00  0.000000000E+00 -6.624806343E+02  6.624806343E+02  0.000000000E+00  0.00000E+00  9.000E+00
      25     1     1     2     0     0 -1.371543824E+02 -4.415478723E+00  4.638745139E+01  1.913311702E+02  1.250000000E+02  0.00000E+00  9.000E+00
      25     1     1     2     0     0  1.443484917E+02 -1.148108869E+01 -4.757039024E+02  5.127255652E+02  1.250000000E+02  0.00000E+00  9.000E+00
      21     1     1     2   512   501 -7.194109346E+00  1.589656741E+01 -9.499948214E+01  9.658860011E+01  1.348699152E-06  0.00000E+00  9.000E+00
#rwgt            1           1   1.4160127245304749E-002           7      310144           0
</event>
<event>
      5   9999  3.79277E-02  1.24579E+02 -1.00000E+00  1.19682E-01
       2    -1     0     0   502     0  0.000000000E+00  0.000000000E+00  3.835522009E+03  3.835522009E+03  0.000000000E+00  0.00000E+00  9.000E+00
      21    -1     0     0   501   502  0.000000000E+00  0.000000000E+00 -2.720645759E+01  2.720645759E+01  0.000000000E+00  0.00000E+00  9.000E+00
      25     1     1     2     0     0  1.992206026E+02 -8.921260580E+00  8.028930651E+02  8.366783799E+02  1.250000000E+02  0.00000E+00  9.000E+00
      25     1     1     2     0     0 -9.063096480E+01 -5.213734527E+01  7.649239423E+02  7.820907314E+02  1.250000000E+02  0.00000E+00  9.000E+00
       2     1     1     2   501     0 -1.085896378E+02  6.105860585E+01  2.240498544E+03  2.243959356E+03  3.051757812E-05  0.00000E+00  9.000E+00
#rwgt            1           1   8.5752818653898485E-002           7      310331           0
</event>
<event>
      5   9999  3.79277E-02  5.46557E+01 -1.00000E+00  1.36905E-01
      21    -1     0     0   502   511  0.000000000E+00  0.000000000E+00  8.840447693E+02  8.840447693E+02  0.000000000E+00  0.00000E+00  9.000E+00
      21    -1     0     0   501   502  0.000000000E+00  0.000000000E+00 -7.898191596E+01  7.898191596E+01  0.000000000E+00  0.00000E+00  9.000E+00
      25     1     1     2     0     0 -1.153485610E+02 -1.075199432E+02  4.438912210E+02  4.873707468E+02  1.250000000E+02  0.00000E+00  9.000E+00
      25     1     1     2     0     0  6.422149714E+01  8.819974380E+01  7.115059902E+01  1.805297849E+02  1.250000000E+02  0.00000E+00  9.000E+00
      21     1     1     2   501   511  5.112706388E+01  1.932019937E+01  2.900210333E+02  2.951261536E+02  0.000000000E+00  0.00000E+00  9.000E+00
#rwgt            1           1   4.8306106095814712E-002           7      310389           0
</event>
<event>
      5   9999  3.79277E-02  1.96605E+01 -1.00000E+00  1.66985E-01
      21    -1     0     0   502   512  0.000000000E+00  0.000000000E+00  2.079030218E+02  2.079030218E+02  0.000000000E+00  0.00000E+00  9.000E+00
      21    -1     0     0   501   502  0.000000000E+00  0.000000000E+00 -3.135232355E+02  3.135232355E+02  0.000000000E+00  0.00000E+00  9.000E+00
      25     1     1     2     0     0 -3.947038350E+01  6.177068827E+01 -2.465199383E+02  2.859556068E+02  1.250000000E+02  0.00000E+00  9.000E+00
      25     1     1     2     0     0  2.952846194E+01 -7.873218724E+01  7.815352609E+01  1.697164135E+02  1.250000000E+02  0.00000E+00  9.000E+00
      21     1     1     2   501   512  9.941921560E+00  1.696149897E+01  6.274619852E+01  6.575423698E+01  9.536743164E-07  0.00000E+00  9.000E+00
#rwgt            1           1   2.5662745001298254E-002           7      310517           0
</event>
<event>
      5   9999  3.79277E-02  5.63830E+01 -1.00000E+00  1.36162E-01
      21    -1     0     0   502   501  0.000000000E+00  0.000000000E+00  1.262824088E+03  1.262824088E+03  0.000000000E+00  0.00000E+00  9.000E+00
      21    -1     0     0   501   511  0.000000000E+00  0.000000000E+00 -6.358152559E+01  6.358152559E+01  0.000000000E+00  0.00000E+00  9.000E+00
      25     1     1     2     0     0 -2.390116182E+01  6.372788463E+01  1.010886561E+03  1.020857066E+03  1.250000000E+02  0.00000E+00  9.000E+00
      25     1     1     2     0     0  7.185977912E+01 -9.337601992E+01  9.449373998E+01  1.960535025E+02  1.250000000E+02  0.00000E+00  9.000E+00
      21     1     1     2   502   511 -4.795861729E+01  2.964813529E+01  9.386226126E+01  1.094950455E+02  2.336015456E-06  0.00000E+00  9.000E+00
#rwgt            1           1   4.0376324510266605E-002           7      310771           0
</event>
<event>
      5   9999  3.79277E-02  9.45799E+01 -1.00000E+00  1.24926E-01
      21    -1     0     0   512   501  0.000000000E+00  0.000000000E+00  5.474364353E+02  5.474364353E+02  0.000000000E+00  0.00000E+00  9.000E+00
      21    -1     0     0   501   502  0.000000000E+00  0.000000000E+00 -1.375832981E+02  1.375832981E+02  0.000000000E+00  0.00000E+00  9.000E+00
      25     1     1     2     0     0  1.841371467E+02 -5.265799642E+01  1.324293185E+02  2.642761393E+02  1.250000000E+02  0.00000E+00  9.000E+00
      25     1     1     2     0     0 -1.022999289E+02  1.000713031E+02  8.880447352E+01  2.097397809E+02  1.250000000E+02  0.00000E+00  9.000E+00
      21     1     1     2   512   502 -8.183721783E+01 -4.741330667E+01  1.886193452E+02  2.110038134E+02  2.697398305E-06  0.00000E+00  9.000E+00
#rwgt            1           1   2.8252412030878266E-002           7      310994           0
</event>
<event>
      5   9999  3.79277E-02  5.19819E+01 -1.00000E+00  1.38119E-01
      21    -1     0     0   502   511  0.000000000E+00  0.000000000E+00  3.597632708E+02  3.597632708E+02  0.000000000E+00  0.00000E+00  9.000E+00
      21    -1     0     0   501   502  0.000000000E+00  0.000000000E+00 -4.591456083E+02  4.591456083E+02  0.000000000E+00  0.00000E+00  9.000E+00
      25     1     1     2     0     0 -2.612120827E+02  1.207954367E+02  1.389890968E+02  3.431708885E+02  1.250000000E+02  0.00000E+00  9.000E+00
      25     1     1     2     0     0  3.117232625E+02 -1.085178158E+02 -2.342136457E+02  4.235900619E+02  1.250000000E+02  0.00000E+00  9.000E+00
      21     1     1     2   501   511 -5.051117977E+01 -1.227762099E+01 -4.157788654E+00  5.214792868E+01  1.025477084E-06  0.00000E+00  9.000E+00
#rwgt            1           1   2.8963745872040331E-002           7      311207           0
</event>
<event>
      5   9999  3.79277E-02  2.80672E+01 -1.00000E+00  1.55076E-01
      21    -1     0     0   502   501  0.000000000E+00  0.000000000E+00  4.246324239E+02  4.246324239E+02  0.000000000E+00  0.00000E+00  9.000E+00
      21    -1     0     0   512   502  0.000000000E+00  0.000000000E+00 -1.123950812E+02  1.123950812E+02  0.000000000E+00  0.00000E+00  9.000E+00
      25     1     1     2     0     0 -2.242613502E+01  1.436935309E+02  1.163498823E+02  2.243057232E+02  1.250000000E+02  0.00000E+00  9.000E+00
      25     1     1     2     0     0 -4.397741288E+00 -1.519548151E+02  2.040439084E+02  2.834934258E+02  1.250000000E+02  0.00000E+00  9.000E+00
      21     1     1     2   512   501  2.682387631E+01  8.261284169E+00 -8.156447951E+00  2.922835609E+01  5.462855929E-07  0.00000E+00  9.000E+00
#rwgt            1           1   3.6216756698739534E-002           7      311459           0
</event>
<event>
      5   9999  3.79277E-02  1.39735E+01 -1.00000E+00  1.80334E-01
      21    -1     0     0   502   501  0.000000000E+00  0.000000000E+00  1.939440929E+02  1.939440929E+02  0.000000000E+00  0.00000E+00  9.000E+00
      21    -1     0     0   501   511  0.000000000E+00  0.000000000E+00 -1.626416664E+02  1.626416664E+02  0.000000000E+00  0.00000E+00  9.000E+00
      25     1     1     2     0     0 -6.935967163E+01 -8.551147076E+01  1.257026239E+01  1.670508521E+02  1.250000000E+02  0.00000E+00  9.000E+00
      25     1     1     2     0     0  7.707872384E+01  7.386351046E+01  3.502204113E+01  1.680728747E+02  1.250000000E+02  0.00000E+00  9.000E+00
      21     1     1     2   502   511 -7.719052205E+00  1.164796030E+01 -1.628987709E+01  2.146203256E+01  4.768371582E-07  0.00000E+00  9.000E+00
#rwgt            1           1   4.0648400675189163E-002           7      311640           0
</event>
<event>
      5   9999  3.79277E-02  9.35722E+01 -1.00000E+00  1.25140E-01
      21    -1     0     0   502   512  0.000000000E+00  0.000000000E+00  8.342606779E+01  8.342606779E+01  0.000000000E+00  0.00000E+00  9.000E+00
      21    -1     0     0   501   502  0.000000000E+00  0.000000000E+00 -2.027160595E+03  2.027160595E+03  0.000000000E+00  0.00000E+00  9.000E+00
      25     1     1     2     0     0 -1.231413787E+02 -5.772768069E+00 -1.512213261E+03  1.522370215E+03  1.250000000E+02  0.00000E+00  9.000E+00
      25     1     1     2     0     0  8.960125304E+01  9.312736615E+01 -4.571186169E+02  4.912061897E+02  1.250000000E+02  0.00000E+00  9.000E+00
      21     1     1     2   501   512  3.354012562E+01 -8.735459808E+01  2.559735083E+01  9.701025823E+01  4.422005890E-06  0.00000E+00  9.000E+00
#rwgt            1           1   8.0399180010784541E-002           7      311878           0
</event>
<event>
      5   9999  3.79277E-02  3.73927E+01 -1.00000E+00  1.46679E-01
      21    -1     0     0   511   501  0.000000000E+00  0.000000000E+00  3.987489577E+02  3.987489577E+02  0.000000000E+00  0.00000E+00  9.000E+00
      21    -1     0     0   501   502  0.000000000E+00  0.000000000E+00 -2.173979136E+02  2.173979136E+02  0.000000000E+00  0.00000E+00  9.000E+00
      25     1     1     2     0     0 -4.354523843E+01 -2.223101718E+02  5.037090890E+01  2.635910255E+02  1.250000000E+02  0.00000E+00  9.000E+00
      25     1     1     2     0     0  2.528463973E+01  2.549408849E+02  9.449906714E+01  3.003152368E+02  1.250000000E+02  0.00000E+00  9.000E+00
      21     1     1     2   511   502  1.826059870E+01 -3.263071305E+01  3.648106796E+01  5.224060890E+01  4.768371582E-07  0.00000E+00  9.000E+00
#rwgt            1           1   4.3110331408532598E-002           7      311994           0
</event>
<event>
      5   9999  3.79277E-02  5.42116E+01 -1.00000E+00  1.37101E-01
       2    -1     0     0   502     0  0.000000000E+00  0.000000000E+00  1.324940196E+03  1.324940196E+03  0.000000000E+00  0.00000E+00  9.000E+00
      21    -1     0     0   501   502  0.000000000E+00  0.000000000E+00 -8.990625336E+02  8.990625336E+02  0.000000000E+00  0.00000E+00  9.000E+00
      25     1     1     2     0     0 -1.203288209E+02  1.544263370E+02 -1.978897987E+02  3.051424112E+02  1.250000000E+02  0.00000E+00  9.000E+00
      25     1     1     2     0     0  9.912000776E+01 -2.043170334E+02 -6.209905541E+02  6.729223539E+02  1.250000000E+02  0.00000E+00  9.000E+00
       2     1     1     2   501     0  2.120881313E+01  4.989069638E+01  1.244758015E+03  1.245937964E+03  1.525878906E-05  0.00000E+00  9.000E+00
#rwgt            1           1  0.16604305051153206                7      312115           0
</event>
<event>
      5   9999  3.79277E-02  2.31261E+02 -1.00000E+00  1.09399E-01
      21    -1     0     0   502   501  0.000000000E+00  0.000000000E+00  1.805804887E+02  1.805804887E+02  0.000000000E+00  0.00000E+00  9.000E+00
       1    -1     0     0   501     0  0.000000000E+00  0.000000000E+00 -1.186689707E+03  1.186689707E+03  0.000000000E+00  0.00000E+00  9.000E+00
      25     1     1     2     0     0  8.720582925E+01 -2.011435297E+02 -1.088310835E+02  2.748322778E+02  1.250000000E+02  0.00000E+00  9.000E+00
      25     1     1     2     0     0 -1.803480303E+02 -1.053130546E+01 -6.569510187E+01  2.292971148E+02  1.250000000E+02  0.00000E+00  9.000E+00
       1     1     1     2   502     0  9.314220109E+01  2.116748351E+02 -8.315830331E+02  8.631408033E+02  1.078959322E-05  0.00000E+00  9.000E+00
#rwgt            2          12   4.2059372599725318E-004           7      312290           0
</event>
<event>
      5   9999  3.79277E-02  7.82284E+01 -1.00000E+00  1.28822E-01
      21    -1     0     0   502   501  0.000000000E+00  0.000000000E+00  1.202846936E+02  1.202846936E+02  0.000000000E+00  0.00000E+00  9.000E+00
       1    -1     0     0   501     0  0.000000000E+00  0.000000000E+00 -1.030651579E+03  1.030651579E+03  0.000000000E+00  0.00000E+00  9.000E+00
      25     1     1     2     0     0  1.184731468E+01 -5.356066585E+01  6.637938100E+00  1.366680870E+02  1.250000000E+02  0.00000E+00  9.000E+00
      25     1     1     2     0     0 -8.426100233E+01  8.315691324E+01 -1.118137735E+02  2.052859193E+02  1.250000000E+02  0.00000E+00  9.000E+00
       1     1     1     2   502     0  7.241368765E+01 -2.959624739E+01 -8.051910495E+02  8.089822657E+02  0.000000000E+00  0.00000E+00  9.000E+00
#rwgt            1           1   5.3062834743878885E-002           7      312309           0
</event>
<event>
      5   9999  3.79277E-02  4.27316E+01 -1.00000E+00  1.43083E-01
      21    -1     0     0   502   501  0.000000000E+00  0.000000000E+00  7.343639819E+01  7.343639819E+01  0.000000000E+00  0.00000E+00  9.000E+00
      21    -1     0     0   501   511  0.000000000E+00  0.000000000E+00 -9.656423555E+02  9.656423555E+02  0.000000000E+00  0.00000E+00  9.000E+00
      25     1     1     2     0     0 -1.939750030E+02  9.114192144E+01 -3.984502414E+02  4.693833684E+02  1.250000000E+02  0.00000E+00  9.000E+00
      25     1     1     2     0     0  1.653437770E+02 -1.228632062E+02 -4.067528478E+02  4.727650698E+02  1.250000000E+02  0.00000E+00  9.000E+00
      21     1     1     2   502   511  2.863122601E+01  3.172128477E+01 -8.700286802E+01  9.693031546E+01  2.336015456E-06  0.00000E+00  9.000E+00
#rwgt            1           1   4.2015061450359485E-002           7      312387           0
</event>
<event>
      5   9999  3.79277E-02  2.92205E+01 -1.00000E+00  1.53838E-01
       2    -1     0     0   502     0  0.000000000E+00  0.000000000E+00  1.349571461E+03  1.349571461E+03  0.000000000E+00  0.00000E+00  9.000E+00
      21    -1     0     0   501   502  0.000000000E+00  0.000000000E+00 -6.602234941E+01  6.602234941E+01  0.000000000E+00  0.00000E+00  9.000E+00
      25     1     1     2     0     0 -1.355179281E+02 -1.133124378E+02  4.791080643E+02  5.257131867E+02  1.250000000E+02  0.00000E+00  9.000E+00
      25     1     1     2     0     0  1.257232754E+02  8.578237801E+01  1.864771498E+02  2.712262630E+02  1.250000000E+02  0.00000E+00  9.000E+00
       2     1     1     2   501     0  9.794652675E+00  2.753005981E+01  6.179638972E+02  6.186543604E+02  1.078959322E-05  0.00000E+00  9.000E+00
#rwgt            1           1   3.6358083427910179E-002           7      312533           0
</event>
<event>
      5   9999  3.79277E-02  4.82507E+01 -1.00000E+00  1.39964E-01
      21    -1     0     0   502   501  0.000000000E+00  0.000000000E+00  1.826912274E+02  1.826912274E+02  0.000000000E+00  0.00000E+00  9.000E+00
       2    -1     0     0   501     0  0.000000000E+00  0.000000000E+00 -2.906128183E+03  2.906128183E+03  0.000000000E+00  0.00000E+00  9.000E+00
      25     1     1     2     0     0 -1.049737274E+02 -8.051136370E+01 -3.311613509E+01  1.849952473E+02  1.250000000E+02  0.00000E+00  9.000E+00
      25     1     1     2     0     0  6.038527723E+01  9.895041184E+01  3.834097939E+01  1.747357903E+02  1.250000000E+02  0.00000E+00  9.000E+00
       2     1     1     2   502     0  4.458845018E+01 -1.843904814E+01 -2.728661800E+03  2.729088373E+03  0.000000000E+00  0.00000E+00  9.000E+00
#rwgt            1           1   3.2049711257436254E-002           7      312622           0
</event>
<event>
      5   9999  3.79277E-02  3.58821E+01 -1.00000E+00  1.47828E-01
      21    -1     0     0   502   501  0.000000000E+00  0.000000000E+00  1.113335383E+03  1.113335383E+03  0.000000000E+00  0.00000E+00  9.000E+00
      21    -1     0     0   511   502  0.000000000E+00  0.000000000E+00 -4.965963335E+01  4.965963335E+01  0.000000000E+00  0.00000E+00  9.000E+00
      25     1     1     2     0     0  2.073639081E+01  9.751439183E+01  8.120747087E+02  8.276650210E+02  1.250000000E+02  0.00000E+00  9.000E+00
      25     1     1     2     0     0 -3.328197653E+01 -1.311318089E+02  1.943925209E+02  2.677997264E+02  1.250000000E+02  0.00000E+00  9.000E+00
      21     1     1     2   511   501  1.254558572E+01  3.361741705E+01  5.720851957E+01  6.753026849E+01  9.536743164E-07  0.00000E+00  9.000E+00
#rwgt            1           1   4.9262040988598883E-002           7      312828           0
</event>
<event>
      5   9999  3.79277E-02  2.18469E+01 -1.00000E+00  1.63265E-01
      21    -1     0     0   502   501  0.000000000E+00  0.000000000E+00  7.723885396E+02  7.723885396E+02  0.000000000E+00  0.00000E+00  9.000E+00
      21    -1     0     0   501   512  0.000000000E+00  0.000000000E+00 -7.923406579E+01  7.923406579E+01  0.000000000E+00  0.00000E+00  9.000E+00
      25     1     1     2     0     0  1.824321576E+02  3.320457354E+01  3.970849429E+02  4.557252327E+02  1.250000000E+02  0.00000E+00  9.000E+00
      25     1     1     2     0     0 -1.973028802E+02 -4.920922142E+01  2.838270283E+02  3.708540899E+02  1.250000000E+02  0.00000E+00  9.000E+00
      21     1     1     2   502   512  1.487072256E+01  1.600464788E+01  1.224250261E+01  2.504328280E+01  6.078504936E-07  0.00000E+00  9.000E+00
#rwgt            1           1   4.2493629283476914E-002           7      313118           0
</event>
<event>
      5   9999 -3.79277E-02  1.08126E+02 -1.00000E+00  1.22321E-01
      21    -1     0     0   502   511  0.000000000E+00  0.000000000E+00  5.915076433E+02  5.915076433E+02  0.000000000E+00  0.00000E+00  9.000E+00
      21    -1     0     0   501   502  0.000000000E+00  0.000000000E+00 -3.204936686E+02  3.204936686E+02  0.000000000E+00  0.00000E+00  9.000E+00
      25     1     1     2     0     0 -3.014659383E+01 -1.880536734E+02 -5.685228736E+01  2.347981767E+02  1.250000000E+02  0.00000E+00  9.000E+00
      25     1     1     2     0     0 -7.730537193E+01  2.001115434E+02 -7.556761853E+01  2.595307599E+02  1.250000000E+02  0.00000E+00  9.000E+00
      21     1     1     2   501   511  1.074519658E+02 -1.205787005E+01  4.034338805E+02  4.176723754E+02  0.000000000E+00  0.00000E+00  9.000E+00
#rwgt            1           1  -9.8113166875166413E-002           7      313307           0
</event>
<event>
      5   9999  3.79277E-02  4.53775E+01 -1.00000E+00  1.41523E-01
      -2    -1     0     0     0   501  0.000000000E+00  0.000000000E+00  2.891348685E+02  2.891348685E+02  0.000000000E+00  0.00000E+00  9.000E+00
      21    -1     0     0   501   502  0.000000000E+00  0.000000000E+00 -1.859475009E+02  1.859475009E+02  0.000000000E+00  0.00000E+00  9.000E+00
      25     1     1     2     0     0  3.228015979E+01  3.952683069E+01  1.742591684E+02  2.204441808E+02  1.250000000E+02  0.00000E+00  9.000E+00
      25     1     1     2     0     0 -3.523110218E+00 -7.462887136E+01 -1.194209228E+02  1.883301292E+02  1.250000000E+02  0.00000E+00  9.000E+00
      -2     1     1     2     0   502 -2.875704957E+01  3.510204067E+01  4.834912195E+01  6.630805949E+01  6.743495762E-07  0.00000E+00  9.000E+00
#rwgt            1           1   4.7140974226197258E-002           7      313386           0
</event>
<event>
      5   9999  3.79277E-02  2.00934E+01 -1.00000E+00  1.66202E-01
      21    -1     0     0   511   501  0.000000000E+00  0.000000000E+00  1.148418189E+03  1.148418189E+03  0.000000000E+00  0.00000E+00  9.000E+00
      21    -1     0     0   501   502  0.000000000E+00  0.000000000E+00 -6.725508478E+01  6.725508478E+01  0.000000000E+00  0.00000E+00  9.000E+00
      25     1     1     2     0     0  1.613142300E+01 -1.885277550E+02  7.936343130E+02  8.253989096E+02  1.250000000E+02  0.00000E+00  9.000E+00
      25     1     1     2     0     0 -3.597964141E+01  1.853980703E+02  2.054787089E+02  3.057997365E+02  1.250000000E+02  0.00000E+00  9.000E+00
      21     1     1     2   511   502  1.984821842E+01  3.129684715E+00  8.205008219E+01  8.447462748E+01  9.536743164E-07  0.00000E+00  9.000E+00
#rwgt            1           1   1.9276514070608090E-002           7      313506           0
</event>
<event>
      5   9999  3.79277E-02  2.49293E+01 -1.00000E+00  1.58843E-01
      21    -1     0     0   502   501  0.000000000E+00  0.000000000E+00  1.367651515E+03  1.367651515E+03  0.000000000E+00  0.00000E+00  9.000E+00
      21    -1     0     0   501   512  0.000000000E+00  0.000000000E+00 -6.994414272E+01  6.994414272E+01  0.000000000E+00  0.00000E+00  9.000E+00
      25     1     1     2     0     0 -1.318961247E+02  2.310048929E+02  6.655709552E+02  7.275778616E+02  1.250000000E+02  0.00000E+00  9.000E+00
      25     1     1     2     0     0  1.072727892E+02 -2.271114006E+02  6.233648902E+02  6.835903934E+02  1.250000000E+02  0.00000E+00  9.000E+00
      21     1     1     2   502   512  2.462333551E+01 -3.893492317E+00  8.771526950E+00  2.642740280E+01  4.915124924E-07  0.00000E+00  9.000E+00
#rwgt            1           1   9.2732616475243182E-002           7      313659           0
</event>
<event>
      5   9999  3.79277E-02  2.34794E+01 -1.00000E+00  1.60820E-01
      21    -1     0     0   502   501  0.000000000E+00  0.000000000E+00  1.052154363E+02  1.052154363E+02  0.000000000E+00  0.00000E+00  9.000E+00
      21    -1     0     0   511   502  0.000000000E+00  0.000000000E+00 -6.736205859E+02  6.736205859E+02  0.000000000E+00  0.00000E+00  9.000E+00
      25     1     1     2     0     0 -1.624174632E+02  9.688953408E+01 -9.970479986E+01  2.476551257E+02  1.250000000E+02  0.00000E+00  9.000E+00
      25     1     1     2     0     0  1.486479346E+02 -1.159075246E+02 -4.166896137E+02  4.741160163E+02  1.250000000E+02  0.00000E+00  9.000E+00
      21     1     1     2   511   501  1.376952866E+01  1.901799055E+01 -5.201073601E+01  5.706488013E+01  0.000000000E+00  0.00000E+00  9.000E+00
#rwgt            1           1   2.9068511251285473E-002           7      313812           0
</event>
<event>
      5   9999  3.79277E-02  1.48292E+01 -1.00000E+00  1.77853E-01
      21    -1     0     0   502   512  0.000000000E+00  0.000000000E+00  1.316157393E+03  1.316157393E+03  0.000000000E+00  0.00000E+00  9.000E+00
      21    -1     0     0   501   502  0.000000000E+00  0.000000000E+00 -5.127775194E+01  5.127775194E+01  0.000000000E+00  0.00000E+00  9.000E+00
      25     1     1     2     0     0  1.067840992E+02  1.534471392E+02  3.771608706E+02  4.391175135E+02  1.250000000E+02  0.00000E+00  9.000E+00
      25     1     1     2     0     0 -9.197083759E+01 -1.541348244E+02  5.742005408E+02  6.144488914E+02  1.250000000E+02  0.00000E+00  9.000E+00
      21     1     1     2   501   512 -1.481326163E+01  6.876851777E-01  3.135182297E+02  3.138687401E+02  0.000000000E+00  0.00000E+00  9.000E+00
#rwgt            1           1   3.9930704132158268E-002           7      314105           0
</event>
<event>
      5   9999  3.79277E-02  8.29118E+00 -1.00000E+00  2.05661E-01
      21    -1     0     0   502   501  0.000000000E+00  0.000000000E+00  6.266354840E+01  6.266354840E+01  0.000000000E+00  0.00000E+00  9.000E+00
      21    -1     0     0   511   502  0.000000000E+00  0.000000000E+00 -1.396618122E+03  1.396618122E+03  0.000000000E+00  0.00000E+00  9.000E+00
      25     1     1     2     0     0 -1.414307447E+02  4.782042596E+01 -1.301228750E+02  2.341931068E+02  1.250000000E+02  0.00000E+00  9.000E+00
      25     1     1     2     0     0  1.357771583E+02 -4.175572009E+01 -8.353036292E+02  8.564672381E+02  1.250000000E+02  0.00000E+00  9.000E+00
      21     1     1     2   511   501  5.653586471E+00 -6.064705874E+00 -3.685280695E+02  3.686213256E+02  0.000000000E+00  0.00000E+00  9.000E+00
#rwgt            1           1   4.4748271585161842E-002           7      314414           0
</event>
<event>
      5   9999  3.79277E-02  7.65992E+01 -1.00000E+00  1.29269E-01
      21    -1     0     0   512   501  0.000000000E+00  0.000000000E+00  2.361189223E+03  2.361189223E+03  0.000000000E+00  0.00000E+00  9.000E+00
      21    -1     0     0   501   502  0.000000000E+00  0.000000000E+00 -1.596042746E+02  1.596042746E+02  0.000000000E+00  0.00000E+00  9.000E+00
      25     1     1     2     0     0  4.638982560E+02  1.380461243E+02  1.337199471E+03  1.427580383E+03  1.250000000E+02  0.00000E+00  9.000E+00
      25     1     1     2     0     0 -5.184153238E+02 -1.918543221E+02  6.337594809E+02  8.501991581E+02  1.250000000E+02  0.00000E+00  9.000E+00
      21     1     1     2   512   502  5.451706774E+01  5.380819781E+01  2.306259966E+02  2.430139567E+02  3.814697266E-06  0.00000E+00  9.000E+00
#rwgt            1           1   3.9652398370763141E-002           7      314755           0
</event>
<event>
      5   9999  3.79277E-02  9.69651E+01 -1.00000E+00  1.24433E-01
       1    -1     0     0   502     0  0.000000000E+00  0.000000000E+00  4.456438150E+02  4.456438150E+02  0.000000000E+00  0.00000E+00  9.000E+00
      21    -1     0     0   501   502  0.000000000E+00  0.000000000E+00 -8.255298516E+02  8.255298516E+02  0.000000000E+00  0.00000E+00  9.000E+00
      25     1     1     2     0     0 -1.075671944E+02 -1.870418312E+02 -3.628600025E+02  4.402814206E+02  1.250000000E+02  0.00000E+00  9.000E+00
      25     1     1     2     0     0  1.876669641E+02  1.323952535E+02 -3.765988259E+02  4.584747193E+02  1.250000000E+02  0.00000E+00  9.000E+00
       1     1     1     2   501     0 -8.009976971E+01  5.464657772E+01  3.595727918E+02  3.724175267E+02  6.607249480E-06  0.00000E+00  9.000E+00
#rwgt            1           1   3.4869845679835164E-002           7      314902           0
</event>
<event>
      5   9999  3.79277E-02  1.62467E+01 -1.00000E+00  1.74178E-01
      21    -1     0     0   511   501  0.000000000E+00  0.000000000E+00  2.019810330E+02  2.019810330E+02  0.000000000E+00  0.00000E+00  9.000E+00
      21    -1     0     0   501   502  0.000000000E+00  0.000000000E+00 -5.935000732E+02  5.935000732E+02  0.000000000E+00  0.00000E+00  9.000E+00
      25     1     1     2     0     0 -3.256000143E+01 -4.257749438E+01  1.113231702E+02  1.757579157E+02  1.250000000E+02  0.00000E+00  9.000E+00
      25     1     1     2     0     0  3.690165698E+01  2.692167679E+01 -5.520696035E+02  5.678841045E+02  1.250000000E+02  0.00000E+00  9.000E+00
      21     1     1     2   511   502 -4.341655554E+00  1.565581759E+01  4.922739316E+01  5.183908598E+01  1.168007728E-06  0.00000E+00  9.000E+00
#rwgt            1           1   4.2720293192828405E-002           7      315010           0
</event>
<event>
      5   9999  3.79277E-02  3.89871E+01 -1.00000E+00  1.45534E-01
      21    -1     0     0   502   501  0.000000000E+00  0.000000000E+00  7.310327750E+02  7.310327750E+02  0.000000000E+00  0.00000E+00  9.000E+00
      21    -1     0     0   512   502  0.000000000E+00  0.000000000E+00 -2.101722605E+02  2.101722605E+02  0.000000000E+00  0.00000E+00  9.000E+00
      25     1     1     2     0     0 -1.722552851E+02 -5.731612882E+00  4.349586191E+02  4.842713444E+02  1.250000000E+02  0.00000E+00  9.000E+00
      25     1     1     2     0     0  1.511120713E+02  3.848764349E+01  2.317169325E+02  3.059965582E+02  1.250000000E+02  0.00000E+00  9.000E+00
      21     1     1     2   512   501  2.114321381E+01 -3.275603061E+01 -1.458150371E+02  1.509371329E+02  2.697398305E-06  0.00000E+00  9.000E+00
#rwgt            1           1   3.4303866599369216E-002           7      315299           0
</event>
<event>
      5   9999  3.79277E-02  2.62859E+01 -1.00000E+00  1.57136E-01
      21    -1     0     0   502   511  0.000000000E+00  0.000000000E+00  1.773900025E+02  1.773900025E+02  0.000000000E+00  0.00000E+00  9.000E+00
      21    -1     0     0   501   502  0.000000000E+00  0.000000000E+00 -2.816207252E+02  2.816207252E+02  0.000000000E+00  0.00000E+00  9.000E+00
      25     1     1     2     0     0 -4.325743203E+01 -1.166180827E+02  7.281325783E+01  1.907819519E+02  1.250000000E+02  0.00000E+00  9.000E+00
      25     1     1     2     0     0  5.977223017E+01  9.616783585E+01 -1.730432705E+02  2.416401159E+02  1.250000000E+02  0.00000E+00  9.000E+00
      21     1     1     2   501   511 -1.651479814E+01  2.045024686E+01 -4.000710111E+00  2.658865990E+01  5.397430145E-07  0.00000E+00  9.000E+00
#rwgt            1           1   3.7339663906357665E-002           7      315423           0
</event>
<event>
      5   9999  3.79277E-02  6.32403E+01 -1.00000E+00  1.33494E-01
      21    -1     0     0   502   501  0.000000000E+00  0.000000000E+00  4.425637862E+01  4.425637862E+01  0.000000000E+00  0.00000E+00  9.000E+00
      21    -1     0     0   512   502  0.000000000E+00  0.000000000E+00 -1.112399305E+03  1.112399305E+03  0.000000000E+00  0.00000E+00  9.000E+00
      25     1     1     2     0     0  3.112112522E+01  1.055067938E+02 -2.944192414E+02  3.382423653E+02  1.250000000E+02  0.00000E+00  9.000E+00
      25     1     1     2     0     0 -8.902374710E+01 -1.309356240E+02 -5.461023697E+02  5.821702186E+02  1.250000000E+02  0.00000E+00  9.000E+00
      21     1     1     2   512   501  5.790262187E+01  2.542883016E+01 -2.276213148E+02  2.362430993E+02  2.697398305E-06  0.00000E+00  9.000E+00
#rwgt            1           1   4.1342319800258064E-002           7      315545           0
</event>
<event>
      5   9999  3.79277E-02  1.53561E+02 -1.00000E+00  1.15991E-01
      21    -1     0     0   502   501  0.000000000E+00  0.000000000E+00  5.633513020E+02  5.633513020E+02  0.000000000E+00  0.00000E+00  9.000E+00
      21    -1     0     0   501   511  0.000000000E+00  0.000000000E+00 -5.345196191E+02  5.345196191E+02  0.000000000E+00  0.00000E+00  9.000E+00
      25     1     1     2     0     0 -2.227385134E+02 -1.859478950E+02 -2.309455040E+01  3.167766142E+02  1.250000000E+02  0.00000E+00  9.000E+00
      25     1     1     2     0     0  2.015252741E+02  3.385893004E+01  3.625755336E+02  4.345628617E+02  1.250000000E+02  0.00000E+00  9.000E+00
      21     1     1     2   502   511  2.121323929E+01  1.520889650E+02 -3.106493002E+02  3.465314452E+02  0.000000000E+00  0.00000E+00  9.000E+00
#rwgt            1           1   3.4588220905828942E-002           7      315679           0
</event>
<event>
      5   9999  3.79277E-02  2.11801E+02 -1.00000E+00  1.10749E-01
      21    -1     0     0   502   501  0.000000000E+00  0.000000000E+00  4.730694131E+02  4.730694131E+02  0.000000000E+00  0.00000E+00  9.000E+00
       2    -1     0     0   501     0  0.000000000E+00  0.000000000E+00 -5.265625690E+02  5.265625690E+02  0.000000000E+00  0.00000E+00  9.000E+00
      25     1     1     2     0     0 -2.470928005E+02 -1.488869571E+01  2.704429570E+02  3.873511563E+02  1.250000000E+02  0.00000E+00  9.000E+00
      25     1     1     2     0     0  8.423799192E+01 -1.205289646E+02  3.439088022E+01  1.960382698E+02  1.250000000E+02  0.00000E+00  9.000E+00
       2     1     1     2   502     0  1.628548085E+02  1.354176603E+02 -3.583269932E+02  4.162425560E+02  5.394796609E-06  0.00000E+00  9.000E+00
#rwgt            1           1   4.4423909362434705E-002           7      315735           0
</event>
<event>
      5   9999  3.79277E-02  1.20196E+01 -1.00000E+00  1.86954E-01
      21    -1     0     0   502   511  0.000000000E+00  0.000000000E+00  5.287659483E+02  5.287659483E+02  0.000000000E+00  0.00000E+00  9.000E+00
      21    -1     0     0   501   502  0.000000000E+00  0.000000000E+00 -2.107262956E+02  2.107262956E+02  0.000000000E+00  0.00000E+00  9.000E+00
      25     1     1     2     0     0  1.420128585E+02 -1.456263941E+01  2.179512461E+02  2.889765875E+02  1.250000000E+02  0.00000E+00  9.000E+00
      25     1     1     2     0     0 -1.377463144E+02  3.325787150E+00 -1.256258862E+02  2.244815611E+02  1.250000000E+02  0.00000E+00  9.000E+00
      21     1     1     2   501   511 -4.266544091E+00  1.123685226E+01  2.257142928E+02  2.260340953E+02  2.697398305E-06  0.00000E+00  9.000E+00
#rwgt            1           1   4.6630244454462309E-002           7      315912           0
</event>
<event>
      5   9999  3.79277E-02  3.30724E+01 -1.00000E+00  1.50156E-01
      21    -1     0     0   502   512  0.000000000E+00  0.000000000E+00  1.713568579E+02  1.713568579E+02  0.000000000E+00  0.00000E+00  9.000E+00
      21    -1     0     0   501   502  0.000000000E+00  0.000000000E+00 -2.795316268E+03  2.795316268E+03  0.000000000E+00  0.00000E+00  9.000E+00
      25     1     1     2     0     0  9.117197135E+00  3.737054965E+02 -1.643080199E+03  1.689697151E+03  1.250000000E+02  0.00000E+00  9.000E+00
      25     1     1     2     0     0  1.613395789E+01 -3.950634392E+02 -1.088274487E+03  1.164603703E+03  1.250000000E+02  0.00000E+00  9.000E+00
      21     1     1     2   501   512 -2.525115502E+01  2.135794265E+01  1.073952753E+02  1.123722728E+02  6.031565972E-06  0.00000E+00  9.000E+00
#rwgt            1           1  0.29046306323555954                7      316263           0
</event>
<event>
      5   9999  3.79277E-02  6.35335E+01 -1.00000E+00  1.33389E-01
      21    -1     0     0   511   501  0.000000000E+00  0.000000000E+00  1.124049974E+03  1.124049974E+03  0.000000000E+00  0.00000E+00  9.000E+00
      21    -1     0     0   501   502  0.000000000E+00  0.000000000E+00 -3.804293421E+02  3.804293421E+02  0.000000000E+00  0.00000E+00  9.000E+00
      25     1     1     2     0     0  7.105130853E+01 -1.919503649E+02 -1.753910296E+02  2.971199157E+02  1.250000000E+02  0.00000E+00  9.000E+00
      25     1     1     2     0     0 -7.589564911E+00  1.949698439E+02 -4.934619163E+01  2.369195816E+02  1.250000000E+02  0.00000E+00  9.000E+00
      21     1     1     2   511   502 -6.346174362E+01 -3.019478946E+00  9.683578530E+02  9.704398187E+02  1.078959322E-05  0.00000E+00  9.000E+00
#rwgt            1           1   3.4112686503654233E-002           7      316507           0
</event>
<event>
      5   9999  3.79277E-02  1.69183E+02 -1.00000E+00  1.14359E-01
      21    -1     0     0   502   501  0.000000000E+00  0.000000000E+00  1.027887113E+02  1.027887113E+02  0.000000000E+00  0.00000E+00  9.000E+00
      21    -1     0     0   501   512  0.000000000E+00  0.000000000E+00 -1.545451544E+03  1.545451544E+03  0.000000000E+00  0.00000E+00  9.000E+00
      25     1     1     2     0     0  7.715240899E+01 -2.891407874E+02 -7.604806292E+02  8.267470451E+02  1.250000000E+02  0.00000E+00  9.000E+00
      25     1     1     2     0     0 -7.072075455E+01  1.200800863E+02 -9.403251087E+01  2.094940700E+02  1.250000000E+02  0.00000E+00  9.000E+00
      21     1     1     2   502   512 -6.431654436E+00  1.690607011E+02 -5.881496928E+02  6.119991405E+02  7.629394531E-06  0.00000E+00  9.000E+00
#rwgt            1           1   3.1840863084294201E-002           7      316673           0
</event>
<event>
      5   9999  3.79277E-02  4.02393E+01 -1.00000E+00  1.44680E-01
      21    -1     0     0   502   501  0.000000000E+00  0.000000000E+00  3.143292470E+01  3.143292470E+01  0.000000000E+00  0.00000E+00  9.000E+00
       1    -1     0     0   501     0  0.000000000E+00  0.000000000E+00 -2.737223347E+03  2.737223347E+03  0.000000000E+00  0.00000E+00  9.000E+00
      25     1     1     2     0     0  3.475847261E+01 -4.270073347E+01 -1.671848322E+02  2.158871746E+02  1.250000000E+02  0.00000E+00  9.000E+00
      25     1     1     2     0     0 -2.848426488E+01  8.244789889E+01 -8.419561099E+02  8.556425073E+02  1.250000000E+02  0.00000E+00  9.000E+00
       1     1     1     2   502     0 -6.274207726E+00 -3.974716542E+01 -1.696649480E+03  1.697126590E+03  0.000000000E+00  0.00000E+00  9.000E+00
#rwgt            1           1   4.0654342892773268E-002           7      316737           0
</event>
<event>
      5   9999 -3.79277E-02  6.20817E+01 -1.00000E+00  1.33917E-01
      21    -1     0     0   502   501  0.000000000E+00  0.000000000E+00  2.230469546E+02  2.230469546E+02  0.000000000E+00  0.00000E+00  9.000E+00
      21    -1     0     0   501   511  0.000000000E+00  0.000000000E+00 -4.678442422E+02  4.678442422E+02  0.000000000E+00  0.00000E+00  9.000E+00
      25     1     1     2     0     0 -1.614838332E+01 -1.337896746E+02 -3.268400637E+01  1.866914341E+02  1.250000000E+02  0.00000E+00  9.000E+00
      25     1     1     2     0     0 -4.016662644E+01  1.076599595E+02  9.248068604E+01  1.933434820E+02  1.250000000E+02  0.00000E+00  9.000E+00
      21     1     1     2   502   511  5.631500976E+01  2.612971509E+01 -3.045939673E+02  3.108562807E+02  0.000000000E+00  0.00000E+00  9.000E+00
#rwgt            1           1 -0.15125871866885424                7      317008           0
</event>
<event>
      5   9999 -3.79277E-02  5.68929E+01 -1.00000E+00  1.35949E-01
      21    -1     0     0   502   501  0.000000000E+00  0.000000000E+00  1.312854977E+02  1.312854977E+02  0.000000000E+00  0.00000E+00  9.000E+00
      21    -1     0     0   512   502  0.000000000E+00  0.000000000E+00 -9.380132049E+02  9.380132049E+02  0.000000000E+00  0.00000E+00  9.000E+00
      25     1     1     2     0     0  7.434255643E+01 -1.440558237E+02  2.168345405E+01  2.058496253E+02  1.250000000E+02  0.00000E+00  9.000E+00
      25     1     1     2     0     0 -1.008070941E+02  9.369287777E+01 -6.601036776E+02  6.857858928E+02  1.250000000E+02  0.00000E+00  9.000E+00
      21     1     1     2   512   501  2.646453772E+01  5.036294594E+01 -1.683074837E+02  1.776631845E+02  2.697398305E-06  0.00000E+00  9.000E+00
#rwgt            1           1 -0.14626048433696495                7      317155           0
</event>
<event>
      5   9999  3.79277E-02  4.07356E+00 -1.00000E+00  2.61619E-01
      21    -1     0     0   511   501  0.000000000E+00  0.000000000E+00  6.572486407E+01  6.572486407E+01  0.000000000E+00  0.00000E+00  9.000E+00
      21    -1     0     0   501   502  0.000000000E+00  0.000000000E+00 -6.702437666E+02  6.702437666E+02  0.000000000E+00  0.00000E+00  9.000E+00
      25     1     1     2     0     0 -1.246127052E+02 -1.296629418E+01 -1.274085554E+02  2.180696932E+02  1.250000000E+02  0.00000E+00  9.000E+00
      25     1     1     2     0     0  1.286265660E+02  1.227146857E+01 -4.802235772E+02  5.127719439E+02  1.250000000E+02  0.00000E+00  9.000E+00
      21     1     1     2   511   502 -4.013860814E+00  6.948256065E-01  3.113230082E+00  5.126993544E+00  1.192092896E-07  0.00000E+00  9.000E+00
#rwgt            1           1   4.4355516723619585E-002           7      317365           0
</event>
<event>
      5   9999  3.79277E-02  1.25728E+02 -1.00000E+00  1.19515E-01
       1    -1     0     0   502     0  0.000000000E+00  0.000000000E+00  1.011514505E+03  1.011514505E+03  0.000000000E+00  0.00000E+00  9.000E+00
      21    -1     0     0   501   502  0.000000000E+00  0.000000000E+00 -1.430255060E+02  1.430255060E+02  0.000000000E+00  0.00000E+00  9.000E+00
      25     1     1     2     0     0  5.282260534E+01 -9.579454946E+01  2.896622417E+01  1.686145471E+02  1.250000000E+02  0.00000E+00  9.000E+00
      25     1     1     2     0     0 -1.770288941E+02  1.152936938E+02  1.558051957E+02  2.907440871E+02  1.250000000E+02  0.00000E+00  9.000E+00
       1     1     1     2   501     0  1.242062887E+02 -1.949914437E+01  6.837175792E+02  6.951813770E+02  1.321449896E-05  0.00000E+00  9.000E+00
#rwgt            1           1   2.9518813507200144E-002           7      317792           0
</event>
<event>
      5   9999  3.79277E-02  2.13975E+01 -1.00000E+00  1.63985E-01
      21    -1     0     0   502   501  0.000000000E+00  0.000000000E+00  1.066312008E+02  1.066312008E+02  0.000000000E+00  0.00000E+00  9.000E+00
      21    -1     0     0   501   511  0.000000000E+00  0.000000000E+00 -9.063501403E+02  9.063501403E+02  0.000000000E+00  0.00000E+00  9.000E+00
      25     1     1     2     0     0  1.169990632E+02  6.773417822E+00  1.980889557E+01  1.724878324E+02  1.250000000E+02  0.00000E+00  9.000E+00
      25     1     1     2     0     0 -9.847099156E+01 -1.747694518E+01 -7.712120181E+02  7.876515452E+02  1.250000000E+02  0.00000E+00  9.000E+00
      21     1     1     2   502   511 -1.852807167E+01  1.070352735E+01 -4.831581703E+01  5.284196355E+01  6.743495762E-07  0.00000E+00  9.000E+00
#rwgt            1           1   1.9081134712081588E-002           7      317948           0
</event>
<event>
      5   9999 -3.79277E-02  3.95007E+01 -1.00000E+00  1.45179E-01
      21    -1     0     0   502   512  0.000000000E+00  0.000000000E+00  7.740364837E+01  7.740364837E+01  0.000000000E+00  0.00000E+00  9.000E+00
      21    -1     0     0   501   502  0.000000000E+00  0.000000000E+00 -5.574249974E+02  5.574249974E+02  0.000000000E+00  0.00000E+00  9.000E+00
      25     1     1     2     0     0 -7.528218761E+01  1.253489257E+02 -3.278697003E+02  3.801358985E+02  1.250000000E+02  0.00000E+00  9.000E+00
      25     1     1     2     0     0  5.014689260E+01 -9.487729482E+01 -1.232987825E+02  2.057765820E+02  1.250000000E+02  0.00000E+00  9.000E+00
      21     1     1     2   501   512  2.513529501E+01 -3.047163086E+01 -2.885286621E+01  4.891616533E+01  5.840038640E-07  0.00000E+00  9.000E+00
#rwgt            1           1  -4.9180601755200240E-002           7      318157           0
</event>
<event>
      5   9999  3.79277E-02  5.97692E+01 -1.00000E+00  1.34793E-01
      21    -1     0     0   502   501  0.000000000E+00  0.000000000E+00  8.232446554E+01  8.232446554E+01  0.000000000E+00  0.00000E+00  9.000E+00
      21    -1     0     0   511   502  0.000000000E+00  0.000000000E+00 -8.366002834E+02  8.366002834E+02  0.000000000E+00  0.00000E+00  9.000E+00
      25     1     1     2     0     0  1.513410342E+02  3.483656774E+00 -1.896003919E+02  2.729277434E+02  1.250000000E+02  0.00000E+00  9.000E+00
      25     1     1     2     0     0 -1.284803638E+02 -5.870812061E+01 -1.941800319E+02  2.707115293E+02  1.250000000E+02  0.00000E+00  9.000E+00
      21     1     1     2   511   501 -2.286067046E+01  5.522446383E+01 -3.704953940E+02  3.752854762E+02  0.000000000E+00  0.00000E+00  9.000E+00
#rwgt            1           1   3.9835526928959052E-002           7      318271           0
</event>
<event>
      5   9999  3.79277E-02  3.99883E+01 -1.00000E+00  1.44848E-01
      21    -1     0     0   502   501  0.000000000E+00  0.000000000E+00  5.247806743E+02  5.247806743E+02  0.000000000E+00  0.00000E+00  9.000E+00
      21    -1     0     0   501   512  0.000000000E+00  0.000000000E+00 -1.636169389E+02  1.636169389E+02  0.000000000E+00  0.00000E+00  9.000E+00
      25     1     1     2     0     0  2.141172548E+01  2.035392247E+02  2.814698996E+02  3.697796403E+02  1.250000000E+02  0.00000E+00  9.000E+00
      25     1     1     2     0     0 -6.099784688E+01 -2.091963263E+02  1.039232957E+02  2.718618981E+02  1.250000000E+02  0.00000E+00  9.000E+00
      21     1     1     2   502   512  3.958612140E+01  5.657101637E+00 -2.422945991E+01  4.675607484E+01  6.743495762E-07  0.00000E+00  9.000E+00
#rwgt            1           1   3.7522193011834244E-002           7      318391           0
</event>
<event>
      5   9999  3.79277E-02  3.17689E+01 -1.00000E+00  1.51332E-01
       1    -1     0     0   502     0  0.000000000E+00  0.000000000E+00  2.952494919E+02  2.952494919E+02  0.000000000E+00  0.00000E+00  9.000E+00
      21    -1     0     0   501   502  0.000000000E+00  0.000000000E+00 -1.192963071E+02  1.192963071E+02  0.000000000E+00  0.00000E+00  9.000E+00
      25     1     1     2     0     0 -7.593234684E+01 -1.007087927E+02  6.785383332E+01  1.900976721E+02  1.250000000E+02  0.00000E+00  9.000E+00
      25     1     1     2     0     0  5.377089700E+01  7.794630505E+01  6.236864270E+01  1.687654687E+02  1.250000000E+02  0.00000E+00  9.000E+00
       1     1     1     2   501     0  2.216144983E+01  2.276248769E+01  4.573070875E+01  5.568265823E+01  0.000000000E+00  0.00000E+00  9.000E+00
#rwgt            2          17   1.3924171977823042E-005           7      318631           0
</event>
<event>
      5   9999  3.79277E-02  5.78446E+00 -1.00000E+00  2.27968E-01
      21    -1     0     0   502   501  0.000000000E+00  0.000000000E+00  5.598787935E+02  5.598787935E+02  0.000000000E+00  0.00000E+00  9.000E+00
      21    -1     0     0   511   502  0.000000000E+00  0.000000000E+00 -9.249936212E+01  9.249936212E+01  0.000000000E+00  0.00000E+00  9.000E+00
      25     1     1     2     0     0 -5.947548492E+00 -1.696166270E+02  3.540082603E+02  4.120097351E+02  1.250000000E+02  0.00000E+00  9.000E+00
      25     1     1     2     0     0  5.851270380E+00  1.638329685E+02  1.106847219E+02  2.339905695E+02  1.250000000E+02  0.00000E+00  9.000E+00
      21     1     1     2   511   501  9.627811144E-02  5.783658425E+00  2.686449177E+00  6.377851004E+00  1.074538015E-07  0.00000E+00  9.000E+00
#rwgt            1           1   3.8432259533373980E-002           7      318935           0
</event>
<event>
      5   9999  3.79277E-02  8.57728E+00 -1.00000E+00  2.03791E-01
      21    -1     0     0   502   512  0.000000000E+00  0.000000000E+00  2.746334025E+02  2.746334025E+02  0.000000000E+00  0.00000E+00  9.000E+00
      21    -1     0     0   501   502  0.000000000E+00  0.000000000E+00 -3.438262678E+02  3.438262678E+02  0.000000000E+00  0.00000E+00  9.000E+00
      25     1     1     2     0     0  1.975234685E+02 -3.762902152E+01 -1.894958556E+02  3.032575525E+02  1.250000000E+02  0.00000E+00  9.000E+00
      25     1     1     2     0     0 -1.993859756E+02  4.600164365E+01  5.071510867E+01  2.450876185E+02  1.250000000E+02  0.00000E+00  9.000E+00
      21     1     1     2   501   512  1.862507166E+00 -8.372622127E+00  6.958788164E+01  7.011449925E+01  9.536743164E-07  0.00000E+00  9.000E+00
#rwgt            1           1   2.7783557014458195E-002           7      319358           0
</event>
<event>
      5   9999  3.79277E-02  1.38805E+02 -1.00000E+00  1.17745E-01
      21    -1     0     0   502   501  0.000000000E+00  0.000000000E+00  1.516411126E+02  1.516411126E+02  0.000000000E+00  0.00000E+00  9.000E+00
       2    -1     0     0   501     0  0.000000000E+00  0.000000000E+00 -1.143789304E+03  1.143789304E+03  0.000000000E+00  0.00000E+00  9.000E+00
      25     1     1     2     0     0 -2.306118534E+01  2.058262165E+02 -2.625303425E+01  2.433320190E+02  1.250000000E+02  0.00000E+00  9.000E+00
      25     1     1     2     0     0  8.006247300E+01 -7.926567591E+01 -1.529939329E+02  2.274317270E+02  1.250000000E+02  0.00000E+00  9.000E+00
       2     1     1     2   502     0 -5.700128767E+01 -1.265605406E+02 -8.129012244E+02  8.246666707E+02  0.000000000E+00  0.00000E+00  9.000E+00
#rwgt            1           1   3.7943519938949538E-002           7      319694           0
</event>
<event>
      5   9999  3.79277E-02  4.32908E+01 -1.00000E+00  1.42742E-01
       3    -1     0     0   502     0  0.000000000E+00  0.000000000E+00  6.107634534E+02  6.107634534E+02  0.000000000E+00  0.00000E+00  9.000E+00
      21    -1     0     0   501   502  0.000000000E+00  0.000000000E+00 -2.096976957E+02  2.096976957E+02  0.000000000E+00  0.00000E+00  9.000E+00
      25     1     1     2     0     0  2.958674684E+01 -1.944436728E+02 -4.733342160E+01  2.378006945E+02  1.250000000E+02  0.00000E+00  9.000E+00
      25     1     1     2     0     0  4.895926868E+00  1.682703599E+02  1.012853163E+02  2.328574659E+02  1.250000000E+02  0.00000E+00  9.000E+00
       3     1     1     2   501     0 -3.448267370E+01  2.617331293E+01  3.471138630E+02  3.498029888E+02  5.394796609E-06  0.00000E+00  9.000E+00
#rwgt            1           1   3.6753224343210919E-002           7      319824           0
</event>
<event>
      5   9999  3.79277E-02  2.26426E+01 -1.00000E+00  1.62041E-01
      21    -1     0     0   502   501  0.000000000E+00  0.000000000E+00  3.020931203E+02  3.020931203E+02  0.000000000E+00  0.00000E+00  9.000E+00
      21    -1     0     0   501   511  0.000000000E+00  0.000000000E+00 -4.576812650E+02  4.576812650E+02  0.000000000E+00  0.00000E+00  9.000E+00
      25     1     1     2     0     0  1.636863709E+02 -1.310742123E+02 -6.005111588E+01  2.514056754E+02  1.250000000E+02  0.00000E+00  9.000E+00
      25     1     1     2     0     0 -1.476028070E+02  1.151365677E+02  1.443574035E+02  2.674080736E+02  1.250000000E+02  0.00000E+00  9.000E+00
      21     1     1     2   502   511 -1.608356383E+01  1.593764462E+01 -2.398944323E+02  2.409606362E+02  2.697398305E-06  0.00000E+00  9.000E+00
#rwgt            1           1   5.7597622795842997E-002           7      320041           0
</event>
<event>
      5   9999  3.79277E-02  3.96864E+01 -1.00000E+00  1.45052E-01
      21    -1     0     0   502   501  0.000000000E+00  0.000000000E+00  1.501766264E+02  1.501766264E+02  0.000000000E+00  0.00000E+00  9.000E+00
      21    -1     0     0   512   502  0.000000000E+00  0.000000000E+00 -3.679595782E+02  3.679595782E+02  0.000000000E+00  0.00000E+00  9.000E+00
      25     1     1     2     0     0  6.790208913E-01  8.027993773E+01 -2.344663917E+02  2.775694838E+02  1.250000000E+02  0.00000E+00  9.000E+00
      25     1     1     2     0     0  2.107973998E+01 -1.134698063E+02  6.131427245E+01  1.808430048E+02  1.250000000E+02  0.00000E+00  9.000E+00
      21     1     1     2   512   501 -2.175876087E+01  3.318986857E+01 -4.463083253E+01  5.972371608E+01  8.259061849E-07  0.00000E+00  9.000E+00
#rwgt            1           1   4.7069335328237767E-002           7      320349           0
</event>
<event>
      5   9999  3.79277E-02  3.65719E+01 -1.00000E+00  1.47295E-01
      21    -1     0     0   502   501  0.000000000E+00  0.000000000E+00  8.149122856E+01  8.149122856E+01  0.000000000E+00  0.00000E+00  9.000E+00
      21    -1     0     0   511   502  0.000000000E+00  0.000000000E+00 -5.667596571E+02  5.667596571E+02  0.000000000E+00  0.00000E+00  9.000E+00
      25     1     1     2     0     0 -1.184094371E+02  8.590545146E+01 -2.751678616E+02  3.357720856E+02  1.250000000E+02  0.00000E+00  9.000E+00
      25     1     1     2     0     0  8.439331771E+01 -9.933711023E+01 -1.243838487E+02  2.192861951E+02  1.250000000E+02  0.00000E+00  9.000E+00
      21     1     1     2   511   501  3.401611941E+01  1.343165877E+01 -8.571671827E+01  9.319260501E+01  0.000000000E+00  0.00000E+00  9.000E+00
#rwgt            1           1   2.6973077355116910E-002           7      320481           0
</event>
<event>
      5   9999  3.79277E-02  3.71246E+01 -1.00000E+00  1.46878E-01
      21    -1     0     0   512   501  0.000000000E+00  0.000000000E+00  3.357821594E+02  3.357821594E+02  0.000000000E+00  0.00000E+00  9.000E+00
      21    -1     0     0   501   502  0.000000000E+00  0.000000000E+00 -1.145006338E+02  1.145006338E+02  0.000000000E+00  0.00000E+00  9.000E+00
      25     1     1     2     0     0 -2.289228181E+01 -1.315703295E+02  1.114372695E+02  2.141916740E+02  1.250000000E+02  0.00000E+00  9.000E+00
      25     1     1     2     0     0  2.905752947E+01  9.496124850E+01  5.303122207E+01  1.682239259E+02  1.250000000E+02  0.00000E+00  9.000E+00
      21     1     1     2   512   502 -6.165247656E+00  3.660908102E+01  5.681303406E+01  6.786719333E+01  6.743495762E-07  0.00000E+00  9.000E+00
#rwgt            1           1   2.2911229889792842E-002           7      320591           0
</event>
<event>
      5   9999  3.79277E-02  3.94491E+01 -1.00000E+00  1.45215E-01
      21    -1     0     0   502   511  0.000000000E+00  0.000000000E+00  8.414401449E+02  8.414401449E+02  0.000000000E+00  0.00000E+00  9.000E+00
      21    -1     0     0   501   502  0.000000000E+00  0.000000000E+00 -5.562779536E+01  5.562779536E+01  0.000000000E+00  0.00000E+00  9.000E+00
      25     1     1     2     0     0  4.872811263E+01 -1.441677381E+02  2.871137631E+02  3.481638675E+02  1.250000000E+02  0.00000E+00  9.000E+00
      25     1     1     2     0     0 -9.327104647E+00  1.422197962E+02  4.015103994E+02  4.440147139E+02  1.250000000E+02  0.00000E+00  9.000E+00
      21     1     1     2   501   511 -3.940100798E+01  1.947941879E+00  9.718818697E+01  1.048893588E+02  1.907348633E-06  0.00000E+00  9.000E+00
#rwgt            1           1   2.1297819240533023E-002           7      320700           0
</event>
<event>
      5   9999  3.79277E-02  8.56157E+01 -1.00000E+00  1.26939E-01
      21    -1     0     0   502   501  0.000000000E+00  0.000000000E+00  4.823817505E+02  4.823817505E+02  0.000000000E+00  0.00000E+00  9.000E+00
      21    -1     0     0   512   502  0.000000000E+00  0.000000000E+00 -3.133661797E+02  3.133661797E+02  0.000000000E+00  0.00000E+00  9.000E+00
      25     1     1     2     0     0  1.207264578E+02  5.566039189E+01  3.164759845E+02  3.653149403E+02  1.250000000E+02  0.00000E+00  9.000E+00
      25     1     1     2     0     0 -1.944345038E+02 -9.921693039E+01  9.411249297E+00  2.517187859E+02  1.250000000E+02  0.00000E+00  9.000E+00
      21     1     1     2   512   501  7.370804602E+01  4.355653849E+01 -1.568716629E+02  1.787142040E+02  2.697398305E-06  0.00000E+00  9.000E+00
#rwgt            1           1   3.9603821484645738E-002           7      320854           0
</event>
<event>
      5   9999  3.79277E-02  4.90953E+01 -1.00000E+00  1.39530E-01
      21    -1     0     0   502   501  0.000000000E+00  0.000000000E+00  1.418900519E+02  1.418900519E+02  0.000000000E+00  0.00000E+00  9.000E+00
       2    -1     0     0   501     0  0.000000000E+00  0.000000000E+00 -1.123271491E+03  1.123271491E+03  0.000000000E+00  0.00000E+00  9.000E+00
      25     1     1     2     0     0 -9.689513325E+01 -1.052202563E+02  4.095415198E+01  1.943250157E+02  1.250000000E+02  0.00000E+00  9.000E+00
      25     1     1     2     0     0  1.002886665E+02  5.624241237E+01 -2.842900772E+02  3.311598913E+02  1.250000000E+02  0.00000E+00  9.000E+00
       2     1     1     2   502     0 -3.393533265E+00  4.897784393E+01 -7.380455137E+02  7.396766358E+02  0.000000000E+00  0.00000E+00  9.000E+00
#rwgt            1           1   3.8852241144988378E-002           7      320924           0
</event>
<event>
      5   9999  3.79277E-02  5.25075E+01 -1.00000E+00  1.37874E-01
      21    -1     0     0   502   511  0.000000000E+00  0.000000000E+00  3.217765721E+02  3.217765721E+02  0.000000000E+00  0.00000E+00  9.000E+00
      21    -1     0     0   501   502  0.000000000E+00  0.000000000E+00 -1.057915627E+03  1.057915627E+03  0.000000000E+00  0.00000E+00  9.000E+00
      25     1     1     2     0     0  5.461230572E+01 -7.969081503E+01 -9.201543932E+02  9.336178218E+02  1.250000000E+02  0.00000E+00  9.000E+00
      25     1     1     2     0     0 -8.418457778E+01  3.630282477E+01 -8.169504952E+01  1.752256241E+02  1.250000000E+02  0.00000E+00  9.000E+00
      21     1     1     2   501   511  2.957227207E+01  4.338799025E+01  2.657103878E+02  2.708487533E+02  3.814697266E-06  0.00000E+00  9.000E+00
#rwgt            1           1   4.2681284836468152E-002           7      321098           0
</event>
<event>
      5   9999  3.79277E-02  1.22729E+02 -1.00000E+00  1.19955E-01
      21    -1     0     0   502   512  0.000000000E+00  0.000000000E+00  2.093139220E+03  2.093139220E+03  0.000000000E+00  0.00000E+00  9.000E+00
      21    -1     0     0   501   502  0.000000000E+00  0.000000000E+00 -3.212446139E+02  3.212446139E+02  0.000000000E+00  0.00000E+00  9.000E+00
      25     1     1     2     0     0 -1.864837842E+02  2.547587527E+02  2.317691157E+02  4.111205989E+02  1.250000000E+02  0.00000E+00  9.000E+00
      25     1     1     2     0     0  1.886974786E+02 -1.320500699E+02 -1.544978959E+02  3.042015109E+02  1.250000000E+02  0.00000E+00  9.000E+00
      21     1     1     2   501   512 -2.213694392E+00 -1.227086828E+02  1.694623386E+03  1.699061724E+03  3.051757812E-05  0.00000E+00  9.000E+00
#rwgt            1           1   3.0627136247387596E-002           7      321171           0
</event>
<event>
      5   9999  3.79277E-02  1.90729E+01 -1.00000E+00  1.68088E-01
      21    -1     0     0   502   511  0.000000000E+00  0.000000000E+00  1.849398019E+02  1.849398019E+02  0.000000000E+00  0.00000E+00  9.000E+00
      21    -1     0     0   501   502  0.000000000E+00  0.000000000E+00 -9.955491064E+02  9.955491064E+02  0.000000000E+00  0.00000E+00  9.000E+00
      25     1     1     2     0     0 -1.209989864E+02 -1.116958288E+02 -1.139275202E+02  2.360533684E+02  1.250000000E+02  0.00000E+00  9.000E+00
      25     1     1     2     0     0  1.270753198E+02  1.297748780E+02 -8.048981846E+02  8.345512227E+02  1.250000000E+02  0.00000E+00  9.000E+00
      21     1     1     2   501   511 -6.076333431E+00 -1.807904919E+01  1.082164003E+02  1.098843171E+02  1.348699152E-06  0.00000E+00  9.000E+00
#rwgt            1           1   3.4479911350881257E-002           7      321231           0
</event>
<event>
      5   9999  3.79277E-02  1.28002E+01 -1.00000E+00  1.84128E-01
      21    -1     0     0   502   512  0.000000000E+00  0.000000000E+00  5.195945763E+02  5.195945763E+02  0.000000000E+00  0.00000E+00  9.000E+00
      21    -1     0     0   501   502  0.000000000E+00  0.000000000E+00 -2.767607734E+02  2.767607734E+02  0.000000000E+00  0.00000E+00  9.000E+00
      25     1     1     2     0     0  1.820031837E+01  5.595279713E+01  2.653407285E+02  2.991532539E+02  1.250000000E+02  0.00000E+00  9.000E+00
      25     1     1     2     0     0 -1.091229821E+01 -4.542994564E+01 -2.425235969E+02  2.768133907E+02  1.250000000E+02  0.00000E+00  9.000E+00
      21     1     1     2   501   512 -7.288020160E+00 -1.052285149E+01  2.200166713E+02  2.203887050E+02  2.697398305E-06  0.00000E+00  9.000E+00
#rwgt            1           1   3.7094860396312580E-002           7      321444           0
</event>
<event>
      5   9999  3.79277E-02  4.83723E+01 -1.00000E+00  1.39901E-01
      21    -1     0     0   502   501  0.000000000E+00  0.000000000E+00  1.126040493E+02  1.126040493E+02  0.000000000E+00  0.00000E+00  9.000E+00
      21    -1     0     0   501   511  0.000000000E+00  0.000000000E+00 -6.699479382E+02  6.699479382E+02  0.000000000E+00  0.00000E+00  9.000E+00
      25     1     1     2     0     0 -3.725890158E+01  2.290657509E+02 -2.795439377E+02  3.842253988E+02  1.250000000E+02  0.00000E+00  9.000E+00
      25     1     1     2     0     0  4.123280907E+00 -1.938249812E+02 -1.932830084E+02  3.009459189E+02  1.250000000E+02  0.00000E+00  9.000E+00
      21     1     1     2   502   511  3.313562068E+01 -3.524076976E+01 -8.451694288E+01  9.738066977E+01  1.348699152E-06  0.00000E+00  9.000E+00
#rwgt            1           1   3.4326884078822846E-002           7      321692           0
</event>
<event>
      5   9999  3.79277E-02  2.12663E+01 -1.00000E+00  1.64199E-01
      21    -1     0     0   502   512  0.000000000E+00  0.000000000E+00  1.621595995E+03  1.621595995E+03  0.000000000E+00  0.00000E+00  9.000E+00
      21    -1     0     0   501   502  0.000000000E+00  0.000000000E+00 -3.726924853E+01  3.726924853E+01  0.000000000E+00  0.00000E+00  9.000E+00
      25     1     1     2     0     0  9.021238239E+01  9.911989239E+01  1.096893579E+03  1.112098715E+03  1.250000000E+02  0.00000E+00  9.000E+00
      25     1     1     2     0     0 -7.097636762E+01 -1.081879535E+02  2.479646922E+02  3.063556211E+02  1.250000000E+02  0.00000E+00  9.000E+00
      21     1     1     2   501   512 -1.923601477E+01  9.068061091E+00  2.394684749E+02  2.404109076E+02  2.697398305E-06  0.00000E+00  9.000E+00
#rwgt            1           1   3.4692775890308392E-002           7      321801           0
</event>
<event>
      5   9999  3.79277E-02  9.74773E+00 -1.00000E+00  1.97049E-01
      21    -1     0     0   502   501  0.000000000E+00  0.000000000E+00  1.293007939E+02  1.293007939E+02  0.000000000E+00  0.00000E+00  9.000E+00
      21    -1     0     0   501   511  0.000000000E+00  0.000000000E+00 -6.331266294E+02  6.331266294E+02  0.000000000E+00  0.00000E+00  9.000E+00
      25     1     1     2     0     0  5.415827553E+01  2.767425625E+01 -2.192592313E+02  2.596123914E+02  1.250000000E+02  0.00000E+00  9.000E+00
      25     1     1     2     0     0 -4.706142023E+01 -3.435653857E+01  6.545471116E+01  1.526580107E+02  1.250000000E+02  0.00000E+00  9.000E+00
      21     1     1     2   502   511 -7.096855301E+00  6.682282323E+00 -3.500213154E+02  3.501570212E+02  6.607249480E-06  0.00000E+00  9.000E+00
#rwgt            1           1   4.6098974667201989E-002           7      322047           0
</event>
<event>
      5   9999  3.79277E-02  7.59390E+00 -1.00000E+00  2.10673E-01
      21    -1     0     0   502   501  0.000000000E+00  0.000000000E+00  1.138283220E+03  1.138283220E+03  0.000000000E+00  0.00000E+00  9.000E+00
      21    -1     0     0   512   502  0.000000000E+00  0.000000000E+00 -4.354252451E+01  4.354252451E+01  0.000000000E+00  0.00000E+00  9.000E+00
      25     1     1     2     0     0  1.633881893E+02  1.685441769E+01  6.017602617E+02  6.361762212E+02  1.250000000E+02  0.00000E+00  9.000E+00
      25     1     1     2     0     0 -1.612814864E+02 -2.415025110E+01  4.964564807E+02  5.372978594E+02  1.250000000E+02  0.00000E+00  9.000E+00
      21     1     1     2   512   501 -2.106702855E+00  7.295833409E+00 -3.476047192E+00  8.351663674E+00  5.960464478E-08  0.00000E+00  9.000E+00
#rwgt            1           1  0.20737997356745508                7      322343           0
</event>
<event>
      5   9999  3.79277E-02  1.42960E+01 -1.00000E+00  1.79373E-01
      21    -1     0     0   502   501  0.000000000E+00  0.000000000E+00  6.210215902E+01  6.210215902E+01  0.000000000E+00  0.00000E+00  9.000E+00
      21    -1     0     0   511   502  0.000000000E+00  0.000000000E+00 -1.417848806E+03  1.417848806E+03  0.000000000E+00  0.00000E+00  9.000E+00
      25     1     1     2     0     0  1.733246690E+02  1.694927763E+02 -4.511412351E+02  5.271837024E+02  1.250000000E+02  0.00000E+00  9.000E+00
      25     1     1     2     0     0 -1.874357027E+02 -1.672007404E+02 -8.128775289E+02  8.599320364E+02  1.250000000E+02  0.00000E+00  9.000E+00
      21     1     1     2   511   501  1.411103378E+01 -2.292035924E+00 -9.172788249E+01  9.283522569E+01  1.348699152E-06  0.00000E+00  9.000E+00
#rwgt            1           1   4.2882490486657349E-002           7      322635           0
</event>
<event>
      5   9999  3.79277E-02  1.03520E+02 -1.00000E+00  1.23156E-01
      21    -1     0     0   502   501  0.000000000E+00  0.000000000E+00  1.441505199E+03  1.441505199E+03  0.000000000E+00  0.00000E+00  9.000E+00
       2    -1     0     0   501     0  0.000000000E+00  0.000000000E+00 -1.515524807E+02  1.515524807E+02  0.000000000E+00  0.00000E+00  9.000E+00
      25     1     1     2     0     0  1.268909526E+02 -3.477167130E+00  4.844169658E+02  5.161377736E+02  1.250000000E+02  0.00000E+00  9.000E+00
      25     1     1     2     0     0 -8.498476273E+01  9.813578132E+01  9.112860774E+02  9.289350657E+02  1.250000000E+02  0.00000E+00  9.000E+00
       2     1     1     2   502     0 -4.190618989E+01 -9.465861419E+01 -1.057503245E+02  1.479848409E+02  2.697398305E-06  0.00000E+00  9.000E+00
#rwgt            1           1   4.7081366878026762E-002           7      322838           0
</event>
<event>
      5   9999  3.79277E-02  3.24252E+02 -1.00000E+00  1.04507E-01
      21    -1     0     0   502   501  0.000000000E+00  0.000000000E+00  7.222272580E+02  7.222272580E+02  0.000000000E+00  0.00000E+00  9.000E+00
       2    -1     0     0   501     0  0.000000000E+00  0.000000000E+00 -5.058308288E+02  5.058308288E+02  0.000000000E+00  0.00000E+00  9.000E+00
      25     1     1     2     0     0 -2.199923503E+02 -2.707011559E+01  4.759122955E+02  5.396729921E+02  1.250000000E+02  0.00000E+00  9.000E+00
      25     1     1     2     0     0 -5.733291632E+00 -2.057110204E+02  4.339335146E+01  2.446586960E+02  1.250000000E+02  0.00000E+00  9.000E+00
       2     1     1     2   502     0  2.257256419E+02  2.327811360E+02 -3.029092178E+02  4.437263987E+02  6.607249480E-06  0.00000E+00  9.000E+00
#rwgt            2          13   3.6229375980627125E-004           7      322976           0
</event>
<event>
      5   9999  3.79277E-02  3.37223E+01 -1.00000E+00  1.49593E-01
      21    -1     0     0   511   501  0.000000000E+00  0.000000000E+00  6.922838396E+02  6.922838396E+02  0.000000000E+00  0.00000E+00  9.000E+00
      21    -1     0     0   501   502  0.000000000E+00  0.000000000E+00 -1.142403786E+02  1.142403786E+02  0.000000000E+00  0.00000E+00  9.000E+00
      25     1     1     2     0     0  9.041893018E+01  5.587796535E+01  3.954825766E+01  1.687809072E+02  1.250000000E+02  0.00000E+00  9.000E+00
      25     1     1     2     0     0 -1.240195717E+02 -5.301585088E+01  1.238066219E+02  2.216858459E+02  1.250000000E+02  0.00000E+00  9.000E+00
      21     1     1     2   511   502  3.360064157E+01 -2.862114467E+00  4.146885814E+02  4.160574652E+02  0.000000000E+00  0.00000E+00  9.000E+00
#rwgt            1           1   2.6992466638289577E-002           7      323025           0
</event>
<event>
      5   9999  3.79277E-02  2.38762E+01 -1.00000E+00  1.60262E-01
      21    -1     0     0   502   512  0.000000000E+00  0.000000000E+00  5.623466310E+01  5.623466310E+01  0.000000000E+00  0.00000E+00  9.000E+00
      21    -1     0     0   501   502  0.000000000E+00  0.000000000E+00 -7.985890258E+02  7.985890258E+02  0.000000000E+00  0.00000E+00  9.000E+00
      25     1     1     2     0     0 -9.729692040E+01 -8.844322884E+01 -4.812587552E+02  5.143188552E+02  1.250000000E+02  0.00000E+00  9.000E+00
      25     1     1     2     0     0  1.124854038E+02  7.002086454E+01 -2.588560167E+02  3.165238141E+02  1.250000000E+02  0.00000E+00  9.000E+00
      21     1     1     2   501   512 -1.518848337E+01  1.842236430E+01 -2.239590911E+00  2.398101959E+01  1.632340424E-07  0.00000E+00  9.000E+00
#rwgt            1           1   4.1031392331447501E-002           7      323192           0
</event>
<event>
      5   9999  3.79277E-02  5.51289E+01 -1.00000E+00  1.36698E-01
      21    -1     0     0   502   501  0.000000000E+00  0.000000000E+00  4.814319962E+02  4.814319962E+02  0.000000000E+00  0.00000E+00  9.000E+00
      21    -1     0     0   511   502  0.000000000E+00  0.000000000E+00 -1.533750747E+02  1.533750747E+02  0.000000000E+00  0.00000E+00  9.000E+00
      25     1     1     2     0     0  1.898951789E+01  1.994075390E+02  2.153797004E+02  3.195893986E+02  1.250000000E+02  0.00000E+00  9.000E+00
      25     1     1     2     0     0  3.613917733E+01 -1.995735045E+02  1.015106522E+02  2.589691803E+02  1.250000000E+02  0.00000E+00  9.000E+00
      21     1     1     2   511   501 -5.512869522E+01  1.659655786E-01  1.116656887E+01  5.624849191E+01  7.539457465E-07  0.00000E+00  9.000E+00
#rwgt            1           1   3.5962592613956013E-002           7      323365           0
</event>
<event>
      5   9999  3.79277E-02  4.20868E+01 -1.00000E+00  1.43484E-01
      21    -1     0     0   502   501  0.000000000E+00  0.000000000E+00  1.736931798E+02  1.736931798E+02  0.000000000E+00  0.00000E+00  9.000E+00
      -1    -1     0     0     0   502  0.000000000E+00  0.000000000E+00 -7.989294841E+02  7.989294841E+02  0.000000000E+00  0.00000E+00  9.000E+00
      25     1     1     2     0     0 -3.654468059E+01  1.578827143E+00  1.137584257E+02  1.729276895E+02  1.250000000E+02  0.00000E+00  9.000E+00
      25     1     1     2     0     0  4.905463314E+01  3.860570923E+01 -1.351637836E+02  1.943990901E+02  1.250000000E+02  0.00000E+00  9.000E+00
      -1     1     1     2     0   501 -1.250995255E+01 -4.018453637E+01 -6.038309463E+02  6.052958843E+02  1.078959322E-05  0.00000E+00  9.000E+00
#rwgt            1           1   4.2413535169447458E-002           7      323484           0
</event>
<event>
      5   9999  3.79277E-02  7.34237E+00 -1.00000E+00  2.12664E-01
      21    -1     0     0   511   501  0.000000000E+00  0.000000000E+00  6.467642885E+02  6.467642885E+02  0.000000000E+00  0.00000E+00  9.000E+00
      21    -1     0     0   501   502  0.000000000E+00  0.000000000E+00 -4.357802993E+01  4.357802993E+01  0.000000000E+00  0.00000E+00  9.000E+00
      25     1     1     2     0     0 -3.848231686E+01 -3.262508263E+01  9.956879166E+01  1.675834986E+02  1.250000000E+02  0.00000E+00  9.000E+00
      25     1     1     2     0     0  3.697816787E+01  2.543843479E+01  4.785165004E+02  4.966060209E+02  1.250000000E+02  0.00000E+00  9.000E+00
      21     1     1     2   511   502  1.504148989E+00  7.186647841E+00  2.510096657E+01  2.615279897E+01  3.371747881E-07  0.00000E+00  9.000E+00
#rwgt            1           1   6.2942308253274751E-002           7      323609           0
</event>
<event>
      5   9999  3.79277E-02  4.92199E+01 -1.00000E+00  1.39466E-01
      21    -1     0     0   502   501  0.000000000E+00  0.000000000E+00  1.132927820E+02  1.132927820E+02  0.000000000E+00  0.00000E+00  9.000E+00
      21    -1     0     0   512   502  0.000000000E+00  0.000000000E+00 -5.490413792E+02  5.490413792E+02  0.000000000E+00  0.00000E+00  9.000E+00
      25     1     1     2     0     0 -9.616172207E+01 -2.340217692E+01  7.450613327E+00  1.596096811E+02  1.250000000E+02  0.00000E+00  9.000E+00
      25     1     1     2     0     0  5.543603339E+01  5.104300344E+01 -1.653705579E+02  2.205696339E+02  1.250000000E+02  0.00000E+00  9.000E+00
      21     1     1     2   512   501  4.072568867E+01 -2.764082652E+01 -2.778286526E+02  2.821548462E+02  3.814697266E-06  0.00000E+00  9.000E+00
#rwgt            1           1   5.2666649531932050E-002           7      324015           0
</event>
<event>
      5   9999  3.79277E-02  6.84479E+01 -1.00000E+00  1.31716E-01
      21    -1     0     0   502   501  0.000000000E+00  0.000000000E+00  9.355891629E+02  9.355891629E+02  0.000000000E+00  0.00000E+00  9.000E+00
      21    -1     0     0   501   511  0.000000000E+00  0.000000000E+00 -1.044023930E+03  1.044023930E+03  0.000000000E+00  0.00000E+00  9.000E+00
      25     1     1     2     0     0  6.842943921E+00 -3.594449186E+02  3.203846331E+02  4.975126014E+02  1.250000000E+02  0.00000E+00  9.000E+00
      25     1     1     2     0     0  6.115046213E+01  3.515699146E+02  4.572832923E+02  5.933580650E+02  1.250000000E+02  0.00000E+00  9.000E+00
      21     1     1     2   502   511 -6.799340605E+01  7.875004050E+00 -8.861026929E+02  8.887424268E+02  0.000000000E+00  0.00000E+00  9.000E+00
#rwgt            1           1   4.0626921099765158E-002           7      324110           0
</event>
<event>
      5   9999  3.79277E-02  2.60034E+02 -1.00000E+00  1.07650E-01
      21    -1     0     0   502   501  0.000000000E+00  0.000000000E+00  3.998429396E+01  3.998429396E+01  0.000000000E+00  0.00000E+00  9.000E+00
       2    -1     0     0   501     0  0.000000000E+00  0.000000000E+00 -3.902937507E+03  3.902937507E+03  0.000000000E+00  0.00000E+00  9.000E+00
      25     1     1     2     0     0 -8.062132035E+01 -1.480765161E+02 -6.321446202E+02  6.660767769E+02  1.250000000E+02  0.00000E+00  9.000E+00
      25     1     1     2     0     0  2.547158160E+02 -4.507777098E+01 -1.710178635E+03  1.734141896E+03  1.250000000E+02  0.00000E+00  9.000E+00
       2     1     1     2   502     0 -1.740944957E+02  1.931542871E+02 -1.520629958E+03  1.542703128E+03  3.737624730E-05  0.00000E+00  9.000E+00
#rwgt            1           1  0.69719040719164227                7      324267           0
</event>
<event>
      5   9999  3.79277E-02  2.14594E+01 -1.00000E+00  1.63884E-01
      21    -1     0     0   502   501  0.000000000E+00  0.000000000E+00  1.360880488E+02  1.360880488E+02  0.000000000E+00  0.00000E+00  9.000E+00
       2    -1     0     0   501     0  0.000000000E+00  0.000000000E+00 -1.841900853E+03  1.841900853E+03  0.000000000E+00  0.00000E+00  9.000E+00
      25     1     1     2     0     0 -3.913405906E+02 -1.310392267E+02 -6.710055499E+02  7.976165650E+02  1.250000000E+02  0.00000E+00  9.000E+00
      25     1     1     2     0     0  4.107427661E+02  1.218706725E+02 -6.142581049E+02  7.592760369E+02  1.250000000E+02  0.00000E+00  9.000E+00
       2     1     1     2   502     0 -1.940217556E+01  9.168554123E+00 -4.205491496E+02  4.210963002E+02  5.394796609E-06  0.00000E+00  9.000E+00
#rwgt            1           1   1.8206474406681123E-002           7      324404           0
</event>
<event>
      5   9999  3.79277E-02  3.32993E+01 -1.00000E+00  1.49958E-01
      21    -1     0     0   511   501  0.000000000E+00  0.000000000E+00  3.542808337E+02  3.542808337E+02  0.000000000E+00  0.00000E+00  9.000E+00
      21    -1     0     0   501   502  0.000000000E+00  0.000000000E+00 -3.310712205E+02  3.310712205E+02  0.000000000E+00  0.00000E+00  9.000E+00
      25     1     1     2     0     0  7.090811338E+01  1.536433475E+02 -1.826089395E+02  2.785772129E+02  1.250000000E+02  0.00000E+00  9.000E+00
      25     1     1     2     0     0 -8.659001987E+01 -1.830188578E+02  4.452129854E+01  2.420761861E+02  1.250000000E+02  0.00000E+00  9.000E+00
      21     1     1     2   511   502  1.568190649E+01  2.937551026E+01  1.612972542E+02  1.646986552E+02  1.907348633E-06  0.00000E+00  9.000E+00
#rwgt            1           1   4.2148162334446168E-002           7      324755           0
</event>
<event>
      5   9999  3.79277E-02  1.39078E+02 -1.00000E+00  1.17710E-01
      21    -1     0     0   502   501  0.000000000E+00  0.000000000E+00  1.024600422E+03  1.024600422E+03  0.000000000E+00  0.00000E+00  9.000E+00
      21    -1     0     0   501   512  0.000000000E+00  0.000000000E+00 -1.745137366E+02  1.745137366E+02  0.000000000E+00  0.00000E+00  9.000E+00
      25     1     1     2     0     0  3.073959201E+01 -1.450322557E+02  1.036850534E+02  2.198974034E+02  1.250000000E+02  0.00000E+00  9.000E+00
      25     1     1     2     0     0 -1.331787857E+02  2.391003771E+02  7.801006699E+02  8.361146060E+02  1.250000000E+02  0.00000E+00  9.000E+00
      21     1     1     2   502   512  1.024391937E+02 -9.406812136E+01 -3.369903811E+01  1.431021489E+02  2.431401974E-06  0.00000E+00  9.000E+00
#rwgt            1           1  0.18129506472279730                7      324927           0
</event>
<event>
      5   9999  3.79277E-02  4.90911E+01 -1.00000E+00  1.39532E-01
      21    -1     0     0   502   511  0.000000000E+00  0.000000000E+00  1.566754959E+03  1.566754959E+03  0.000000000E+00  0.00000E+00  9.000E+00
      21    -1     0     0   501   502  0.000000000E+00  0.000000000E+00 -8.931674276E+01  8.931674276E+01  0.000000000E+00  0.00000E+00  9.000E+00
      25     1     1     2     0     0  1.686525139E+01 -2.973741710E+01  1.332253836E+03  1.338541757E+03  1.250000000E+02  0.00000E+00  9.000E+00
      25     1     1     2     0     0 -3.042184083E+01  7.691956423E+01 -1.438583759E+01  1.505790825E+02  1.250000000E+02  0.00000E+00  9.000E+00
      21     1     1     2   501   511  1.355658944E+01 -4.718214714E+01  1.595702180E+02  1.669508629E+02  2.697398305E-06  0.00000E+00  9.000E+00
#rwgt            1           1   4.7069899947700347E-002           7      325008           0
</event>
<event>
      5   9999  3.79277E-02  2.30275E+01 -1.00000E+00  1.61472E-01
      21    -1     0     0   512   501  0.000000000E+00  0.000000000E+00  2.258747152E+03  2.258747152E+03  0.000000000E+00  0.00000E+00  9.000E+00
      21    -1     0     0   501   502  0.000000000E+00  0.000000000E+00 -2.735447936E+02  2.735447936E+02  0.000000000E+00  0.00000E+00  9.000E+00
      25     1     1     2     0     0  8.713101603E+01 -1.210237574E+02  6.642573251E+01  2.056111421E+02  1.250000000E+02  0.00000E+00  9.000E+00
      25     1     1     2     0     0 -1.082873752E+02  1.301162844E+02 -1.495917631E+02  2.581842340E+02  1.250000000E+02  0.00000E+00  9.000E+00
      21     1     1     2   512   502  2.115635919E+01 -9.092527087E+00  2.068368389E+03  2.068496570E+03  3.051757812E-05  0.00000E+00  9.000E+00
#rwgt            1           1   5.7594636114071361E-002           7      325180           0
</event>
<event>
      5   9999  3.79277E-02  1.88739E+02 -1.00000E+00  1.12572E-01
      21    -1     0     0   511   501  0.000000000E+00  0.000000000E+00  7.498853707E+02  7.498853707E+02  0.000000000E+00  0.00000E+00  9.000E+00
      21    -1     0     0   501   502  0.000000000E+00  0.000000000E+00 -5.074182836E+02  5.074182836E+02  0.000000000E+00  0.00000E+00  9.000E+00
      25     1     1     2     0     0 -1.843131004E+02  2.523675642E+02 -3.870296063E+02  5.129109304E+02  1.250000000E+02  0.00000E+00  9.000E+00
      25     1     1     2     0     0  4.944228373E+01 -1.203360412E+02  1.710425788E+02  2.486078558E+02  1.250000000E+02  0.00000E+00  9.000E+00
      21     1     1     2   511   502  1.348708166E+02 -1.320315230E+02  4.584541145E+02  4.957848680E+02  0.000000000E+00  0.00000E+00  9.000E+00
#rwgt            1           1   2.7311394304827780E-002           7      325343           0
</event>
<event>
      5   9999  3.79277E-02  1.05506E+02 -1.00000E+00  1.22790E-01
      21    -1     0     0   502   501  0.000000000E+00  0.000000000E+00  1.796168087E+02  1.796168087E+02  0.000000000E+00  0.00000E+00  9.000E+00
      21    -1     0     0   512   502  0.000000000E+00  0.000000000E+00 -5.636061935E+02  5.636061935E+02  0.000000000E+00  0.00000E+00  9.000E+00
      25     1     1     2     0     0 -1.284898352E+02 -1.127214117E+02 -3.185694436E+01  2.141392522E+02  1.250000000E+02  0.00000E+00  9.000E+00
      25     1     1     2     0     0  2.339959557E+02  1.124569045E+02 -2.757751228E+02  3.988453096E+02  1.250000000E+02  0.00000E+00  9.000E+00
      21     1     1     2   512   501 -1.055061204E+02  2.645072104E-01 -7.635731768E+01  1.302384405E+02  9.536743164E-07  0.00000E+00  9.000E+00
#rwgt            1           1   2.8311213540509958E-002           7      325409           0
</event>
<event>
      5   9999  3.79277E-02  8.35876E+01 -1.00000E+00  1.27434E-01
      21    -1     0     0   502   511  0.000000000E+00  0.000000000E+00  3.866753609E+02  3.866753609E+02  0.000000000E+00  0.00000E+00  9.000E+00
      21    -1     0     0   501   502  0.000000000E+00  0.000000000E+00 -9.846187004E+02  9.846187004E+02  0.000000000E+00  0.00000E+00  9.000E+00
      25     1     1     2     0     0  7.731098394E+00  3.550358088E+01 -9.021315276E+01  1.583783037E+02  1.250000000E+02  0.00000E+00  9.000E+00
      25     1     1     2     0     0  5.270757530E+01 -9.324487357E+01 -8.473342495E+02  8.631761265E+02  1.250000000E+02  0.00000E+00  9.000E+00
      21     1     1     2   501   511 -6.043867370E+01  5.774129269E+01  3.396040627E+02  3.497396311E+02  3.814697266E-06  0.00000E+00  9.000E+00
#rwgt            1           1   3.9482554507554279E-002           7      325607           0
</event>
<event>
      5   9999  3.79277E-02  4.64943E+01 -1.00000E+00  1.40901E-01
      21    -1     0     0   502   501  0.000000000E+00  0.000000000E+00  1.410836990E+02  1.410836990E+02  0.000000000E+00  0.00000E+00  9.000E+00
      21    -1     0     0   512   502  0.000000000E+00  0.000000000E+00 -4.828260064E+02  4.828260064E+02  0.000000000E+00  0.00000E+00  9.000E+00
      25     1     1     2     0     0  1.927538804E+02  1.737261613E+00 -1.133144406E+02  2.561683800E+02  1.250000000E+02  0.00000E+00  9.000E+00
      25     1     1     2     0     0 -1.484920173E+02  1.249670267E+01 -7.674953144E+01  2.090969568E+02  1.250000000E+02  0.00000E+00  9.000E+00
      21     1     1     2   512   501 -4.426186314E+01 -1.423396428E+01 -1.516783354E+02  1.586443686E+02  2.697398305E-06  0.00000E+00  9.000E+00
#rwgt            1           1   3.0740515243341583E-002           7      325696           0
</event>
<event>
      5   9999  3.79277E-02  8.93919E+00 -1.00000E+00  2.01561E-01
      21    -1     0     0   502   501  0.000000000E+00  0.000000000E+00  1.620095405E+02  1.620095405E+02  0.000000000E+00  0.00000E+00  9.000E+00
      21    -1     0     0   501   511  0.000000000E+00  0.000000000E+00 -2.823723676E+02  2.823723676E+02  0.000000000E+00  0.00000E+00  9.000E+00
      25     1     1     2     0     0  7.353128191E+01  9.515200462E+01 -1.820235694E+02  2.514325620E+02  1.250000000E+02  0.00000E+00  9.000E+00
      25     1     1     2     0     0 -6.515375485E+01 -9.827068697E+01  6.454393568E+01  1.835566924E+02  1.250000000E+02  0.00000E+00  9.000E+00
      21     1     1     2   502   511 -8.377527069E+00  3.118682352E+00 -2.883193331E+00  9.392653682E+00  1.397852826E-07  0.00000E+00  9.000E+00
#rwgt            1           1   3.7011161068046243E-002           7      325940           0
</event>
<event>
      5   9999  3.79277E-02  8.79227E+01 -1.00000E+00  1.26395E-01
      21    -1     0     0   512   501  0.000000000E+00  0.000000000E+00  1.019828970E+03  1.019828970E+03  0.000000000E+00  0.00000E+00  9.000E+00
      21    -1     0     0   501   502  0.000000000E+00  0.000000000E+00 -7.476960133E+01  7.476960133E+01  0.000000000E+00  0.00000E+00  9.000E+00
      25     1     1     2     0     0  3.703252413E+01  6.705756236E+01  6.910821939E+02  7.064614096E+02  1.250000000E+02  0.00000E+00  9.000E+00
      25     1     1     2     0     0 -1.064735371E+02 -1.312850887E+01  6.025891112E+01  1.753998524E+02  1.250000000E+02  0.00000E+00  9.000E+00
      21     1     1     2   512   502  6.944101300E+01 -5.392905349E+01  1.937182633E+02  2.127373089E+02  2.697398305E-06  0.00000E+00  9.000E+00
#rwgt            1           1   4.6335907476196890E-002           7      326187           0
</event>
<event>
      5   9999  3.79277E-02  2.79047E+01 -1.00000E+00  1.55256E-01
      21    -1     0     0   502   511  0.000000000E+00  0.000000000E+00  7.638921158E+02  7.638921158E+02  0.000000000E+00  0.00000E+00  9.000E+00
      21    -1     0     0   501   502  0.000000000E+00  0.000000000E+00 -1.523710915E+02  1.523710915E+02  0.000000000E+00  0.00000E+00  9.000E+00
      25     1     1     2     0     0  2.170616851E+02  1.516820796E+02  9.885197461E+01  3.090630054E+02  1.250000000E+02  0.00000E+00  9.000E+00
      25     1     1     2     0     0 -1.983028974E+02 -1.723406983E+02  4.238464043E+02  5.140973934E+02  1.250000000E+02  0.00000E+00  9.000E+00
      21     1     1     2   501   511 -1.875878768E+01  2.065861873E+01  8.882264538E+01  9.310280863E+01  0.000000000E+00  0.00000E+00  9.000E+00
#rwgt            1           1   3.7327407676326495E-002           7      326557           0
</event>
<event>
      5   9999  3.79277E-02  1.57838E+01 -1.00000E+00  1.75325E-01
      21    -1     0     0   502   501  0.000000000E+00  0.000000000E+00  9.911383709E+02  9.911383709E+02  0.000000000E+00  0.00000E+00  9.000E+00
      21    -1     0     0   501   512  0.000000000E+00  0.000000000E+00 -1.023020864E+02  1.023020864E+02  0.000000000E+00  0.00000E+00  9.000E+00
      25     1     1     2     0     0  1.088854661E+02 -3.964660868E+01  2.818101861E+02  3.293476572E+02  1.250000000E+02  0.00000E+00  9.000E+00
      25     1     1     2     0     0 -1.167646381E+02  5.332306605E+01  6.729046810E+02  6.963497970E+02  1.250000000E+02  0.00000E+00  9.000E+00
      21     1     1     2   502   512  7.879171948E+00 -1.367645737E+01 -6.587858251E+01  6.774300311E+01  9.536743164E-07  0.00000E+00  9.000E+00
#rwgt            1           1   6.1814543135826967E-002           7      326785           0
</event>
<event>
      5   9999  3.79277E-02  2.82988E+01 -1.00000E+00  1.54822E-01
      21    -1     0     0   511   501  0.000000000E+00  0.000000000E+00  1.860120102E+02  1.860120102E+02  0.000000000E+00  0.00000E+00  9.000E+00
      21    -1     0     0   501   502  0.000000000E+00  0.000000000E+00 -4.649796573E+02  4.649796573E+02  0.000000000E+00  0.00000E+00  9.000E+00
      25     1     1     2     0     0  1.647626623E+02 -3.161201854E+01 -3.237388997E+02  3.854580779E+02  1.250000000E+02  0.00000E+00  9.000E+00
      25     1     1     2     0     0 -1.807829699E+02  5.493946522E+01  1.915094379E+01  2.273600354E+02  1.250000000E+02  0.00000E+00  9.000E+00
      21     1     1     2   511   502  1.602030756E+01 -2.332744668E+01  2.562030884E+01  3.817355430E+01  9.536743164E-07  0.00000E+00  9.000E+00
#rwgt            1           1   3.6914592000816850E-002           7      326970           0
</event>
<event>
      5   9999  3.79277E-02  4.95595E+01 -1.00000E+00  1.39295E-01
      21    -1     0     0   502   512  0.000000000E+00  0.000000000E+00  7.631448243E+02  7.631448243E+02  0.000000000E+00  0.00000E+00  9.000E+00
      21    -1     0     0   501   502  0.000000000E+00  0.000000000E+00 -9.577174658E+01  9.577174658E+01  0.000000000E+00  0.00000E+00  9.000E+00
      25     1     1     2     0     0 -8.006073146E+01 -1.281080439E+02  6.335117511E+01  2.060576691E+02  1.250000000E+02  0.00000E+00  9.000E+00
      25     1     1     2     0     0  3.488928478E+01  1.484964086E+02  4.579879993E+02  4.986446160E+02  1.250000000E+02  0.00000E+00  9.000E+00
      21     1     1     2   501   512  4.517144667E+01 -2.038836472E+01  1.460339033E+02  1.542142857E+02  1.907348633E-06  0.00000E+00  9.000E+00
#rwgt            1           1   4.9865467161521362E-002           7      327173           0
</event>
<event>
      5   9999  3.79277E-02  4.11006E+01 -1.00000E+00  1.44113E-01
      21    -1     0     0   502   511  0.000000000E+00  0.000000000E+00  2.109825277E+02  2.109825277E+02  0.000000000E+00  0.00000E+00  9.000E+00
      21    -1     0     0   501   502  0.000000000E+00  0.000000000E+00 -2.582326480E+02  2.582326480E+02  0.000000000E+00  0.00000E+00  9.000E+00
      25     1     1     2     0     0 -3.610181881E+01 -5.006292582E+01 -1.779133226E+02  2.260260786E+02  1.250000000E+02  0.00000E+00  9.000E+00
      25     1     1     2     0     0  7.305981985E+01  6.804532292E+01  1.219916589E+02  2.011836676E+02  1.250000000E+02  0.00000E+00  9.000E+00
      21     1     1     2   501   511 -3.695800104E+01 -1.798239710E+01  8.671543434E+00  4.200542955E+01  1.685873940E-07  0.00000E+00  9.000E+00
#rwgt            1           1   4.4072560271171034E-002           7      327314           0
</event>
<event>
      5   9999  3.79277E-02  2.64878E+01 -1.00000E+00  1.56893E-01
      21    -1     0     0   502   501  0.000000000E+00  0.000000000E+00  3.478224782E+02  3.478224782E+02  0.000000000E+00  0.00000E+00  9.000E+00
      21    -1     0     0   501   512  0.000000000E+00  0.000000000E+00 -3.395434280E+02  3.395434280E+02  0.000000000E+00  0.00000E+00  9.000E+00
      25     1     1     2     0     0  1.806005666E+02 -1.369747559E+02  2.176346989E+02  3.381841371E+02  1.250000000E+02  0.00000E+00  9.000E+00
      25     1     1     2     0     0 -1.777567204E+02  1.106400193E+02 -1.556329815E+02  2.892840999E+02  1.250000000E+02  0.00000E+00  9.000E+00
      21     1     1     2   502   512 -2.843846172E+00  2.633473655E+01 -5.372266720E+01  5.989766924E+01  6.743495762E-07  0.00000E+00  9.000E+00
#rwgt            2          11   1.2943475309236832E-003           7      327441           0
</event>
<event>
      5   9999  3.79277E-02  1.53357E+01 -1.00000E+00  1.76483E-01
       1    -1     0     0   502     0  0.000000000E+00  0.000000000E+00  1.508076996E+03  1.508076996E+03  0.000000000E+00  0.00000E+00  9.000E+00
      21    -1     0     0   501   502  0.000000000E+00  0.000000000E+00 -1.668033616E+02  1.668033616E+02  0.000000000E+00  0.00000E+00  9.000E+00
      25     1     1     2     0     0 -4.704039111E+01  1.731199549E+02  2.926873087E+01  2.206013957E+02  1.250000000E+02  0.00000E+00  9.000E+00
      25     1     1     2     0     0  6.038935296E+01 -1.806690957E+02  1.114784647E+02  2.536545765E+02  1.250000000E+02  0.00000E+00  9.000E+00
       1     1     1     2   501     0 -1.334896184E+01  7.549140815E+00  1.200526439E+03  1.200624386E+03  1.525878906E-05  0.00000E+00  9.000E+00
#rwgt            1           1   2.8838546570772287E-002           7      327491           0
</event>
<event>
      5   9999  3.79277E-02  2.51869E+01 -1.00000E+00  1.58509E-01
      21    -1     0     0   502   501  0.000000000E+00  0.000000000E+00  7.727658733E+02  7.727658733E+02  0.000000000E+00  0.00000E+00  9.000E+00
      21    -1     0     0   511   502  0.000000000E+00  0.000000000E+00 -6.265575509E+01  6.265575509E+01  0.000000000E+00  0.00000E+00  9.000E+00
      25     1     1     2     0     0 -1.149149962E+01 -1.616234807E+02  4.419112645E+02  4.869956568E+02  1.250000000E+02  0.00000E+00  9.000E+00
      25     1     1     2     0     0 -1.174383117E+01  1.519023895E+02  2.418496995E+02  3.119752084E+02  1.250000000E+02  0.00000E+00  9.000E+00
      21     1     1     2   511   501  2.323533079E+01  9.721091168E+00  2.634915429E+01  3.645076326E+01  7.539457465E-07  0.00000E+00  9.000E+00
#rwgt            1           1   2.3425690752799877E-002           7      327786           0
</event>
<event>
      5   9999  3.79277E-02  1.93277E+01 -1.00000E+00  1.67604E-01
      21    -1     0     0   502   501  0.000000000E+00  0.000000000E+00  3.468441195E+02  3.468441195E+02  0.000000000E+00  0.00000E+00  9.000E+00
      21    -1     0     0   512   502  0.000000000E+00  0.000000000E+00 -2.081924675E+02  2.081924675E+02  0.000000000E+00  0.00000E+00  9.000E+00
      25     1     1     2     0     0  2.189049728E+02  2.745458099E+01  1.063141725E+02  2.749560773E+02  1.250000000E+02  0.00000E+00  9.000E+00
      25     1     1     2     0     0 -2.239792009E+02 -8.804866968E+00  3.908464774E+01  2.596089710E+02  1.250000000E+02  0.00000E+00  9.000E+00
      21     1     1     2   512   501  5.074228061E+00 -1.864971402E+01 -6.747168172E+00  2.047153883E+01  2.795705652E-07  0.00000E+00  9.000E+00
#rwgt            1           1   4.7289490717538907E-002           7      327941           0
</event>
<event>
      5   9999  3.79277E-02  1.02743E+01 -1.00000E+00  1.94408E-01
      21    -1     0     0   502   501  0.000000000E+00  0.000000000E+00  2.681007039E+02  2.681007039E+02  0.000000000E+00  0.00000E+00  9.000E+00
      -3    -1     0     0     0   502  0.000000000E+00  0.000000000E+00 -7.634757754E+02  7.634757754E+02  0.000000000E+00  0.00000E+00  9.000E+00
      25     1     1     2     0     0 -4.836585866E+01 -7.288242772E+01  1.215102760E+02  1.950406412E+02  1.250000000E+02  0.00000E+00  9.000E+00
      25     1     1     2     0     0  3.811955066E+01  7.212447250E+01  5.905114287E+01  1.605212670E+02  1.250000000E+02  0.00000E+00  9.000E+00
      -3     1     1     2     0   501  1.024630800E+01  7.579552162E-01 -6.759364904E+02  6.760145711E+02  0.000000000E+00  0.00000E+00  9.000E+00
#rwgt            1           1   2.9156459019651332E-002           7      328165           0
</event>
<event>
      5   9999  3.79277E-02  5.85872E+01 -1.00000E+00  1.35259E-01
      21    -1     0     0   511   501  0.000000000E+00  0.000000000E+00  5.679383625E+02  5.679383625E+02  0.000000000E+00  0.00000E+00  9.000E+00
      21    -1     0     0   501   502  0.000000000E+00  0.000000000E+00 -4.833503805E+02  4.833503805E+02  0.000000000E+00  0.00000E+00  9.000E+00
      25     1     1     2     0     0  3.301029629E+01  1.420309727E+02  3.475166215E+01  1.951798015E+02  1.250000000E+02  0.00000E+00  9.000E+00
      25     1     1     2     0     0 -3.001071108E+01 -8.352060278E+01 -3.865334259E+02  4.158237886E+02  1.250000000E+02  0.00000E+00  9.000E+00
      21     1     1     2   511   502 -2.999585218E+00 -5.851036997E+01  4.363697457E+02  4.402851529E+02  0.000000000E+00  0.00000E+00  9.000E+00
#rwgt            1           1   4.2299388083740633E-002           7      328471           0
</event>
<event>
      5   9999  3.79277E-02  3.93671E+01 -1.00000E+00  1.45271E-01
      21    -1     0     0   512   501  0.000000000E+00  0.000000000E+00  3.160540813E+01  3.160540813E+01  0.000000000E+00  0.00000E+00  9.000E+00
      21    -1     0     0   501   502  0.000000000E+00  0.000000000E+00 -1.213813456E+03  1.213813456E+03  0.000000000E+00  0.00000E+00  9.000E+00
      25     1     1     2     0     0 -7.717126129E+00 -4.524135850E+01 -9.434925506E+02  9.528428661E+02  1.250000000E+02  0.00000E+00  9.000E+00
      25     1     1     2     0     0 -9.811807458E+00  9.992124491E+00 -2.061126081E+02  2.414612211E+02  1.250000000E+02  0.00000E+00  9.000E+00
      21     1     1     2   512   502  1.752893359E+01  3.524923401E+01 -3.260288882E+01  5.111477643E+01  8.259061849E-07  0.00000E+00  9.000E+00
#rwgt            1           1   3.3563574945025869E-002           7      328611           0
</event>
<event>
      5   9999  3.79277E-02  6.34563E+01 -1.00000E+00  1.33416E-01
      21    -1     0     0   511   501  0.000000000E+00  0.000000000E+00  5.642601852E+01  5.642601852E+01  0.000000000E+00  0.00000E+00  9.000E+00
      21    -1     0     0   501   502  0.000000000E+00  0.000000000E+00 -8.858869543E+02  8.858869543E+02  0.000000000E+00  0.00000E+00  9.000E+00
      25     1     1     2     0     0 -1.153753096E+02  1.400875088E+01 -3.637393633E+02  4.017947630E+02  1.250000000E+02  0.00000E+00  9.000E+00
      25     1     1     2     0     0  1.538623207E+02 -6.446122331E+01 -3.853114685E+02  4.380853693E+02  1.250000000E+02  0.00000E+00  9.000E+00
      21     1     1     2   511   502 -3.848701102E+01  5.045247243E+01 -8.041010394E+01  1.024328405E+02  1.907348633E-06  0.00000E+00  9.000E+00
#rwgt            1           1   7.3468364770173891E-002           7      328738           0
</event>
<event>
      5   9999  3.79277E-02  4.58588E+01 -1.00000E+00  1.41252E-01
      21    -1     0     0   502   512  0.000000000E+00  0.000000000E+00  1.872063110E+02  1.872063110E+02  0.000000000E+00  0.00000E+00  9.000E+00
      21    -1     0     0   501   502  0.000000000E+00  0.000000000E+00 -3.289519310E+02  3.289519310E+02  0.000000000E+00  0.00000E+00  9.000E+00
      25     1     1     2     0     0 -1.925838762E+02  1.546669671E+01 -7.722701710E+00  2.302442360E+02  1.250000000E+02  0.00000E+00  9.000E+00
      25     1     1     2     0     0  1.473286273E+02 -8.051322058E+00 -1.412723968E+02  2.394857789E+02  1.250000000E+02  0.00000E+00  9.000E+00
      21     1     1     2   501   512  4.525524888E+01 -7.415374656E+00  7.249478426E+00  4.642822708E+01  7.862392639E-07  0.00000E+00  9.000E+00
#rwgt            1           1   3.1866898020615750E-002           7      328988           0
</event>
<event>
      5   9999  3.79277E-02  2.75600E+01 -1.00000E+00  1.55644E-01
      21    -1     0     0   511   501  0.000000000E+00  0.000000000E+00  6.654234386E+01  6.654234386E+01  0.000000000E+00  0.00000E+00  9.000E+00
      21    -1     0     0   501   502  0.000000000E+00  0.000000000E+00 -8.726299743E+02  8.726299743E+02  0.000000000E+00  0.00000E+00  9.000E+00
      25     1     1     2     0     0  1.441968901E+02 -1.205197024E+02 -4.869172320E+02  5.366853199E+02  1.250000000E+02  0.00000E+00  9.000E+00
      25     1     1     2     0     0 -1.450962402E+02  9.297436666E+01 -3.036896780E+02  3.708767616E+02  1.250000000E+02  0.00000E+00  9.000E+00
      21     1     1     2   511   502  8.993500991E-01  2.754533578E+01 -1.548072044E+01  3.161023662E+01  4.129530925E-07  0.00000E+00  9.000E+00
#rwgt            2          11   2.6855250062785868E-003           7      329292           0
</event>
<event>
      5   9999  3.79277E-02  3.10541E+01 -1.00000E+00  1.52005E-01
      21    -1     0     0   502   512  0.000000000E+00  0.000000000E+00  5.534909439E+01  5.534909439E+01  0.000000000E+00  0.00000E+00  9.000E+00
      21    -1     0     0   501   502  0.000000000E+00  0.000000000E+00 -9.103119730E+02  9.103119730E+02  0.000000000E+00  0.00000E+00  9.000E+00
      25     1     1     2     0     0  3.740964604E+01  2.435807695E+01 -5.564065625E+01  1.439224797E+02  1.250000000E+02  0.00000E+00  9.000E+00
      25     1     1     2     0     0 -6.239700578E+01 -4.279685932E+01 -7.447596618E+02  7.589577797E+02  1.250000000E+02  0.00000E+00  9.000E+00
      21     1     1     2   501   512  2.498735974E+01  1.843878237E+01 -5.456256060E+01  6.278080807E+01  0.000000000E+00  0.00000E+00  9.000E+00
#rwgt            1           1   3.4195085870212590E-002           7      329402           0
</event>
<event>
      5   9999  3.79277E-02  2.98003E+01 -1.00000E+00  1.53242E-01
      21    -1     0     0   502   501  0.000000000E+00  0.000000000E+00  3.755034627E+02  3.755034627E+02  0.000000000E+00  0.00000E+00  9.000E+00
      21    -1     0     0   501   511  0.000000000E+00  0.000000000E+00 -1.856223930E+02  1.856223930E+02  0.000000000E+00  0.00000E+00  9.000E+00
      25     1     1     2     0     0  3.946662523E+01 -1.374602613E+02  2.623448982E+02  3.238869920E+02  1.250000000E+02  0.00000E+00  9.000E+00
      25     1     1     2     0     0 -5.444130360E+01  1.116955977E+02 -2.063804300E+01  1.774561662E+02  1.250000000E+02  0.00000E+00  9.000E+00
      21     1     1     2   502   511  1.497467836E+01  2.576466362E+01 -5.182578547E+01  5.978269753E+01  0.000000000E+00  0.00000E+00  9.000E+00
#rwgt            1           1   3.8601873982699195E-002           7      329553           0
</event>
<event>
      5   9999 -3.79277E-02  1.61996E+01 -1.00000E+00  1.74293E-01
      21    -1     0     0   502   512  0.000000000E+00  0.000000000E+00  4.070637099E+03  4.070637099E+03  0.000000000E+00  0.00000E+00  9.000E+00
      21    -1     0     0   501   502  0.000000000E+00  0.000000000E+00 -8.850280005E+00  8.850280005E+00  0.000000000E+00  0.00000E+00  9.000E+00
      25     1     1     2     0     0  2.510614605E+00 -1.067035763E+02  2.557504855E+03  2.562781309E+03  1.250000000E+02  0.00000E+00  9.000E+00
      25     1     1     2     0     0  1.351439059E+01  1.043313599E+02  1.096745502E+03  1.108847766E+03  1.250000000E+02  0.00000E+00  9.000E+00
      21     1     1     2   501   512 -1.602500519E+01  2.372216425E+00  4.075364617E+02  4.078583036E+02  5.394796609E-06  0.00000E+00  9.000E+00
#rwgt            1           1  -2.7655812467652745E-002           7      329768           0
</event>
<event>
      5   9999  3.79277E-02  7.35320E+01 -1.00000E+00  1.30147E-01
      21    -1     0     0   511   501  0.000000000E+00  0.000000000E+00  7.173786217E+01  7.173786217E+01  0.000000000E+00  0.00000E+00  9.000E+00
      21    -1     0     0   501   502  0.000000000E+00  0.000000000E+00 -1.205390115E+03  1.205390115E+03  0.000000000E+00  0.00000E+00  9.000E+00
      25     1     1     2     0     0  4.450367774E+01 -9.396662294E+01 -9.160053094E+02  9.303230785E+02  1.250000000E+02  0.00000E+00  9.000E+00
      25     1     1     2     0     0 -1.167288816E+02  8.016542918E+01 -1.170945816E+02  2.222347157E+02  1.250000000E+02  0.00000E+00  9.000E+00
      21     1     1     2   511   502  7.222520381E+01  1.380119375E+01 -1.005523620E+02  1.245701831E+02  1.348699152E-06  0.00000E+00  9.000E+00
#rwgt            1           1   3.4241061764680211E-002           7      329933           0
</event>
<event>
      5   9999  3.79277E-02  4.66814E+01 -1.00000E+00  1.40799E-01
      21    -1     0     0   502   501  0.000000000E+00  0.000000000E+00  2.541845813E+02  2.541845813E+02  0.000000000E+00  0.00000E+00  9.000E+00
       1    -1     0     0   501     0  0.000000000E+00  0.000000000E+00 -2.999134069E+02  2.999134069E+02  0.000000000E+00  0.00000E+00  9.000E+00
      25     1     1     2     0     0  4.718429005E+01 -9.259484335E+01  1.018237587E+02  1.918156409E+02  1.250000000E+02  0.00000E+00  9.000E+00
      25     1     1     2     0     0 -7.080148725E+01  1.328611829E+02  1.199535102E+01  1.960454870E+02  1.250000000E+02  0.00000E+00  9.000E+00
       1     1     1     2   502     0  2.361719719E+01 -4.026633955E+01 -1.595479353E+02  1.662368604E+02  1.907348633E-06  0.00000E+00  9.000E+00
#rwgt            1           1   2.7897007668906022E-002           7      330279           0
</event>
<event>
      5   9999  3.79277E-02  1.83416E+01 -1.00000E+00  1.69532E-01
      21    -1     0     0   502   501  0.000000000E+00  0.000000000E+00  1.127989778E+02  1.127989778E+02  0.000000000E+00  0.00000E+00  9.000E+00
      21    -1     0     0   501   511  0.000000000E+00  0.000000000E+00 -1.056195322E+03  1.056195322E+03  0.000000000E+00  0.00000E+00  9.000E+00
      25     1     1     2     0     0  2.785211386E+02  9.649697388E+01 -3.309645433E+02  4.604869374E+02  1.250000000E+02  0.00000E+00  9.000E+00
      25     1     1     2     0     0 -2.968320090E+02 -9.543500559E+01 -5.607645494E+02  6.536810856E+02  1.250000000E+02  0.00000E+00  9.000E+00
      21     1     1     2   502   511  1.831087042E+01 -1.061968288E+00 -5.166725182E+01  5.482627712E+01  9.536743164E-07  0.00000E+00  9.000E+00
#rwgt            1           1   2.7676286902459126E-002           7      330410           0
</event>
<event>
      5   9999  3.79277E-02  3.31501E+01 -1.00000E+00  1.50088E-01
      21    -1     0     0   502   512  0.000000000E+00  0.000000000E+00  6.456374817E+01  6.456374817E+01  0.000000000E+00  0.00000E+00  9.000E+00
      21    -1     0     0   501   502  0.000000000E+00  0.000000000E+00 -1.016952817E+03  1.016952817E+03  0.000000000E+00  0.00000E+00  9.000E+00
      25     1     1     2     0     0  4.311832449E+01  6.623004760E+01 -6.644407876E+01  1.621278036E+02  1.250000000E+02  0.00000E+00  9.000E+00
      25     1     1     2     0     0 -6.081624327E+01 -3.819947301E+01 -8.713034826E+02  8.831492365E+02  1.250000000E+02  0.00000E+00  9.000E+00
      21     1     1     2   501   512  1.769791878E+01 -2.803057459E+01 -1.464150770E+01  3.623952523E+01  8.596304120E-07  0.00000E+00  9.000E+00
#rwgt            1           1   4.5800561543740383E-002           7      330773           0
</event>
<event>
      5   9999  3.79277E-02  1.08773E+02 -1.00000E+00  1.22207E-01
      21    -1     0     0   502   501  0.000000000E+00  0.000000000E+00  8.247233662E+02  8.247233662E+02  0.000000000E+00  0.00000E+00  9.000E+00
      21    -1     0     0   511   502  0.000000000E+00  0.000000000E+00 -8.385194807E+01  8.385194807E+01  0.000000000E+00  0.00000E+00  9.000E+00
      25     1     1     2     0     0 -2.348043756E+00 -1.821133659E+02  3.268735914E+02  3.945150645E+02  1.250000000E+02  0.00000E+00  9.000E+00
      25     1     1     2     0     0 -7.779273987E+01  1.085672187E+02  3.273441974E+02  3.749903665E+02  1.250000000E+02  0.00000E+00  9.000E+00
      21     1     1     2   511   501  8.014078362E+01  7.354614723E+01  8.665362932E+01  1.390698833E+02  1.651812370E-06  0.00000E+00  9.000E+00
#rwgt            1           1   3.6214437355934874E-002           7      330955           0
</event>
<event>
      5   9999  3.79277E-02  8.67925E+00 -1.00000E+00  2.03148E-01
      21    -1     0     0   502   501  0.000000000E+00  0.000000000E+00  2.821697677E+02  2.821697677E+02  0.000000000E+00  0.00000E+00  9.000E+00
      21    -1     0     0   512   502  0.000000000E+00  0.000000000E+00 -1.262945160E+02  1.262945160E+02  0.000000000E+00  0.00000E+00  9.000E+00
      25     1     1     2     0     0  3.843432143E+01 -1.176713623E+02  8.204359439E+01  1.941131061E+02  1.250000000E+02  0.00000E+00  9.000E+00
      25     1     1     2     0     0 -3.482610890E+01  1.255650370E+02  8.551807275E+01  1.997943371E+02  1.250000000E+02  0.00000E+00  9.000E+00
      21     1     1     2   512   501 -3.608212531E+00 -7.893674774E+00 -1.168641540E+01  1.455684046E+01  2.384185791E-07  0.00000E+00  9.000E+00
#rwgt            1           1   3.1042853922160572E-002           7      331089           0
</event>
<event>
      5   9999  3.79277E-02  2.91465E+01 -1.00000E+00  1.53916E-01
      21    -1     0     0   511   501  0.000000000E+00  0.000000000E+00  2.457643303E+02  2.457643303E+02  0.000000000E+00  0.00000E+00  9.000E+00
      21    -1     0     0   501   502  0.000000000E+00  0.000000000E+00 -1.300481260E+02  1.300481260E+02  0.000000000E+00  0.00000E+00  9.000E+00
      25     1     1     2     0     0 -5.918056778E+01 -3.688850752E+01  1.155110272E+02  1.839317781E+02  1.250000000E+02  0.00000E+00  9.000E+00
      25     1     1     2     0     0  6.188737877E+01  6.590906377E+01 -2.119897506E+01  1.557191346E+02  1.250000000E+02  0.00000E+00  9.000E+00
      21     1     1     2   511   502 -2.706810989E+00 -2.902055625E+01  2.140415209E+01  3.616154362E+01  4.129530925E-07  0.00000E+00  9.000E+00
#rwgt            1           1   3.0816410517925025E-002           7      331371           0
</event>
<event>
      5   9999  3.79277E-02  2.24306E+01 -1.00000E+00  1.62361E-01
      21    -1     0     0   512   501  0.000000000E+00  0.000000000E+00  1.629191190E+02  1.629191190E+02  0.000000000E+00  0.00000E+00  9.000E+00
      21    -1     0     0   501   502  0.000000000E+00  0.000000000E+00 -7.808927456E+02  7.808927456E+02  0.000000000E+00  0.00000E+00  9.000E+00
      25     1     1     2     0     0 -2.262069225E+01 -9.232667229E+01 -2.822895323E+01  1.595549558E+02  1.250000000E+02  0.00000E+00  9.000E+00
      25     1     1     2     0     0  4.300480507E+00  7.938440296E+01 -6.775891642E+02  6.935938675E+02  1.250000000E+02  0.00000E+00  9.000E+00
      21     1     1     2   512   502  1.832021174E+01  1.294226933E+01  8.784449077E+01  9.066304127E+01  2.336015456E-06  0.00000E+00  9.000E+00
#rwgt            1           1   4.1029331952166744E-002           7      331513           0
</event>
<event>
      5   9999  3.79277E-02  1.83634E+01 -1.00000E+00  1.69488E-01
      21    -1     0     0   511   501  0.000000000E+00  0.000000000E+00  2.424517853E+02  2.424517853E+02  0.000000000E+00  0.00000E+00  9.000E+00
      21    -1     0     0   501   502  0.000000000E+00  0.000000000E+00 -4.131653649E+02  4.131653649E+02  0.000000000E+00  0.00000E+00  9.000E+00
      25     1     1     2     0     0  2.083625333E+02  1.593947793E+01 -2.013598512E+02  3.159743691E+02  1.250000000E+02  0.00000E+00  9.000E+00
      25     1     1     2     0     0 -1.901746341E+02 -1.340683744E+01 -6.910483897E+01  2.382154770E+02  1.250000000E+02  0.00000E+00  9.000E+00
      21     1     1     2   511   502 -1.818789925E+01 -2.532640492E+00  9.975111059E+01  1.014273041E+02  0.000000000E+00  0.00000E+00  9.000E+00
#rwgt            1           1   4.0160693854824882E-002           7      331687           0
</event>
<event>
      5   9999 -3.79277E-02  2.86435E+01 -1.00000E+00  1.54449E-01
      21    -1     0     0   502   501  0.000000000E+00  0.000000000E+00  7.536179444E+01  7.536179444E+01  0.000000000E+00  0.00000E+00  9.000E+00
       2    -1     0     0   501     0  0.000000000E+00  0.000000000E+00 -3.225493935E+03  3.225493935E+03  0.000000000E+00  0.00000E+00  9.000E+00
      25     1     1     2     0     0 -1.369705734E+02  5.018091265E+01 -4.369117387E+02  4.772797182E+02  1.250000000E+02  0.00000E+00  9.000E+00
      25     1     1     2     0     0  1.183870720E+02 -2.838405570E+01 -8.304106340E+01  1.932407091E+02  1.250000000E+02  0.00000E+00  9.000E+00
       2     1     1     2   502     0  1.858350148E+01 -2.179685695E+01 -2.630179338E+03  2.630335302E+03  0.000000000E+00  0.00000E+00  9.000E+00
#rwgt            1           1  -7.8147535348803115E-002           7      331901           0
</event>
<event>
      5   9999  3.79277E-02  5.12775E+01 -1.00000E+00  1.38453E-01
      21    -1     0     0   502   501  0.000000000E+00  0.000000000E+00  1.597183105E+02  1.597183105E+02  0.000000000E+00  0.00000E+00  9.000E+00
      21    -1     0     0   511   502  0.000000000E+00  0.000000000E+00 -7.626132004E+02  7.626132004E+02  0.000000000E+00  0.00000E+00  9.000E+00
      25     1     1     2     0     0 -2.200618588E+02 -9.698920990E+01 -2.286606854E+02  3.546051855E+02  1.250000000E+02  0.00000E+00  9.000E+00
      25     1     1     2     0     0  2.056632684E+02  4.777471817E+01 -6.439960564E+01  2.536771824E+02  1.250000000E+02  0.00000E+00  9.000E+00
      21     1     1     2   511   501  1.439859035E+01  4.921449172E+01 -3.098345988E+02  3.140491430E+02  6.607249480E-06  0.00000E+00  9.000E+00
#rwgt            1           1   3.5369211048630236E-002           7      332073           0
</event>
<event>
      5   9999  3.79277E-02  9.16302E+01 -1.00000E+00  1.25560E-01
      21    -1     0     0   502   501  0.000000000E+00  0.000000000E+00  1.647485473E+02  1.647485473E+02  0.000000000E+00  0.00000E+00  9.000E+00
      21    -1     0     0   512   502  0.000000000E+00  0.000000000E+00 -5.580712136E+02  5.580712136E+02  0.000000000E+00  0.00000E+00  9.000E+00
      25     1     1     2     0     0 -1.890269266E+02 -2.735599771E+01 -6.160816517E+01  2.364320106E+02  1.250000000E+02  0.00000E+00  9.000E+00
      25     1     1     2     0     0  2.187397107E+02 -5.932301142E+01 -2.058623605E+02  3.307122498E+02  1.250000000E+02  0.00000E+00  9.000E+00
      21     1     1     2   512   501 -2.971278406E+01  8.667900913E+01 -1.258521407E+02  1.556755005E+02  2.697398305E-06  0.00000E+00  9.000E+00
#rwgt            1           1   4.1637966472486430E-002           7      332147           0
</event>
<event>
      5   9999  3.79277E-02  5.17392E+01 -1.00000E+00  1.38234E-01
      21    -1     0     0   502   501  0.000000000E+00  0.000000000E+00  1.084508364E+02  1.084508364E+02  0.000000000E+00  0.00000E+00  9.000E+00
      21    -1     0     0   511   502  0.000000000E+00  0.000000000E+00 -1.577473285E+03  1.577473285E+03  0.000000000E+00  0.00000E+00  9.000E+00
      25     1     1     2     0     0 -9.885200765E+01 -1.021267485E+02 -3.211814634E+02  3.728057465E+02  1.250000000E+02  0.00000E+00  9.000E+00
      25     1     1     2     0     0  1.162908122E+02  5.341505926E+01 -1.546113659E+01  1.795571449E+02  1.250000000E+02  0.00000E+00  9.000E+00
      21     1     1     2   511   501 -1.743880451E+01  4.871168926E+01 -1.132379848E+03  1.133561230E+03  1.525878906E-05  0.00000E+00  9.000E+00
#rwgt            1           1  0.12669218655545109                7      332334           0
</event>
<event>
      5   9999  3.79277E-02  6.27694E+01 -1.00000E+00  1.33664E-01
      21    -1     0     0   502   501  0.000000000E+00  0.000000000E+00  4.508649074E+02  4.508649074E+02  0.000000000E+00  0.00000E+00  9.000E+00
      21    -1     0     0   512   502  0.000000000E+00  0.000000000E+00 -7.407816421E+02  7.407816421E+02  0.000000000E+00  0.00000E+00  9.000E+00
      25     1     1     2     0     0 -3.914097123E+02  9.445585753E+01 -1.560060077E+02  4.495401499E+02  1.250000000E+02  0.00000E+00  9.000E+00
      25     1     1     2     0     0  4.538910428E+02 -1.004630134E+02  1.070133662E+02  4.931396925E+02  1.250000000E+02  0.00000E+00  9.000E+00
      21     1     1     2   512   501 -6.248133054E+01  6.007155838E+00 -2.409240931E+02  2.489667071E+02  4.672030912E-06  0.00000E+00  9.000E+00
#rwgt            1           1  0.13478672739265074                7      332537           0
</event>
<event>
      5   9999  3.79277E-02  2.01220E+01 -1.00000E+00  1.66152E-01
      21    -1     0     0   511   501  0.000000000E+00  0.000000000E+00  8.326616178E+01  8.326616178E+01  0.000000000E+00  0.00000E+00  9.000E+00
      21    -1     0     0   501   502  0.000000000E+00  0.000000000E+00 -2.968149371E+02  2.968149371E+02  0.000000000E+00  0.00000E+00  9.000E+00
      25     1     1     2     0     0 -1.862101860E+01  3.539438111E+01 -1.708791056E+02  2.154626958E+02  1.250000000E+02  0.00000E+00  9.000E+00
      25     1     1     2     0     0  1.458760180E+01 -5.510796119E+01 -2.934388089E+01  1.404839808E+02  1.250000000E+02  0.00000E+00  9.000E+00
      21     1     1     2   511   502  4.033416799E+00  1.971358008E+01 -1.332578878E+01  2.413442225E+01  4.768371582E-07  0.00000E+00  9.000E+00
#rwgt            1           1   5.5162205506590824E-002           7      332822           0
</event>
<event>
      5   9999  3.79277E-02  2.56453E+01 -1.00000E+00  1.57926E-01
      21    -1     0     0   502   501  0.000000000E+00  0.000000000E+00  5.702337586E+02  5.702337586E+02  0.000000000E+00  0.00000E+00  9.000E+00
      21    -1     0     0   501   512  0.000000000E+00  0.000000000E+00 -2.051370756E+02  2.051370756E+02  0.000000000E+00  0.00000E+00  9.000E+00
      25     1     1     2     0     0  1.260305261E+01 -1.849441835E+02  2.951629589E+02  3.702828112E+02  1.250000000E+02  0.00000E+00  9.000E+00
      25     1     1     2     0     0 -3.823717360E+01  1.857019723E+02  1.814364037E+02  2.906741691E+02  1.250000000E+02  0.00000E+00  9.000E+00
      21     1     1     2   502   512  2.563412099E+01 -7.577888289E-01 -1.115026797E+02  1.144138540E+02  2.336015456E-06  0.00000E+00  9.000E+00
#rwgt            1           1  0.26072620410350611                7      332942           0
</event>
<event>
      5   9999  3.79277E-02  5.59280E+01 -1.00000E+00  1.36355E-01
      21    -1     0     0   502   501  0.000000000E+00  0.000000000E+00  1.671001579E+02  1.671001579E+02  0.000000000E+00  0.00000E+00  9.000E+00
      21    -1     0     0   501   511  0.000000000E+00  0.000000000E+00 -2.442069047E+02  2.442069047E+02  0.000000000E+00  0.00000E+00  9.000E+00
      25     1     1     2     0     0  7.502758242E+01 -2.637381960E+01 -1.571815948E+01  1.489858283E+02  1.250000000E+02  0.00000E+00  9.000E+00
      25     1     1     2     0     0 -9.922408460E+01 -2.404909171E+01  2.098558885E+01  1.627549468E+02  1.250000000E+02  0.00000E+00  9.000E+00
      21     1     1     2   502   511  2.419650217E+01  5.042291131E+01 -8.237417623E+01  9.956628753E+01  9.536743164E-07  0.00000E+00  9.000E+00
#rwgt            1           1   2.2040142852016206E-002           7      333124           0
</event>
<event>
      5   9999  3.79277E-02  2.70984E+01 -1.00000E+00  1.56173E-01
       2    -1     0     0   502     0  0.000000000E+00  0.000000000E+00  1.083146980E+03  1.083146980E+03  0.000000000E+00  0.00000E+00  9.000E+00
      21    -1     0     0   501   502  0.000000000E+00  0.000000000E+00 -1.299383916E+02  1.299383916E+02  0.000000000E+00  0.00000E+00  9.000E+00
      25     1     1     2     0     0 -5.099406566E+01  1.424907211E+02 -1.124095855E+01  1.966096628E+02  1.250000000E+02  0.00000E+00  9.000E+00
      25     1     1     2     0     0  7.625820459E+01 -1.522909320E+02  4.087777555E+02  4.601435592E+02  1.250000000E+02  0.00000E+00  9.000E+00
       2     1     1     2   501     0 -2.526413893E+01  9.800210880E+00  5.556717911E+02  5.563321493E+02  7.629394531E-06  0.00000E+00  9.000E+00
#rwgt            1           1   3.2475983639543626E-002           7      333243           0
</event>
<event>
      5   9999  3.79277E-02  3.42098E+01 -1.00000E+00  1.49182E-01
      21    -1     0     0   502   501  0.000000000E+00  0.000000000E+00  5.576030904E+02  5.576030904E+02  0.000000000E+00  0.00000E+00  9.000E+00
      21    -1     0     0   501   511  0.000000000E+00  0.000000000E+00 -2.221849663E+02  2.221849663E+02  0.000000000E+00  0.00000E+00  9.000E+00
      25     1     1     2     0     0 -1.005299792E+02 -2.488489470E+02  2.930516954E+02  4.165769692E+02  1.250000000E+02  0.00000E+00  9.000E+00
      25     1     1     2     0     0  1.208347728E+02  2.763812007E+02  3.896555596E+01  3.288326702E+02  1.250000000E+02  0.00000E+00  9.000E+00
      21     1     1     2   502   511 -2.030479360E+01 -2.753225368E+01  3.400872763E+00  3.437841723E+01  2.149076030E-07  0.00000E+00  9.000E+00
#rwgt            1           1   3.9803258555777501E-002           7      333392           0
</event>
<event>
      5   9999  3.79277E-02  1.30449E+02 -1.00000E+00  1.18849E-01
       2    -1     0     0   502     0  0.000000000E+00  0.000000000E+00  7.921716073E+02  7.921716073E+02  0.000000000E+00  0.00000E+00  9.000E+00
      21    -1     0     0   501   502  0.000000000E+00  0.000000000E+00 -2.247499523E+02  2.247499523E+02  0.000000000E+00  0.00000E+00  9.000E+00
      25     1     1     2     0     0  1.149877997E+01 -4.630381194E+01 -1.288357008E+02  1.857414944E+02  1.250000000E+02  0.00000E+00  9.000E+00
      25     1     1     2     0     0 -1.318957576E+02 -3.910608696E+00  7.542113227E+01  1.967870192E+02  1.250000000E+02  0.00000E+00  9.000E+00
       2     1     1     2   501     0  1.203969777E+02  5.021442063E+01  6.208362235E+02  6.343930459E+02  7.629394531E-06  0.00000E+00  9.000E+00
#rwgt            1           1   3.5827996651421799E-002           7      333537           0
</event>
<event>
      5   9999  3.79277E-02  1.95284E+01 -1.00000E+00  1.67229E-01
      21    -1     0     0   511   501  0.000000000E+00  0.000000000E+00  2.425970275E+02  2.425970275E+02  0.000000000E+00  0.00000E+00  9.000E+00
      21    -1     0     0   501   502  0.000000000E+00  0.000000000E+00 -2.581535541E+02  2.581535541E+02  0.000000000E+00  0.00000E+00  9.000E+00
      25     1     1     2     0     0  9.308246892E+01  7.672309580E+01  4.429694264E+01  1.792707410E+02  1.250000000E+02  0.00000E+00  9.000E+00
      25     1     1     2     0     0 -9.676235514E+01 -5.754451140E+01 -1.523418135E+02  2.269523129E+02  1.250000000E+02  0.00000E+00  9.000E+00
      21     1     1     2   511   502  3.679886222E+00 -1.917858441E+01  9.248834435E+01  9.452752775E+01  1.348699152E-06  0.00000E+00  9.000E+00
#rwgt            1           1   3.9971447605214240E-002           7      333618           0
</event>
<event>
      5   9999  3.79277E-02  6.89992E+00 -1.00000E+00  2.16441E-01
      21    -1     0     0   502   501  0.000000000E+00  0.000000000E+00  9.285933464E+01  9.285933464E+01  0.000000000E+00  0.00000E+00  9.000E+00
      21    -1     0     0   501   512  0.000000000E+00  0.000000000E+00 -3.938817357E+02  3.938817357E+02  0.000000000E+00  0.00000E+00  9.000E+00
      25     1     1     2     0     0  1.227309835E+02  8.515231408E+00 -2.364728464E+02  2.944143518E+02  1.250000000E+02  0.00000E+00  9.000E+00
      25     1     1     2     0     0 -1.189407258E+02 -2.749565266E+00 -5.618463533E+01  1.814832489E+02  1.250000000E+02  0.00000E+00  9.000E+00
      21     1     1     2   502   512 -3.790257629E+00 -5.765666142E+00 -8.364919256E+00  1.084346961E+01  1.192092896E-07  0.00000E+00  9.000E+00
#rwgt            1           1   6.9562091394802489E-002           7      333797           0
</event>
<event>
      5   9999 -3.79277E-02  2.21746E+01 -1.00000E+00  1.62754E-01
      21    -1     0     0   502   501  0.000000000E+00  0.000000000E+00  3.481887715E+02  3.481887715E+02  0.000000000E+00  0.00000E+00  9.000E+00
      21    -1     0     0   501   511  0.000000000E+00  0.000000000E+00 -5.926699026E+02  5.926699026E+02  0.000000000E+00  0.00000E+00  9.000E+00
      25     1     1     2     0     0  1.347351094E+01  1.790077552E+02  1.471936272E+02  2.636593936E+02  1.250000000E+02  0.00000E+00  9.000E+00
      25     1     1     2     0     0 -3.005905529E+01 -1.642893747E+02  6.614056555E+01  2.188472523E+02  1.250000000E+02  0.00000E+00  9.000E+00
      21     1     1     2   502   511  1.658554434E+01 -1.471838052E+01 -4.578153239E+02  4.583520283E+02  5.394796609E-06  0.00000E+00  9.000E+00
#rwgt            1           1 -0.12825474499291040                7      334081           0
</event>
<event>
      5   9999  3.79277E-02  6.70051E+00 -1.00000E+00  2.18273E-01
      21    -1     0     0   502   512  0.000000000E+00  0.000000000E+00  3.338594498E+02  3.338594498E+02  0.000000000E+00  0.00000E+00  9.000E+00
      21    -1     0     0   501   502  0.000000000E+00  0.000000000E+00 -1.758400495E+02  1.758400495E+02  0.000000000E+00  0.00000E+00  9.000E+00
      25     1     1     2     0     0  1.265790863E+02  9.737355500E+01  1.790444886E+02  2.705287474E+02  1.250000000E+02  0.00000E+00  9.000E+00
      25     1     1     2     0     0 -1.262057175E+02 -9.068345895E+01 -5.311253616E+01  2.063911683E+02  1.250000000E+02  0.00000E+00  9.000E+00
      21     1     1     2   501   512 -3.733688126E-01 -6.690096048E+00  3.208744790E+01  3.277958362E+01  0.000000000E+00  0.00000E+00  9.000E+00
#rwgt            1           1   3.5312732220409954E-002           7      334263           0
</event>
<event>
      5   9999  3.79277E-02  1.20101E+02 -1.00000E+00  1.20353E-01
      21    -1     0     0   502   511  0.000000000E+00  0.000000000E+00  2.955223142E+02  2.955223142E+02  0.000000000E+00  0.00000E+00  9.000E+00
      21    -1     0     0   501   502  0.000000000E+00  0.000000000E+00 -3.501631006E+02  3.501631006E+02  0.000000000E+00  0.00000E+00  9.000E+00
      25     1     1     2     0     0 -1.734941264E+02  1.489847442E+02 -6.209514765E+00  2.606918180E+02  1.250000000E+02  0.00000E+00  9.000E+00
      25     1     1     2     0     0  1.976626963E+02 -3.134073116E+01 -9.742610748E+01  2.552834294E+02  1.250000000E+02  0.00000E+00  9.000E+00
      21     1     1     2   501   511 -2.416856983E+01 -1.176440131E+02  4.899483577E+01  1.297101673E+02  2.336015456E-06  0.00000E+00  9.000E+00
#rwgt            2          11   2.6181029580318606E-003           7      334576           0
</event>
<event>
      5   9999  3.79277E-02  2.05360E+01 -1.00000E+00  1.65427E-01
      21    -1     0     0   502   512  0.000000000E+00  0.000000000E+00  8.316184071E+01  8.316184071E+01  0.000000000E+00  0.00000E+00  9.000E+00
      21    -1     0     0   501   502  0.000000000E+00  0.000000000E+00 -3.720556255E+02  3.720556255E+02  0.000000000E+00  0.00000E+00  9.000E+00
      25     1     1     2     0     0  3.160727644E+01 -7.860098246E+00 -2.705444832E+02  2.998001309E+02  1.250000000E+02  0.00000E+00  9.000E+00
      25     1     1     2     0     0 -3.056122738E+01  2.836939010E+01 -7.008575301E+00  1.319580655E+02  1.250000000E+02  0.00000E+00  9.000E+00
      21     1     1     2   501   512 -1.046049055E+00 -2.050929185E+01 -1.134072625E+01  2.345926987E+01  1.685873940E-07  0.00000E+00  9.000E+00
#rwgt            1           1   3.4289751568623072E-002           7      334641           0
</event>
<event>
      5   9999  3.79277E-02  3.00041E+01 -1.00000E+00  1.53036E-01
      21    -1     0     0   502   501  0.000000000E+00  0.000000000E+00  2.633880184E+02  2.633880184E+02  0.000000000E+00  0.00000E+00  9.000E+00
      21    -1     0     0   501   511  0.000000000E+00  0.000000000E+00 -3.911207988E+02  3.911207988E+02  0.000000000E+00  0.00000E+00  9.000E+00
      25     1     1     2     0     0 -1.658940088E+02 -7.728194972E+01 -1.609371882E+01  2.222101026E+02  1.250000000E+02  0.00000E+00  9.000E+00
      25     1     1     2     0     0  1.819411991E+02  5.192970150E+01  7.837441745E+01  2.399309133E+02  1.250000000E+02  0.00000E+00  9.000E+00
      21     1     1     2   502   511 -1.604719032E+01  2.535224822E+01 -1.900134790E+02  1.923678014E+02  0.000000000E+00  0.00000E+00  9.000E+00
#rwgt            1           1   4.2686649343716687E-002           7      334783           0
</event>
<event>
      5   9999  3.79277E-02  1.95563E+02 -1.00000E+00  1.12004E-01
      21    -1     0     0   502   501  0.000000000E+00  0.000000000E+00  6.781116777E+02  6.781116777E+02  0.000000000E+00  0.00000E+00  9.000E+00
      -2    -1     0     0     0   502  0.000000000E+00  0.000000000E+00 -4.173981096E+02  4.173981096E+02  0.000000000E+00  0.00000E+00  9.000E+00
      25     1     1     2     0     0  2.440940358E+02 -1.273691943E+02  1.416494000E+02  3.339077156E+02  1.250000000E+02  0.00000E+00  9.000E+00
      25     1     1     2     0     0 -1.282691667E+02  2.849427928E+02  3.318170665E+02  4.726234652E+02  1.250000000E+02  0.00000E+00  9.000E+00
      -2     1     1     2     0   501 -1.158248692E+02 -1.575735985E+02 -2.127528984E+02  2.889786066E+02  3.814697266E-06  0.00000E+00  9.000E+00
#rwgt            2           9   8.5835291131088428E-005           7      334934           0
</event>
<event>
      5   9999 -3.79277E-02  2.99011E+01 -1.00000E+00  1.53139E-01
      21    -1     0     0   502   511  0.000000000E+00  0.000000000E+00  1.297560934E+02  1.297560934E+02  0.000000000E+00  0.00000E+00  9.000E+00
      21    -1     0     0   501   502  0.000000000E+00  0.000000000E+00 -4.846174578E+02  4.846174578E+02  0.000000000E+00  0.00000E+00  9.000E+00
      25     1     1     2     0     0  1.524253849E+02  4.002263101E+01 -1.024482989E+02  2.257342750E+02  1.250000000E+02  0.00000E+00  9.000E+00
      25     1     1     2     0     0 -1.822829342E+02 -4.163635921E+01 -2.719618624E+02  3.529148752E+02  1.250000000E+02  0.00000E+00  9.000E+00
      21     1     1     2   501   511  2.985754928E+01  1.613728205E+00  1.954879686E+01  3.572440100E+01  0.000000000E+00  0.00000E+00  9.000E+00
#rwgt            1           1 -0.10000494905217666                7      334968           0
</event>
<event>
      5   9999  3.79277E-02  2.01884E+02 -1.00000E+00  1.11500E-01
       1    -1     0     0   502     0  0.000000000E+00  0.000000000E+00  1.063799168E+03  1.063799168E+03  0.000000000E+00  0.00000E+00  9.000E+00
      21    -1     0     0   501   502  0.000000000E+00  0.000000000E+00 -4.762842338E+02  4.762842338E+02  0.000000000E+00  0.00000E+00  9.000E+00
      25     1     1     2     0     0 -1.406448740E+01 -3.025843326E+02 -8.537554013E+01  3.386282194E+02  1.250000000E+02  0.00000E+00  9.000E+00
      25     1     1     2     0     0 -1.448720094E+02  1.781001185E+02 -1.849254814E+02  3.202030372E+02  1.250000000E+02  0.00000E+00  9.000E+00
       1     1     1     2   501     0  1.589364968E+02  1.244842141E+02  8.578159556E+02  8.812521451E+02  1.078959322E-05  0.00000E+00  9.000E+00
#rwgt            1           1  0.12502915733897571                7      335155           0
</event>
<event>
      5   9999  3.79277E-02  2.53503E+01 -1.00000E+00  1.58300E-01
      21    -1     0     0   502   501  0.000000000E+00  0.000000000E+00  5.690181529E+01  5.690181529E+01  0.000000000E+00  0.00000E+00  9.000E+00
      21    -1     0     0   501   511  0.000000000E+00  0.000000000E+00 -7.270941847E+02  7.270941847E+02  0.000000000E+00  0.00000E+00  9.000E+00
      25     1     1     2     0     0 -5.117511959E+01 -8.576978594E+01 -4.000990621E+02  4.309055680E+02  1.250000000E+02  0.00000E+00  9.000E+00
      25     1     1     2     0     0  3.363567638E+01  1.040729630E+02 -1.305417021E+02  2.112550031E+02  1.250000000E+02  0.00000E+00  9.000E+00
      21     1     1     2   502   511  1.753944321E+01 -1.830317710E+01 -1.395516052E+02  1.418354288E+02  0.000000000E+00  0.00000E+00  9.000E+00
#rwgt            1           1   4.6635779626715820E-002           7      335222           0
</event>
<event>
      5   9999  3.79277E-02  2.78730E+01 -1.00000E+00  1.55292E-01
      21    -1     0     0   512   501  0.000000000E+00  0.000000000E+00  1.874020440E+03  1.874020440E+03  0.000000000E+00  0.00000E+00  9.000E+00
      21    -1     0     0   501   502  0.000000000E+00  0.000000000E+00 -2.011709379E+02  2.011709379E+02  0.000000000E+00  0.00000E+00  9.000E+00
      25     1     1     2     0     0  2.252617788E+02  1.188777230E+02  8.934788003E+02  9.374455443E+02  1.250000000E+02  0.00000E+00  9.000E+00
      25     1     1     2     0     0 -2.493116056E+02 -1.329669870E+02 -4.559047027E+01  3.123139243E+02  1.250000000E+02  0.00000E+00  9.000E+00
      21     1     1     2   512   502  2.404982680E+01  1.408926400E+01  8.249611717E+02  8.254319090E+02  0.000000000E+00  0.00000E+00  9.000E+00
#rwgt            1           1   6.9512547948193101E-002           7      335353           0
</event>
<event>
      5   9999  3.79277E-02  3.47174E+01 -1.00000E+00  1.48761E-01
      21    -1     0     0   502   501  0.000000000E+00  0.000000000E+00  2.427039990E+02  2.427039990E+02  0.000000000E+00  0.00000E+00  9.000E+00
      21    -1     0     0   501   511  0.000000000E+00  0.000000000E+00 -3.868017279E+02  3.868017279E+02  0.000000000E+00  0.00000E+00  9.000E+00
      25     1     1     2     0     0 -2.056507333E+02 -7.549172796E+01  7.908194617E+01  2.643296792E+02  1.250000000E+02  0.00000E+00  9.000E+00
      25     1     1     2     0     0  1.711065648E+02  7.895519295E+01 -1.193515993E+02  2.556974448E+02  1.250000000E+02  0.00000E+00  9.000E+00
      21     1     1     2   502   511  3.454416852E+01 -3.463464991E+00 -1.038280758E+02  1.094786029E+02  1.348699152E-06  0.00000E+00  9.000E+00
#rwgt            1           1   2.5640918127495652E-002           7      335551           0
</event>
<event>
      5   9999  3.79277E-02  1.24061E+01 -1.00000E+00  1.85521E-01
      21    -1     0     0   502   501  0.000000000E+00  0.000000000E+00  8.785749325E+01  8.785749325E+01  0.000000000E+00  0.00000E+00  9.000E+00
      21    -1     0     0   512   502  0.000000000E+00  0.000000000E+00 -8.411273937E+02  8.411273937E+02  0.000000000E+00  0.00000E+00  9.000E+00
      25     1     1     2     0     0  1.732725832E+02 -9.560721938E+01 -4.733957098E+02  5.281028561E+02  1.250000000E+02  0.00000E+00  9.000E+00
      25     1     1     2     0     0 -1.839097231E+02  8.922270465E+01 -1.785772850E+02  2.988282517E+02  1.250000000E+02  0.00000E+00  9.000E+00
      21     1     1     2   512   501  1.063713990E+01  6.384514739E+00 -1.012969056E+02  1.020537792E+02  1.348699152E-06  0.00000E+00  9.000E+00
#rwgt            1           1   5.5805552339911808E-002           7      335649           0
</event>
<event>
      5   9999  3.79277E-02  3.22557E+01 -1.00000E+00  1.50885E-01
      21    -1     0     0   502   501  0.000000000E+00  0.000000000E+00  2.668398681E+02  2.668398681E+02  0.000000000E+00  0.00000E+00  9.000E+00
      21    -1     0     0   501   511  0.000000000E+00  0.000000000E+00 -3.317332757E+02  3.317332757E+02  0.000000000E+00  0.00000E+00  9.000E+00
      25     1     1     2     0     0  2.391832256E+02  1.136001085E+01 -8.549660644E+01  2.833237282E+02  1.250000000E+02  0.00000E+00  9.000E+00
      25     1     1     2     0     0 -2.243238162E+02  1.726915228E+01  6.005147166E+01  2.642925980E+02  1.250000000E+02  0.00000E+00  9.000E+00
      21     1     1     2   502   511 -1.485940937E+01 -2.862916313E+01 -3.944827285E+01  5.095681759E+01  6.743495762E-07  0.00000E+00  9.000E+00
#rwgt            1           1  0.37114847288707803                7      335905           0
</event>
<event>
      5   9999 -3.79277E-02  3.30177E+01 -1.00000E+00  1.50204E-01
      21    -1     0     0   502   501  0.000000000E+00  0.000000000E+00  4.379793634E+02  4.379793634E+02  0.000000000E+00  0.00000E+00  9.000E+00
      21    -1     0     0   501   512  0.000000000E+00  0.000000000E+00 -2.843001016E+02  2.843001016E+02  0.000000000E+00  0.00000E+00  9.000E+00
      25     1     1     2     0     0 -1.284007430E+02 -2.775314260E+01  3.795995249E+02  4.206872794E+02  1.250000000E+02  0.00000E+00  9.000E+00
      25     1     1     2     0     0  9.538324405E+01  2.765186880E+01 -1.511212506E+02  2.198299831E+02  1.250000000E+02  0.00000E+00  9.000E+00
      21     1     1     2   502   512  3.301749897E+01  1.012737998E-01 -7.479901251E+01  8.176220256E+01  0.000000000E+00  0.00000E+00  9.000E+00
#rwgt            1           1 -0.10747653760762807                7      336065           0
</event>
<event>
      5   9999  3.79277E-02  7.20223E+00 -1.00000E+00  2.13820E-01
      21    -1     0     0   502   501  0.000000000E+00  0.000000000E+00  2.322691796E+01  2.322691796E+01  0.000000000E+00  0.00000E+00  9.000E+00
      21    -1     0     0   511   502  0.000000000E+00  0.000000000E+00 -1.867143843E+03  1.867143843E+03  0.000000000E+00  0.00000E+00  9.000E+00
      25     1     1     2     0     0  1.161857591E+02  1.031396615E+02 -1.007371104E+03  1.026916969E+03  1.250000000E+02  0.00000E+00  9.000E+00
      25     1     1     2     0     0 -1.090508507E+02 -1.041221015E+02 -7.046600106E+02  7.313714724E+02  1.250000000E+02  0.00000E+00  9.000E+00
      21     1     1     2   511   501 -7.134908392E+00  9.824400065E-01 -1.318858108E+02  1.320823198E+02  0.000000000E+00  0.00000E+00  9.000E+00
#rwgt            1           1   2.6191183155157914E-002           7      336268           0
</event>
<event>
      5   9999  3.79277E-02  2.11157E+02 -1.00000E+00  1.10796E-01
       2    -1     0     0   502     0  0.000000000E+00  0.000000000E+00  8.524909662E+02  8.524909662E+02  0.000000000E+00  0.00000E+00  9.000E+00
      21    -1     0     0   501   502  0.000000000E+00  0.000000000E+00 -2.030309071E+02  2.030309071E+02  0.000000000E+00  0.00000E+00  9.000E+00
      25     1     1     2     0     0 -4.451201437E+00 -1.635849426E+02  2.768619455E+02  3.450469294E+02  1.250000000E+02  0.00000E+00  9.000E+00
      25     1     1     2     0     0  1.966811439E+02  2.509633255E+02  8.356405064E+01  3.525251958E+02  1.250000000E+02  0.00000E+00  9.000E+00
       2     1     1     2   501     0 -1.922299424E+02 -8.737838284E+01  2.890340631E+02  3.579497481E+02  3.814697266E-06  0.00000E+00  9.000E+00
#rwgt            1           1   4.1090151475960963E-002           7      336836           0
</event>
<event>
      5   9999  3.79277E-02  4.00246E+01 -1.00000E+00  1.44824E-01
      21    -1     0     0   502   501  0.000000000E+00  0.000000000E+00  5.074122024E+02  5.074122024E+02  0.000000000E+00  0.00000E+00  9.000E+00
      21    -1     0     0   501   511  0.000000000E+00  0.000000000E+00 -2.659931591E+02  2.659931591E+02  0.000000000E+00  0.00000E+00  9.000E+00
      25     1     1     2     0     0 -1.898613536E+02 -1.264450479E+02  2.419629196E+02  3.552558770E+02  1.250000000E+02  0.00000E+00  9.000E+00
      25     1     1     2     0     0  1.575246445E+02  1.028589935E+02  1.441966443E+02  2.679769736E+02  1.250000000E+02  0.00000E+00  9.000E+00
      21     1     1     2   502   511  3.233670911E+01  2.358605444E+01 -1.447405205E+02  1.501725108E+02  3.303624740E-06  0.00000E+00  9.000E+00
#rwgt            1           1   2.8810582765734484E-002           7      336940           0
</event>
<event>
      5   9999  3.79277E-02  8.44087E+01 -1.00000E+00  1.27232E-01
      21    -1     0     0   502   501  0.000000000E+00  0.000000000E+00  1.275671705E+03  1.275671705E+03  0.000000000E+00  0.00000E+00  9.000E+00
      21    -1     0     0   501   512  0.000000000E+00  0.000000000E+00 -1.118568033E+03  1.118568033E+03  0.000000000E+00  0.00000E+00  9.000E+00
      25     1     1     2     0     0  1.016697180E+02 -9.452609502E+01 -9.318734636E+01  2.087601392E+02  1.250000000E+02  0.00000E+00  9.000E+00
      25     1     1     2     0     0 -1.023556651E+02  1.789319750E+02  1.204072972E+03  1.227969892E+03  1.250000000E+02  0.00000E+00  9.000E+00
      21     1     1     2   502   512  6.859471567E-01 -8.440588002E+01 -9.537819539E+02  9.575097069E+02  1.525878906E-05  0.00000E+00  9.000E+00
#rwgt            1           1  0.17357816952709179                7      337074           0
</event>
<event>
      5   9999  3.79277E-02  5.29096E+01 -1.00000E+00  1.37688E-01
      21    -1     0     0   511   501  0.000000000E+00  0.000000000E+00  6.703530778E+02  6.703530778E+02  0.000000000E+00  0.00000E+00  9.000E+00
      21    -1     0     0   501   502  0.000000000E+00  0.000000000E+00 -2.385327213E+02  2.385327213E+02  0.000000000E+00  0.00000E+00  9.000E+00
      25     1     1     2     0     0 -3.584367731E+01  1.548449608E+02 -3.860963716E+00  2.022415341E+02  1.250000000E+02  0.00000E+00  9.000E+00
      25     1     1     2     0     0  1.222931633E+01 -1.074974671E+02 -8.319865018E+01  1.850737069E+02  1.250000000E+02  0.00000E+00  9.000E+00
      21     1     1     2   511   502  2.361436098E+01 -4.734749371E+01  5.188799704E+02  5.215705579E+02  1.078959322E-05  0.00000E+00  9.000E+00
#rwgt            1           1   3.6061626755733905E-002           7      337185           0
</event>
<event>
      5   9999  3.79277E-02  2.13155E+01 -1.00000E+00  1.64118E-01
      21    -1     0     0   512   501  0.000000000E+00  0.000000000E+00  8.807541360E+02  8.807541360E+02  0.000000000E+00  0.00000E+00  9.000E+00
      21    -1     0     0   501   502  0.000000000E+00  0.000000000E+00 -1.267345237E+02  1.267345237E+02  0.000000000E+00  0.00000E+00  9.000E+00
      25     1     1     2     0     0 -1.036257444E+02 -1.914797378E+02  1.481125369E+02  2.914877502E+02  1.250000000E+02  0.00000E+00  9.000E+00
      25     1     1     2     0     0  1.228583989E+02  1.822897895E+02  2.373231098E+02  3.468011130E+02  1.250000000E+02  0.00000E+00  9.000E+00
      21     1     1     2   512   502 -1.923265448E+01  9.189948292E+00  3.685839655E+02  3.691997966E+02  7.629394531E-06  0.00000E+00  9.000E+00
#rwgt            1           1   3.2653594906089808E-002           7      337385           0
</event>
<event>
      5   9999  3.79277E-02  3.67857E+01 -1.00000E+00  1.47133E-01
      21    -1     0     0   502   501  0.000000000E+00  0.000000000E+00  2.339665391E+02  2.339665391E+02  0.000000000E+00  0.00000E+00  9.000E+00
      21    -1     0     0   501   511  0.000000000E+00  0.000000000E+00 -2.430695323E+02  2.430695323E+02  0.000000000E+00  0.00000E+00  9.000E+00
      25     1     1     2     0     0  5.292027111E+01 -1.439590803E+02 -5.159915022E+01  2.044804250E+02  1.250000000E+02  0.00000E+00  9.000E+00
      25     1     1     2     0     0 -4.695339720E+01  1.802576421E+02  5.942108713E+01  2.320631480E+02  1.250000000E+02  0.00000E+00  9.000E+00
      21     1     1     2   502   511 -5.966873912E+00 -3.629856175E+01 -1.692493010E+01  4.049249842E+01  4.768371582E-07  0.00000E+00  9.000E+00
#rwgt            1           1   4.8605418673943503E-002           7      337533           0
</event>
<event>
      5   9999  3.79277E-02  1.20690E+01 -1.00000E+00  1.86767E-01
      21    -1     0     0   512   501  0.000000000E+00  0.000000000E+00  1.124756373E+02  1.124756373E+02  0.000000000E+00  0.00000E+00  9.000E+00
      21    -1     0     0   501   502  0.000000000E+00  0.000000000E+00 -4.084207654E+02  4.084207654E+02  0.000000000E+00  0.00000E+00  9.000E+00
      25     1     1     2     0     0  7.673920815E+01 -8.227759664E+01 -3.049256612E+02  3.482286143E+02  1.250000000E+02  0.00000E+00  9.000E+00
      25     1     1     2     0     0 -6.812990867E+01  7.381942259E+01  8.090827807E+00  1.605660397E+02  1.250000000E+02  0.00000E+00  9.000E+00
      21     1     1     2   512   502 -8.609299479E+00  8.458174049E+00  8.897052573E-01  1.210174868E+01  9.940314341E-08  0.00000E+00  9.000E+00
#rwgt            1           1   3.1144660255669743E-002           7      337631           0
</event>
<event>
      5   9999  3.79277E-02  1.31274E+02 -1.00000E+00  1.18736E-01
      21    -1     0     0   502   511  0.000000000E+00  0.000000000E+00  8.401672677E+02  8.401672677E+02  0.000000000E+00  0.00000E+00  9.000E+00
      21    -1     0     0   501   502  0.000000000E+00  0.000000000E+00 -1.516564803E+02  1.516564803E+02  0.000000000E+00  0.00000E+00  9.000E+00
      25     1     1     2     0     0 -2.829333443E+02  1.307037005E+02  3.713761479E+02  5.006795162E+02  1.250000000E+02  0.00000E+00  9.000E+00
      25     1     1     2     0     0  1.642720281E+02 -7.455865683E+01  1.089555479E+02  2.450318427E+02  1.250000000E+02  0.00000E+00  9.000E+00
      21     1     1     2   501   511  1.186613163E+02 -5.614504370E+01  2.081790916E+02  2.461123891E+02  2.697398305E-06  0.00000E+00  9.000E+00
#rwgt            1           1   3.7262444960827673E-002           7      337795           0
</event>
<event>
      5   9999  3.79277E-02  7.05420E+01 -1.00000E+00  1.31051E-01
      21    -1     0     0   502   501  0.000000000E+00  0.000000000E+00  1.091696239E+02  1.091696239E+02  0.000000000E+00  0.00000E+00  9.000E+00
      21    -1     0     0   501   512  0.000000000E+00  0.000000000E+00 -6.896531959E+02  6.896531959E+02  0.000000000E+00  0.00000E+00  9.000E+00
      25     1     1     2     0     0  1.814396285E+02  9.176718902E+00 -1.609938932E+02  2.730358669E+02  1.250000000E+02  0.00000E+00  9.000E+00
      25     1     1     2     0     0 -1.203409016E+02 -4.443471169E+01 -1.141278305E+02  2.123829981E+02  1.250000000E+02  0.00000E+00  9.000E+00
      21     1     1     2   502   512 -6.109872686E+01  3.525799279E+01 -3.053618483E+02  3.134039548E+02  6.607249480E-06  0.00000E+00  9.000E+00
#rwgt            1           1   2.7637022221986239E-002           7      337850           0
</event>
<event>
      5   9999  3.79277E-02  1.28453E+02 -1.00000E+00  1.19127E-01
      21    -1     0     0   502   501  0.000000000E+00  0.000000000E+00  5.318067979E+02  5.318067979E+02  0.000000000E+00  0.00000E+00  9.000E+00
      21    -1     0     0   511   502  0.000000000E+00  0.000000000E+00 -4.760872987E+02  4.760872987E+02  0.000000000E+00  0.00000E+00  9.000E+00
      25     1     1     2     0     0 -2.279240416E+02  1.617620345E+01  3.000231840E+02  3.973033466E+02  1.250000000E+02  0.00000E+00  9.000E+00
      25     1     1     2     0     0  2.538300419E+02 -1.419902192E+02  1.950649805E+01  3.171693806E+02  1.250000000E+02  0.00000E+00  9.000E+00
      21     1     1     2   511   501 -2.590600035E+01  1.258140157E+02 -2.638101829E+02  2.934213693E+02  3.814697266E-06  0.00000E+00  9.000E+00
#rwgt            1           1  0.25166242290317326                7      337919           0
</event>
<event>
      5   9999  3.79277E-02  2.17065E+01 -1.00000E+00  1.63488E-01
      21    -1     0     0   502   501  0.000000000E+00  0.000000000E+00  4.826460132E+02  4.826460132E+02  0.000000000E+00  0.00000E+00  9.000E+00
      21    -1     0     0   512   502  0.000000000E+00  0.000000000E+00 -4.050570194E+02  4.050570194E+02  0.000000000E+00  0.00000E+00  9.000E+00
      25     1     1     2     0     0  1.869864161E+02 -2.012248702E+02  3.264709763E+02  4.445938220E+02  1.250000000E+02  0.00000E+00  9.000E+00
      25     1     1     2     0     0 -1.900942535E+02  1.797420021E+02 -1.223054986E+02  3.146849973E+02  1.250000000E+02  0.00000E+00  9.000E+00
      21     1     1     2   512   501  3.107837354E+00  2.148286812E+01 -1.265764840E+02  1.284242133E+02  3.303624740E-06  0.00000E+00  9.000E+00
#rwgt            1           1   1.6424294346435740E-002           7      338042           0
</event>
<event>
      5   9999  3.79277E-02  1.19730E+02 -1.00000E+00  1.20410E-01
      21    -1     0     0   502   511  0.000000000E+00  0.000000000E+00  2.760437609E+02  2.760437609E+02  0.000000000E+00  0.00000E+00  9.000E+00
      21    -1     0     0   501   502  0.000000000E+00  0.000000000E+00 -2.270061551E+02  2.270061551E+02  0.000000000E+00  0.00000E+00  9.000E+00
      25     1     1     2     0     0  1.335509327E+02  5.713602058E+01  5.970640905E+00  1.917316485E+02  1.250000000E+02  0.00000E+00  9.000E+00
      25     1     1     2     0     0 -8.251894297E+01  5.117390810E+01 -4.281660116E+01  1.639707479E+02  1.250000000E+02  0.00000E+00  9.000E+00
      21     1     1     2   501   511 -5.103198978E+01 -1.083099287E+02  8.588356600E+01  1.473475196E+02  1.907348633E-06  0.00000E+00  9.000E+00
#rwgt            2          11   2.2316962512253396E-003           7      338285           0
</event>
<event>
      5   9999  3.79277E-02  5.85977E+01 -1.00000E+00  1.35255E-01
      21    -1     0     0   502   501  0.000000000E+00  0.000000000E+00  2.868712968E+02  2.868712968E+02  0.000000000E+00  0.00000E+00  9.000E+00
      21    -1     0     0   501   512  0.000000000E+00  0.000000000E+00 -5.063359204E+02  5.063359204E+02  0.000000000E+00  0.00000E+00  9.000E+00
      25     1     1     2     0     0 -7.645820779E+01  2.710329998E+02  1.142793222E+02  3.286175710E+02  1.250000000E+02  0.00000E+00  9.000E+00
      25     1     1     2     0     0  9.166250745E+01 -2.144421473E+02 -2.741251116E+02  3.809947856E+02  1.250000000E+02  0.00000E+00  9.000E+00
      21     1     1     2   502   512 -1.520429967E+01 -5.659085250E+01 -5.961883423E+01  8.359486055E+01  6.743495762E-07  0.00000E+00  9.000E+00
#rwgt            1           1   4.2278604638974163E-002           7      338455           0
</event>
<event>
      5   9999  3.79277E-02  3.73438E+01 -1.00000E+00  1.46716E-01
      21    -1     0     0   511   501  0.000000000E+00  0.000000000E+00  2.497410909E+02  2.497410909E+02  0.000000000E+00  0.00000E+00  9.000E+00
      21    -1     0     0   501   502  0.000000000E+00  0.000000000E+00 -6.911708869E+02  6.911708869E+02  0.000000000E+00  0.00000E+00  9.000E+00
      25     1     1     2     0     0  5.631058004E+00 -2.789954701E+02 -4.320282649E+02  5.292859367E+02  1.250000000E+02  0.00000E+00  9.000E+00
      25     1     1     2     0     0  1.346728639E+01  3.110861333E+02 -6.779611811E+01  3.423116471E+02  1.250000000E+02  0.00000E+00  9.000E+00
      21     1     1     2   511   502 -1.909834439E+01 -3.209066318E+01  5.839458702E+01  6.931439400E+01  1.784161275E-06  0.00000E+00  9.000E+00
#rwgt            1           1   3.1212109205218750E-002           7      338600           0
</event>
<event>
      5   9999  3.79277E-02  8.79698E+01 -1.00000E+00  1.26385E-01
      21    -1     0     0   502   501  0.000000000E+00  0.000000000E+00  5.098877624E+02  5.098877624E+02  0.000000000E+00  0.00000E+00  9.000E+00
      21    -1     0     0   512   502  0.000000000E+00  0.000000000E+00 -5.855570147E+02  5.855570147E+02  0.000000000E+00  0.00000E+00  9.000E+00
      25     1     1     2     0     0  1.032222061E+02 -1.412573269E+02  2.819673934E+02  3.545970490E+02  1.250000000E+02  0.00000E+00  9.000E+00
      25     1     1     2     0     0 -1.797673567E+02  9.790382614E+01  1.108140964E+02  2.642086782E+02  1.250000000E+02  0.00000E+00  9.000E+00
      21     1     1     2   512   501  7.654515059E+01  4.335350076E+01 -4.684507420E+02  4.766390498E+02  0.000000000E+00  0.00000E+00  9.000E+00
#rwgt            1           1  0.14376033836990904                7      338771           0
</event>
<event>
      5   9999  3.79277E-02  2.65107E+01 -1.00000E+00  1.56866E-01
      21    -1     0     0   511   501  0.000000000E+00  0.000000000E+00  6.603849587E+02  6.603849587E+02  0.000000000E+00  0.00000E+00  9.000E+00
      21    -1     0     0   501   502  0.000000000E+00  0.000000000E+00 -1.254437649E+02  1.254437649E+02  0.000000000E+00  0.00000E+00  9.000E+00
      25     1     1     2     0     0  1.201719131E+02  1.996507113E+02  2.414271756E+02  3.580695132E+02  1.250000000E+02  0.00000E+00  9.000E+00
      25     1     1     2     0     0 -9.367470819E+01 -2.004960037E+02  1.806465974E+02  3.118201270E+02  1.250000000E+02  0.00000E+00  9.000E+00
      21     1     1     2   511   502 -2.649720493E+01  8.452923843E-01  1.128674208E+02  1.159390834E+02  1.348699152E-06  0.00000E+00  9.000E+00
#rwgt            2          11   1.0925963399118542E-003           7      338830           0
</event>
<event>
      5   9999  3.79277E-02  1.66301E+01 -1.00000E+00  1.73264E-01
      21    -1     0     0   502   501  0.000000000E+00  0.000000000E+00  7.036120823E+02  7.036120823E+02  0.000000000E+00  0.00000E+00  9.000E+00
      21    -1     0     0   501   512  0.000000000E+00  0.000000000E+00 -1.783153784E+02  1.783153784E+02  0.000000000E+00  0.00000E+00  9.000E+00
      25     1     1     2     0     0  1.154843263E+02 -9.673453635E+01  2.924783494E+02  3.519414511E+02  1.250000000E+02  0.00000E+00  9.000E+00
      25     1     1     2     0     0 -1.063218236E+02  1.106128528E+02  3.551301525E+02  4.065488391E+02  1.250000000E+02  0.00000E+00  9.000E+00
      21     1     1     2   502   512 -9.162502669E+00 -1.387831647E+01 -1.223117980E+02  1.234371705E+02  0.000000000E+00  0.00000E+00  9.000E+00
#rwgt            1           1   2.2820249521022275E-002           7      338985           0
</event>
<event>
      5   9999  3.79277E-02  1.44715E+02 -1.00000E+00  1.17014E-01
      21    -1     0     0   502   501  0.000000000E+00  0.000000000E+00  5.103828308E+02  5.103828308E+02  0.000000000E+00  0.00000E+00  9.000E+00
      21    -1     0     0   501   511  0.000000000E+00  0.000000000E+00 -7.213480510E+02  7.213480510E+02  0.000000000E+00  0.00000E+00  9.000E+00
      25     1     1     2     0     0  3.060914621E+02  2.649263779E+01  2.544992963E+02  4.180774268E+02  1.250000000E+02  0.00000E+00  9.000E+00
      25     1     1     2     0     0 -1.824011156E+02 -1.016129734E+02  7.460496057E+01  2.545314587E+02  1.250000000E+02  0.00000E+00  9.000E+00
      21     1     1     2   502   511 -1.236903465E+02  7.512033557E+01 -5.400694771E+02  5.591219963E+02  7.629394531E-06  0.00000E+00  9.000E+00
#rwgt            1           1   3.5269113061055284E-002           7      339206           0
</event>
<event>
      5   9999  3.79277E-02  4.60864E+01 -1.00000E+00  1.41126E-01
       1    -1     0     0   502     0  0.000000000E+00  0.000000000E+00  8.294961699E+02  8.294961699E+02  0.000000000E+00  0.00000E+00  9.000E+00
      21    -1     0     0   501   502  0.000000000E+00  0.000000000E+00 -1.243269296E+02  1.243269296E+02  0.000000000E+00  0.00000E+00  9.000E+00
      25     1     1     2     0     0  9.329780442E+01  1.124458277E+02  1.329796372E+01  1.927443392E+02  1.250000000E+02  0.00000E+00  9.000E+00
      25     1     1     2     0     0 -1.069048579E+02 -6.841398306E+01  2.031634781E+02  2.702027397E+02  1.250000000E+02  0.00000E+00  9.000E+00
       1     1     1     2   501     0  1.360705350E+01 -4.403184460E+01  4.887077985E+02  4.908760206E+02  5.394796609E-06  0.00000E+00  9.000E+00
#rwgt            1           1   5.1262080095637812E-002           7      339347           0
</event>
<event>
      5   9999  3.79277E-02  9.54590E+01 -1.00000E+00  1.24743E-01
      21    -1     0     0   502   501  0.000000000E+00  0.000000000E+00  7.353286030E+02  7.353286030E+02  0.000000000E+00  0.00000E+00  9.000E+00
      21    -1     0     0   501   511  0.000000000E+00  0.000000000E+00 -1.757320126E+02  1.757320126E+02  0.000000000E+00  0.00000E+00  9.000E+00
      25     1     1     2     0     0  5.724430271E+01 -9.150203659E+01  7.507212274E+01  1.814121179E+02  1.250000000E+02  0.00000E+00  9.000E+00
      25     1     1     2     0     0  3.640524587E+01  7.300385577E+01  5.774492527E+02  5.964289935E+02  1.250000000E+02  0.00000E+00  9.000E+00
      21     1     1     2   502   511 -9.364954859E+01  1.849818083E+01 -9.292478502E+01  1.332195043E+02  3.303624740E-06  0.00000E+00  9.000E+00
#rwgt            1           1   3.3814824284539274E-002           7      339436           0
</event>
<event>
      5   9999  3.79277E-02  2.47579E+01 -1.00000E+00  1.59068E-01
      21    -1     0     0   502   512  0.000000000E+00  0.000000000E+00  2.322264775E+02  2.322264775E+02  0.000000000E+00  0.00000E+00  9.000E+00
      21    -1     0     0   501   502  0.000000000E+00  0.000000000E+00 -1.397644215E+03  1.397644215E+03  0.000000000E+00  0.00000E+00  9.000E+00
      25     1     1     2     0     0  1.678148529E+02 -3.976166953E+02 -1.336251513E+02  4.687659782E+02  1.250000000E+02  0.00000E+00  9.000E+00
      25     1     1     2     0     0 -1.704338863E+02  3.729977521E+02 -1.047463675E+03  1.131803951E+03  1.250000000E+02  0.00000E+00  9.000E+00
      21     1     1     2   501   512  2.619033395E+00  2.461894325E+01  1.567108897E+01  2.930076334E+01  4.460403188E-07  0.00000E+00  9.000E+00
#rwgt            1           1  0.30995809643048089                7      339566           0
</event>
<event>
      5   9999  3.79277E-02  4.89074E+01 -1.00000E+00  1.39625E-01
      21    -1     0     0   502   501  0.000000000E+00  0.000000000E+00  1.072634463E+02  1.072634463E+02  0.000000000E+00  0.00000E+00  9.000E+00
      21    -1     0     0   501   511  0.000000000E+00  0.000000000E+00 -3.202436210E+02  3.202436210E+02  0.000000000E+00  0.00000E+00  9.000E+00
      25     1     1     2     0     0 -3.842164126E+01 -5.622291784E+00  1.728200636E+01  1.320284076E+02  1.250000000E+02  0.00000E+00  9.000E+00
      25     1     1     2     0     0 -5.468435468E+00 -1.595537347E+01 -1.167226596E+02  1.718535917E+02  1.250000000E+02  0.00000E+00  9.000E+00
      21     1     1     2   502   511  4.389007673E+01  2.157766525E+01 -1.135395216E+02  1.236250680E+02  1.348699152E-06  0.00000E+00  9.000E+00
#rwgt            1           1   4.8976915434397229E-002           7      339775           0
</event>
<event>
      5   9999  3.79277E-02  6.82594E+01 -1.00000E+00  1.31777E-01
      21    -1     0     0   512   501  0.000000000E+00  0.000000000E+00  1.162340182E+02  1.162340182E+02  0.000000000E+00  0.00000E+00  9.000E+00
      21    -1     0     0   501   502  0.000000000E+00  0.000000000E+00 -9.337755604E+02  9.337755604E+02  0.000000000E+00  0.00000E+00  9.000E+00
      25     1     1     2     0     0 -8.007771236E+01  8.415767781E+01 -2.198691303E+02  2.783206590E+02  1.250000000E+02  0.00000E+00  9.000E+00
      25     1     1     2     0     0  1.372707232E+01 -6.812819300E+01 -6.623733542E+02  6.776380624E+02  1.250000000E+02  0.00000E+00  9.000E+00
      21     1     1     2   512   502  6.635064005E+01 -1.602948481E+01  6.470094226E+01  9.405085724E+01  1.651812370E-06  0.00000E+00  9.000E+00
#rwgt            1           1   3.6669690269533095E-002           7      339861           0
</event>
<event>
      5   9999  3.79277E-02  1.77922E+02 -1.00000E+00  1.13529E-01
      -2    -1     0     0     0   501  0.000000000E+00  0.000000000E+00  1.417499703E+03  1.417499703E+03  0.000000000E+00  0.00000E+00  9.000E+00
      21    -1     0     0   501   502  0.000000000E+00  0.000000000E+00 -2.261150783E+02  2.261150783E+02  0.000000000E+00  0.00000E+00  9.000E+00
      25     1     1     2     0     0 -2.989986061E+01 -3.861519409E+01 -1.801413361E+02  2.246353397E+02  1.250000000E+02  0.00000E+00  9.000E+00
      25     1     1     2     0     0 -1.226134352E+02 -5.301466588E+01  6.038674538E+02  6.309718782E+02  1.250000000E+02  0.00000E+00  9.000E+00
      -2     1     1     2     0   502  1.525132958E+02  9.162985997E+01  7.676585070E+02  7.880075634E+02  0.000000000E+00  0.00000E+00  9.000E+00
#rwgt            1           1   3.5519149006110348E-002           7      339979           0
</event>
<event>
      5   9999  3.79277E-02  1.46651E+02 -1.00000E+00  1.16784E-01
      21    -1     0     0   502   501  0.000000000E+00  0.000000000E+00  1.743873891E+03  1.743873891E+03  0.000000000E+00  0.00000E+00  9.000E+00
      21    -1     0     0   501   511  0.000000000E+00  0.000000000E+00 -4.394331309E+02  4.394331309E+02  0.000000000E+00  0.00000E+00  9.000E+00
      25     1     1     2     0     0 -1.733499643E+02  3.348132306E+02  1.428394995E+02  4.221116347E+02  1.250000000E+02  0.00000E+00  9.000E+00
      25     1     1     2     0     0  3.103795016E+02 -2.825707159E+02  1.407953977E+03  1.474496879E+03  1.250000000E+02  0.00000E+00  9.000E+00
      21     1     1     2   502   511 -1.370295373E+02 -5.224251471E+01 -2.463527158E+02  2.866985089E+02  2.697398305E-06  0.00000E+00  9.000E+00
#rwgt            1           1  0.17991468391160761                7      340168           0
</event>
<event>
      5   9999  3.79277E-02  7.76040E+01 -1.00000E+00  1.28992E-01
      21    -1     0     0   502   501  0.000000000E+00  0.000000000E+00  1.112110763E+03  1.112110763E+03  0.000000000E+00  0.00000E+00  9.000E+00
      21    -1     0     0   501   512  0.000000000E+00  0.000000000E+00 -5.760182769E+01  5.760182769E+01  0.000000000E+00  0.00000E+00  9.000E+00
      25     1     1     2     0     0  8.087143159E+01  5.085117204E+01  1.551699434E+02  2.209722641E+02  1.250000000E+02  0.00000E+00  9.000E+00
      25     1     1     2     0     0 -1.525981013E+02 -8.047652789E+01  7.594658234E+02  7.887813316E+02  1.250000000E+02  0.00000E+00  9.000E+00
      21     1     1     2   502   512  7.172666967E+01  2.962535586E+01  1.398731685E+02  1.599589951E+02  3.303624740E-06  0.00000E+00  9.000E+00
#rwgt            1           1   4.2973036412567368E-002           7      340247           0
</event>
<event>
      5   9999  3.79277E-02  2.35428E+01 -1.00000E+00  1.60730E-01
      21    -1     0     0   502   511  0.000000000E+00  0.000000000E+00  6.756106411E+01  6.756106411E+01  0.000000000E+00  0.00000E+00  9.000E+00
      21    -1     0     0   501   502  0.000000000E+00  0.000000000E+00 -6.479759512E+02  6.479759512E+02  0.000000000E+00  0.00000E+00  9.000E+00
      25     1     1     2     0     0 -1.176814088E+02 -8.737898871E+01 -3.649107766E+02  4.126364944E+02  1.250000000E+02  0.00000E+00  9.000E+00
      25     1     1     2     0     0  9.878781723E+01  1.014251755E+02 -1.851186138E+02  2.644617179E+02  1.250000000E+02  0.00000E+00  9.000E+00
      21     1     1     2   501   511  1.889359153E+01 -1.404618684E+01 -3.038549676E+01  3.843880304E+01  3.371747881E-07  0.00000E+00  9.000E+00
#rwgt            1           1   4.6887356737010701E-002           7      340361           0
</event>
<event>
      5   9999  3.79277E-02  6.76397E+01 -1.00000E+00  1.31980E-01
      21    -1     0     0   502   501  0.000000000E+00  0.000000000E+00  4.431287003E+02  4.431287003E+02  0.000000000E+00  0.00000E+00  9.000E+00
      21    -1     0     0   501   512  0.000000000E+00  0.000000000E+00 -7.901605084E+01  7.901605084E+01  0.000000000E+00  0.00000E+00  9.000E+00
      25     1     1     2     0     0  6.307800728E+01 -8.359853815E+01  1.124965933E+02  1.981111660E+02  1.250000000E+02  0.00000E+00  9.000E+00
      25     1     1     2     0     0 -4.743770716E+01  1.779191671E+01  1.863538377E+02  2.300426943E+02  1.250000000E+02  0.00000E+00  9.000E+00
      21     1     1     2   502   512 -1.564030012E+01  6.580662144E+01  6.526221852E+01  9.399089094E+01  1.348699152E-06  0.00000E+00  9.000E+00
#rwgt            1           1   9.5246589940025703E-002           7      340547           0
</event>
<event>
      5   9999  3.79277E-02  1.05064E+02 -1.00000E+00  1.22871E-01
      21    -1     0     0   502   501  0.000000000E+00  0.000000000E+00  1.444322694E+02  1.444322694E+02  0.000000000E+00  0.00000E+00  9.000E+00
      21    -1     0     0   511   502  0.000000000E+00  0.000000000E+00 -7.414971527E+02  7.414971527E+02  0.000000000E+00  0.00000E+00  9.000E+00
      25     1     1     2     0     0 -5.436684118E+01  2.080042968E+01 -1.123526488E+02  1.778666045E+02  1.250000000E+02  0.00000E+00  9.000E+00
      25     1     1     2     0     0 -3.931277079E+01 -6.836607005E+01  5.538989876E+01  1.578367966E+02  1.250000000E+02  0.00000E+00  9.000E+00
      21     1     1     2   511   501  9.367961197E+01  4.756564037E+01 -5.401021332E+02  5.502260209E+02  7.629394531E-06  0.00000E+00  9.000E+00
#rwgt            1           1   4.1896912906030495E-002           7      340621           0
</event>
<event>
      5   9999  3.79277E-02  1.78223E+02 -1.00000E+00  1.13502E-01
      21    -1     0     0   502   501  0.000000000E+00  0.000000000E+00  1.705061878E+03  1.705061878E+03  0.000000000E+00  0.00000E+00  9.000E+00
      21    -1     0     0   512   502  0.000000000E+00  0.000000000E+00 -2.535847462E+02  2.535847462E+02  0.000000000E+00  0.00000E+00  9.000E+00
      25     1     1     2     0     0 -3.041661474E+02 -1.697879658E+02  1.515032032E+03  1.559580731E+03  1.250000000E+02  0.00000E+00  9.000E+00
      25     1     1     2     0     0  1.664848829E+02  5.661902417E+01 -3.495991123E+01  2.185637791E+02  1.250000000E+02  0.00000E+00  9.000E+00
      21     1     1     2   512   501  1.376812645E+02  1.131689417E+02 -2.859498861E+01  1.805021145E+02  3.216442481E-06  0.00000E+00  9.000E+00
#rwgt            1           1   7.7965347299214949E-002           7      340789           0
</event>
<event>
      5   9999  3.79277E-02  2.83663E+01 -1.00000E+00  1.54748E-01
      21    -1     0     0   511   501  0.000000000E+00  0.000000000E+00  4.968512254E+02  4.968512254E+02  0.000000000E+00  0.00000E+00  9.000E+00
      21    -1     0     0   501   502  0.000000000E+00  0.000000000E+00 -3.066550605E+02  3.066550605E+02  0.000000000E+00  0.00000E+00  9.000E+00
      25     1     1     2     0     0 -1.601126471E+01 -1.379954861E+02  5.736986610E+01  1.954876373E+02  1.250000000E+02  0.00000E+00  9.000E+00
      25     1     1     2     0     0 -1.056398873E+01  1.280757230E+02 -2.030952341E+02  2.709015740E+02  1.250000000E+02  0.00000E+00  9.000E+00
      21     1     1     2   511   502  2.657525344E+01  9.919763086E+00  3.359215328E+02  3.371170746E+02  6.607249480E-06  0.00000E+00  9.000E+00
#rwgt            1           1   3.6566887342888509E-002           7      340919           0
</event>
<event>
      5   9999  3.79277E-02  8.71671E+01 -1.00000E+00  1.26571E-01
      21    -1     0     0   512   501  0.000000000E+00  0.000000000E+00  1.610441810E+02  1.610441810E+02  0.000000000E+00  0.00000E+00  9.000E+00
      21    -1     0     0   501   502  0.000000000E+00  0.000000000E+00 -5.718070228E+02  5.718070228E+02  0.000000000E+00  0.00000E+00  9.000E+00
      25     1     1     2     0     0 -6.511146269E+01  1.838107336E+02 -1.239905469E+02  2.627252254E+02  1.250000000E+02  0.00000E+00  9.000E+00
      25     1     1     2     0     0  1.390498468E+02 -1.376456219E+02 -3.027278824E+02  3.815106131E+02  1.250000000E+02  0.00000E+00  9.000E+00
      21     1     1     2   512   502 -7.393838411E+01 -4.616511171E+01  1.595558757E+01  8.861536525E+01  2.132480600E-06  0.00000E+00  9.000E+00
#rwgt            1           1  0.10722471493305685                7      341214           0
</event>
<event>
      5   9999  3.79277E-02  1.29920E+02 -1.00000E+00  1.18922E-01
      21    -1     0     0   502   501  0.000000000E+00  0.000000000E+00  6.050014401E+01  6.050014401E+01  0.000000000E+00  0.00000E+00  9.000E+00
      21    -1     0     0   501   511  0.000000000E+00  0.000000000E+00 -1.281891310E+03  1.281891310E+03  0.000000000E+00  0.00000E+00  9.000E+00
      25     1     1     2     0     0  1.140395885E+02  1.692264855E+01 -1.441123382E+02  2.229008071E+02  1.250000000E+02  0.00000E+00  9.000E+00
      25     1     1     2     0     0  5.096850042E+00 -6.874602275E+01 -3.099622728E+02  3.412529913E+02  1.250000000E+02  0.00000E+00  9.000E+00
      21     1     1     2   502   511 -1.191364385E+02  5.182337421E+01 -7.673165552E+02  7.782376558E+02  1.868812365E-05  0.00000E+00  9.000E+00
#rwgt            1           1   5.0138037684464315E-002           7      341305           0
</event>
<event>
      5   9999  3.79277E-02  1.22457E+02 -1.00000E+00  1.19996E-01
      21    -1     0     0   512   501  0.000000000E+00  0.000000000E+00  1.745247135E+02  1.745247135E+02  0.000000000E+00  0.00000E+00  9.000E+00
      21    -1     0     0   501   502  0.000000000E+00  0.000000000E+00 -5.983461568E+02  5.983461568E+02  0.000000000E+00  0.00000E+00  9.000E+00
      25     1     1     2     0     0  6.145524943E+01  1.671051484E+02 -1.982072365E+02  2.942991453E+02  1.250000000E+02  0.00000E+00  9.000E+00
      25     1     1     2     0     0 -1.775092121E+02 -2.061832944E+02 -1.665537269E+02  3.426167176E+02  1.250000000E+02  0.00000E+00  9.000E+00
      21     1     1     2   512   502  1.160539626E+02  3.907814596E+01 -5.906047991E+01  1.359550074E+02  2.697398305E-06  0.00000E+00  9.000E+00
#rwgt            1           1   3.6441700270841808E-002           7      341412           0
</event>
<event>
      5   9999  3.79277E-02  2.20122E+02 -1.00000E+00  1.10153E-01
      21    -1     0     0   502   511  0.000000000E+00  0.000000000E+00  2.620971658E+02  2.620971658E+02  0.000000000E+00  0.00000E+00  9.000E+00
      21    -1     0     0   501   502  0.000000000E+00  0.000000000E+00 -1.501729295E+03  1.501729295E+03  0.000000000E+00  0.00000E+00  9.000E+00
      25     1     1     2     0     0 -1.813832400E+02 -2.092236890E+02 -4.670610737E+02  5.571763440E+02  1.250000000E+02  0.00000E+00  9.000E+00
      25     1     1     2     0     0  1.691300448E+02 -1.055684309E+01 -9.186447705E+02  9.424699642E+02  1.250000000E+02  0.00000E+00  9.000E+00
      21     1     1     2   501   511  1.225319517E+01  2.197805321E+02  1.460737146E+02  2.641801529E+02  5.394796609E-06  0.00000E+00  9.000E+00
#rwgt            1           1   3.0979058412038300E-002           7      341529           0
</event>
<event>
      5   9999  3.79277E-02  4.73086E+00 -1.00000E+00  2.47402E-01
      21    -1     0     0   502   501  0.000000000E+00  0.000000000E+00  1.025255583E+02  1.025255583E+02  0.000000000E+00  0.00000E+00  9.000E+00
      21    -1     0     0   512   502  0.000000000E+00  0.000000000E+00 -2.464764537E+02  2.464764537E+02  0.000000000E+00  0.00000E+00  9.000E+00
      25     1     1     2     0     0  7.514851581E+01  3.660851387E+01 -5.696623386E+01  1.608030924E+02  1.250000000E+02  0.00000E+00  9.000E+00
      25     1     1     2     0     0 -7.654483244E+01 -3.208841015E+01 -6.130421436E+01  1.620863478E+02  1.250000000E+02  0.00000E+00  9.000E+00
      21     1     1     2   512   501  1.396316635E+00 -4.520103716E+00 -2.568044719E+01  2.611257179E+01  3.371747881E-07  0.00000E+00  9.000E+00
#rwgt            2          11   2.1101871229505418E-004           7      341648           0
</event>
<event>
      5   9999  3.79277E-02  4.97640E+01 -1.00000E+00  1.39193E-01
      21    -1     0     0   502   501  0.000000000E+00  0.000000000E+00  1.887921571E+02  1.887921571E+02  0.000000000E+00  0.00000E+00  9.000E+00
      21    -1     0     0   501   511  0.000000000E+00  0.000000000E+00 -6.659001884E+02  6.659001884E+02  0.000000000E+00  0.00000E+00  9.000E+00
      25     1     1     2     0     0 -4.937165379E+00 -2.012029790E+02 -2.144644150E+02  3.195731523E+02  1.250000000E+02  0.00000E+00  9.000E+00
      25     1     1     2     0     0  2.109011982E+01  2.482724795E+02 -1.140189493E+01  2.789964523E+02  1.250000000E+02  0.00000E+00  9.000E+00
      21     1     1     2   502   511 -1.615295444E+01 -4.706950047E+01 -2.512417214E+02  2.561227408E+02  3.814697266E-06  0.00000E+00  9.000E+00
#rwgt            1           1   4.2465734755675867E-002           7      341728           0
</event>
<event>
      5   9999  3.79277E-02  1.71053E+02 -1.00000E+00  1.14177E-01
      21    -1     0     0   502   512  0.000000000E+00  0.000000000E+00  1.748767864E+03  1.748767864E+03  0.000000000E+00  0.00000E+00  9.000E+00
      21    -1     0     0   501   502  0.000000000E+00  0.000000000E+00 -8.845025986E+01  8.845025986E+01  0.000000000E+00  0.00000E+00  9.000E+00
      25     1     1     2     0     0  9.894472091E+01  1.550006276E+02  1.166388234E+02  2.510873702E+02  1.250000000E+02  0.00000E+00  9.000E+00
      25     1     1     2     0     0 -7.498970215E+01  1.436714599E+01  3.379283159E+02  3.683075033E+02  1.250000000E+02  0.00000E+00  9.000E+00
      21     1     1     2   501   512 -2.395501876E+01 -1.693677736E+02  1.205750465E+03  1.217823251E+03  1.525878906E-05  0.00000E+00  9.000E+00
#rwgt            1           1   3.5087562894619756E-002           7      341899           0
</event>
<event>
      5   9999  3.79277E-02  1.43968E+01 -1.00000E+00  1.79080E-01
      21    -1     0     0   511   501  0.000000000E+00  0.000000000E+00  2.713053165E+02  2.713053165E+02  0.000000000E+00  0.00000E+00  9.000E+00
      21    -1     0     0   501   502  0.000000000E+00  0.000000000E+00 -7.262875658E+02  7.262875658E+02  0.000000000E+00  0.00000E+00  9.000E+00
      25     1     1     2     0     0  5.601837869E+01 -1.830527280E+01 -6.232007811E+02  6.383395298E+02  1.250000000E+02  0.00000E+00  9.000E+00
      25     1     1     2     0     0 -4.553497784E+01  2.817266577E+01 -4.675443000E+01  1.437988527E+02  1.250000000E+02  0.00000E+00  9.000E+00
      21     1     1     2   511   502 -1.048340085E+01 -9.867392969E+00  2.149729618E+02  2.154544997E+02  3.814697266E-06  0.00000E+00  9.000E+00
#rwgt            1           1   4.3111574554751189E-002           7      342053           0
</event>
<event>
      5   9999  3.79277E-02  7.62172E+01 -1.00000E+00  1.29376E-01
      21    -1     0     0   502   512  0.000000000E+00  0.000000000E+00  3.190784886E+02  3.190784886E+02  0.000000000E+00  0.00000E+00  9.000E+00
      21    -1     0     0   501   502  0.000000000E+00  0.000000000E+00 -3.883847030E+02  3.883847030E+02  0.000000000E+00  0.00000E+00  9.000E+00
      25     1     1     2     0     0  1.043051264E+02 -6.960967357E+01 -5.708657405E+01  1.860347897E+02  1.250000000E+02  0.00000E+00  9.000E+00
      25     1     1     2     0     0 -9.246679104E+01  1.449018843E+02 -2.165032659E+02  3.033897290E+02  1.250000000E+02  0.00000E+00  9.000E+00
      21     1     1     2   501   512 -1.183833532E+01 -7.529221077E+01  2.042836256E+02  2.180386729E+02  2.697398305E-06  0.00000E+00  9.000E+00
#rwgt            1           1   4.1090673384355222E-002           7      342296           0
</event>
<event>
      5   9999  3.79277E-02  1.31552E+01 -1.00000E+00  1.82927E-01
      21    -1     0     0   502   501  0.000000000E+00  0.000000000E+00  4.680445204E+02  4.680445204E+02  0.000000000E+00  0.00000E+00  9.000E+00
      21    -1     0     0   501   511  0.000000000E+00  0.000000000E+00 -3.153300148E+02  3.153300148E+02  0.000000000E+00  0.00000E+00  9.000E+00
      25     1     1     2     0     0 -1.035489575E+02  3.357449324E+02  1.344717929E+02  3.964274325E+02  1.250000000E+02  0.00000E+00  9.000E+00
      25     1     1     2     0     0  1.142477253E+02 -3.280901628E+02  2.842900590E+01  3.703092033E+02  1.250000000E+02  0.00000E+00  9.000E+00
      21     1     1     2   502   511 -1.069876775E+01 -7.654769539E+00 -1.018629309E+01  1.663789935E+01  0.000000000E+00  0.00000E+00  9.000E+00
#rwgt            1           1   2.9399143023167616E-002           7      342518           0
</event>
<event>
      5   9999  3.79277E-02  1.54168E+02 -1.00000E+00  1.15924E-01
      21    -1     0     0   502   501  0.000000000E+00  0.000000000E+00  8.387230257E+01  8.387230257E+01  0.000000000E+00  0.00000E+00  9.000E+00
       2    -1     0     0   501     0  0.000000000E+00  0.000000000E+00 -2.488430376E+03  2.488430376E+03  0.000000000E+00  0.00000E+00  9.000E+00
      25     1     1     2     0     0 -1.664729510E+02 -9.599405261E+01 -2.474627244E+02  3.373290701E+02  1.250000000E+02  0.00000E+00  9.000E+00
      25     1     1     2     0     0  2.759312992E+01  1.629290516E+02 -2.639534725E+02  3.355647364E+02  1.250000000E+02  0.00000E+00  9.000E+00
       2     1     1     2   502     0  1.388798211E+02 -6.693499897E+01 -1.893141876E+03  1.899408872E+03  2.157918644E-05  0.00000E+00  9.000E+00
#rwgt            1           1   3.2708556071536547E-002           7      342794           0
</event>
<event>
      5   9999  3.79277E-02  1.49069E+02 -1.00000E+00  1.16501E-01
       2    -1     0     0   502     0  0.000000000E+00  0.000000000E+00  3.984284297E+02  3.984284297E+02  0.000000000E+00  0.00000E+00  9.000E+00
      21    -1     0     0   501   502  0.000000000E+00  0.000000000E+00 -4.863083997E+02  4.863083997E+02  0.000000000E+00  0.00000E+00  9.000E+00
      25     1     1     2     0     0  1.028532393E+02  9.246835129E+01 -3.398825309E+02  3.876523180E+02  1.250000000E+02  0.00000E+00  9.000E+00
      25     1     1     2     0     0 -1.017370920E+02  5.659629743E+01 -3.436610193E+01  1.742400807E+02  1.250000000E+02  0.00000E+00  9.000E+00
       2     1     1     2   501     0 -1.116147341E+00 -1.490646487E+02  2.863686629E+02  3.228444306E+02  3.814697266E-06  0.00000E+00  9.000E+00
#rwgt            1           1   3.3581657043868715E-002           7      342904           0
</event>
<event>
      5   9999  3.79277E-02  1.39465E+01 -1.00000E+00  1.80416E-01
      21    -1     0     0   502   501  0.000000000E+00  0.000000000E+00  1.047735162E+03  1.047735162E+03  0.000000000E+00  0.00000E+00  9.000E+00
      21    -1     0     0   501   511  0.000000000E+00  0.000000000E+00 -6.102119915E+01  6.102119915E+01  0.000000000E+00  0.00000E+00  9.000E+00
      25     1     1     2     0     0  1.179794453E+02 -8.362992919E+00  2.351165269E+02  2.913655271E+02  1.250000000E+02  0.00000E+00  9.000E+00
      25     1     1     2     0     0 -1.308746816E+02  1.367506254E+01  7.717939947E+02  7.928468704E+02  1.250000000E+02  0.00000E+00  9.000E+00
      21     1     1     2   502   511  1.289523629E+01 -5.312069618E+00 -2.019655836E+01  2.454396407E+01  3.371747881E-07  0.00000E+00  9.000E+00
#rwgt            1           1   5.5252597465778208E-002           7      343234           0
</event>
<event>
      5   9999  3.79277E-02  1.95240E+01 -1.00000E+00  1.67237E-01
      21    -1     0     0   502   501  0.000000000E+00  0.000000000E+00  2.249558248E+02  2.249558248E+02  0.000000000E+00  0.00000E+00  9.000E+00
      21    -1     0     0   501   512  0.000000000E+00  0.000000000E+00 -2.524518851E+02  2.524518851E+02  0.000000000E+00  0.00000E+00  9.000E+00
      25     1     1     2     0     0 -7.919235391E+01 -7.985379675E+01 -1.458144180E+02  2.225643778E+02  1.250000000E+02  0.00000E+00  9.000E+00
      25     1     1     2     0     0  6.980859044E+01  9.697483224E+01  1.422812382E+02  2.239337137E+02  1.250000000E+02  0.00000E+00  9.000E+00
      21     1     1     2   502   512  9.383763467E+00 -1.712103550E+01 -2.396288048E+01  3.090961847E+01  4.768371582E-07  0.00000E+00  9.000E+00
#rwgt            1           1   4.6445554292118781E-002           7      343756           0
</event>
<event>
      5   9999  3.79277E-02  3.50459E+01 -1.00000E+00  1.48494E-01
      21    -1     0     0   502   501  0.000000000E+00  0.000000000E+00  1.304450911E+02  1.304450911E+02  0.000000000E+00  0.00000E+00  9.000E+00
      21    -1     0     0   511   502  0.000000000E+00  0.000000000E+00 -9.022779977E+02  9.022779977E+02  0.000000000E+00  0.00000E+00  9.000E+00
      25     1     1     2     0     0 -2.797463506E+01 -6.433149523E+01 -1.137345391E+02  1.829799630E+02  1.250000000E+02  0.00000E+00  9.000E+00
      25     1     1     2     0     0  8.421808350E+00  9.341583128E+01  3.136197473E+01  1.593926531E+02  1.250000000E+02  0.00000E+00  9.000E+00
      21     1     1     2   511   501  1.955282671E+01 -2.908433606E+01 -6.894603422E+02  6.903504727E+02  7.629394531E-06  0.00000E+00  9.000E+00
#rwgt            1           1   4.4012811850617270E-002           7      343931           0
</event>
<event>
      5   9999  3.79277E-02  1.20639E+01 -1.00000E+00  1.86786E-01
      21    -1     0     0   502   501  0.000000000E+00  0.000000000E+00  6.286514509E+02  6.286514509E+02  0.000000000E+00  0.00000E+00  9.000E+00
      21    -1     0     0   501   512  0.000000000E+00  0.000000000E+00 -3.843411115E+01  3.843411115E+01  0.000000000E+00  0.00000E+00  9.000E+00
      25     1     1     2     0     0 -7.609334430E+01 -7.680193879E+00  3.799366815E+02  4.072174657E+02  1.250000000E+02  0.00000E+00  9.000E+00
      25     1     1     2     0     0  6.411936883E+01  6.209881093E+00  1.938432664E+02  2.394787423E+02  1.250000000E+02  0.00000E+00  9.000E+00
      21     1     1     2   502   512  1.197397546E+01  1.470312787E+00  1.643739179E+01  2.038935401E+01  2.384185791E-07  0.00000E+00  9.000E+00
#rwgt            1           1   8.1463836019737682E-002           7      344272           0
</event>
<event>
      5   9999  3.79277E-02  3.33869E+00 -1.00000E+00  2.83448E-01
      21    -1     0     0   502   511  0.000000000E+00  0.000000000E+00  1.167665358E+03  1.167665358E+03  0.000000000E+00  0.00000E+00  9.000E+00
      21    -1     0     0   501   502  0.000000000E+00  0.000000000E+00 -3.159250449E+01  3.159250449E+01  0.000000000E+00  0.00000E+00  9.000E+00
      25     1     1     2     0     0  1.117929199E+02 -7.959333241E+01  4.734591252E+02  5.085482266E+02  1.250000000E+02  0.00000E+00  9.000E+00
      25     1     1     2     0     0 -1.136387453E+02  7.681129178E+01  6.008486154E+02  6.288543532E+02  1.250000000E+02  0.00000E+00  9.000E+00
      21     1     1     2   501   511  1.845825368E+00  2.782040634E+00  6.176511305E+01  6.185528281E+01  6.743495762E-07  0.00000E+00  9.000E+00
#rwgt            1           1  0.20963306635537557                7      344542           0
</event>
<event>
      5   9999  3.79277E-02  1.25330E+02 -1.00000E+00  1.19573E-01
      21    -1     0     0   502   501  0.000000000E+00  0.000000000E+00  3.602646705E+02  3.602646705E+02  0.000000000E+00  0.00000E+00  9.000E+00
       2    -1     0     0   501     0  0.000000000E+00  0.000000000E+00 -1.072908160E+03  1.072908160E+03  0.000000000E+00  0.00000E+00  9.000E+00
      25     1     1     2     0     0 -1.699456354E+02  2.721137119E+02  1.255740711E+02  3.664986201E+02  1.250000000E+02  0.00000E+00  9.000E+00
      25     1     1     2     0     0  2.952014623E+02 -2.677911617E+02 -3.005643951E+02  5.146066122E+02  1.250000000E+02  0.00000E+00  9.000E+00
       2     1     1     2   502     0 -1.252558269E+02 -4.322550131E+00 -5.376531654E+02  5.520675981E+02  7.629394531E-06  0.00000E+00  9.000E+00
#rwgt            1           1   4.0459688145058952E-002           7      345030           0
</event>
<event>
      5   9999  3.79277E-02  9.64274E+00 -1.00000E+00  1.97601E-01
      21    -1     0     0   502   511  0.000000000E+00  0.000000000E+00  3.104930602E+02  3.104930602E+02  0.000000000E+00  0.00000E+00  9.000E+00
      21    -1     0     0   501   502  0.000000000E+00  0.000000000E+00 -2.151915473E+02  2.151915473E+02  0.000000000E+00  0.00000E+00  9.000E+00
      25     1     1     2     0     0 -6.644593366E+01 -2.838800015E+01 -3.787226154E+01  1.492656988E+02  1.250000000E+02  0.00000E+00  9.000E+00
      25     1     1     2     0     0  6.371322631E+01  3.763542336E+01 -7.809981505E+01  1.649253813E+02  1.250000000E+02  0.00000E+00  9.000E+00
      21     1     1     2   501   511  2.732707345E+00 -9.247423217E+00  2.112735895E+02  2.114935274E+02  0.000000000E+00  0.00000E+00  9.000E+00
#rwgt            1           1   8.0625931047100585E-002           7      345120           0
</event>
<event>
      5   9999  3.79277E-02  1.63115E+02 -1.00000E+00  1.14969E-01
      -5    -1     0     0     0   501  0.000000000E+00  0.000000000E+00  2.005265814E+02  2.005265814E+02  0.000000000E+00  0.00000E+00  9.000E+00
      21    -1     0     0   501   502  0.000000000E+00  0.000000000E+00 -9.372285215E+02  9.372285215E+02  0.000000000E+00  0.00000E+00  9.000E+00
      25     1     1     2     0     0  5.291927366E+01  1.329837350E+02 -3.451932488E+02  3.940412445E+02  1.250000000E+02  0.00000E+00  9.000E+00
      25     1     1     2     0     0 -2.101600287E+02 -1.763634119E+02 -4.733569053E+02  5.612156898E+02  1.250000000E+02  0.00000E+00  9.000E+00
      -5     1     1     2     0   502  1.572407550E+02  4.337967686E+01  8.184821401E+01  1.824981686E+02  1.651812370E-06  0.00000E+00  9.000E+00
#rwgt            1           1   5.2819707299036844E-002           7      345268           0
</event>
<event>
      5   9999  3.79277E-02  2.58720E+01 -1.00000E+00  1.57644E-01
      21    -1     0     0   502   501  0.000000000E+00  0.000000000E+00  2.213622749E+02  2.213622749E+02  0.000000000E+00  0.00000E+00  9.000E+00
      21    -1     0     0   511   502  0.000000000E+00  0.000000000E+00 -2.498644509E+02  2.498644509E+02  0.000000000E+00  0.00000E+00  9.000E+00
      25     1     1     2     0     0 -1.302589590E+02  9.867867133E+01  6.598372948E+01  2.160641783E+02  1.250000000E+02  0.00000E+00  9.000E+00
      25     1     1     2     0     0  1.064094724E+02 -1.087066500E+02 -4.909693534E+01  2.029177682E+02  1.250000000E+02  0.00000E+00  9.000E+00
      21     1     1     2   511   501  2.384948654E+01  1.002797869E+01 -4.538897007E+01  5.224477935E+01  6.743495762E-07  0.00000E+00  9.000E+00
#rwgt            1           1   3.6008781574753991E-002           7      345320           0
</event>
<event>
      5   9999  3.79277E-02  6.47288E+00 -1.00000E+00  2.20474E-01
      21    -1     0     0   512   501  0.000000000E+00  0.000000000E+00  1.230641255E+01  1.230641255E+01  0.000000000E+00  0.00000E+00  9.000E+00
      21    -1     0     0   501   502  0.000000000E+00  0.000000000E+00 -2.041625330E+03  2.041625330E+03  0.000000000E+00  0.00000E+00  9.000E+00
      25     1     1     2     0     0 -3.605118678E+01 -8.343941874E+01 -9.212011049E+02  9.340761748E+02  1.250000000E+02  0.00000E+00  9.000E+00
      25     1     1     2     0     0  2.968185047E+01  8.228628548E+01 -1.089801244E+03  1.100428915E+03  1.250000000E+02  0.00000E+00  9.000E+00
      21     1     1     2   512   502  6.369336311E+00  1.153133264E+00 -1.831656816E+01  1.942665258E+01  2.384185791E-07  0.00000E+00  9.000E+00
#rwgt            1           1  0.13295408508120918                7      345441           0
</event>
<event>
      5   9999  3.79277E-02  4.11229E+01 -1.00000E+00  1.44098E-01
       1    -1     0     0   502     0  0.000000000E+00  0.000000000E+00  1.297358842E+03  1.297358842E+03  0.000000000E+00  0.00000E+00  9.000E+00
      21    -1     0     0   501   502  0.000000000E+00  0.000000000E+00 -2.609112679E+02  2.609112679E+02  0.000000000E+00  0.00000E+00  9.000E+00
      25     1     1     2     0     0  4.649181889E+01  1.049241770E+02  2.963172620E+02  3.414666776E+02  1.250000000E+02  0.00000E+00  9.000E+00
      25     1     1     2     0     0 -9.809219453E+00 -1.235112098E+02 -2.053364483E+02  2.704427790E+02  1.250000000E+02  0.00000E+00  9.000E+00
       1     1     1     2   501     0 -3.668259944E+01  1.858703282E+01  9.454667609E+02  9.463606537E+02  1.868812365E-05  0.00000E+00  9.000E+00
#rwgt            1           1   4.5717059764017569E-002           7      345720           0
</event>
<event>
      5   9999  3.79277E-02  1.09470E+02 -1.00000E+00  1.22086E-01
      21    -1     0     0   502   511  0.000000000E+00  0.000000000E+00  9.041515681E+02  9.041515681E+02  0.000000000E+00  0.00000E+00  9.000E+00
      21    -1     0     0   501   502  0.000000000E+00  0.000000000E+00 -1.898455623E+02  1.898455623E+02  0.000000000E+00  0.00000E+00  9.000E+00
      25     1     1     2     0     0  2.132118038E+02 -1.593907525E+01  6.223982152E+02  6.698640651E+02  1.250000000E+02  0.00000E+00  9.000E+00
      25     1     1     2     0     0 -2.022577867E+02  1.248599426E+02 -1.780485207E+01  2.691472280E+02  1.250000000E+02  0.00000E+00  9.000E+00
      21     1     1     2   501   511 -1.095401701E+01 -1.089208674E+02  1.097126426E+02  1.549858374E+02  1.907348633E-06  0.00000E+00  9.000E+00
#rwgt            1           1  0.15139848955455137                7      345845           0
</event>
<event>
      5   9999  3.79277E-02  1.65693E+01 -1.00000E+00  1.73407E-01
      21    -1     0     0   502   501  0.000000000E+00  0.000000000E+00  4.968625573E+02  4.968625573E+02  0.000000000E+00  0.00000E+00  9.000E+00
      -4    -1     0     0     0   502  0.000000000E+00  0.000000000E+00 -1.613021380E+02  1.613021380E+02  0.000000000E+00  0.00000E+00  9.000E+00
      25     1     1     2     0     0  2.854533610E+01  1.522423714E+02  3.532225274E+02  4.054426343E+02  1.250000000E+02  0.00000E+00  9.000E+00
      25     1     1     2     0     0 -4.411445358E+01 -1.465728981E+02  3.215522100E+01  2.002215216E+02  1.250000000E+02  0.00000E+00  9.000E+00
      -4     1     1     2     0   501  1.556911748E+01 -5.669473278E+00 -4.981732915E+01  5.250053933E+01  1.168007728E-06  0.00000E+00  9.000E+00
#rwgt            1           1   2.1863753260395555E-002           7      346038           0
</event>
<event>
      5   9999  3.79277E-02  5.38564E+01 -1.00000E+00  1.37259E-01
      21    -1     0     0   511   501  0.000000000E+00  0.000000000E+00  4.695903783E+02  4.695903783E+02  0.000000000E+00  0.00000E+00  9.000E+00
      21    -1     0     0   501   502  0.000000000E+00  0.000000000E+00 -1.437976145E+02  1.437976145E+02  0.000000000E+00  0.00000E+00  9.000E+00
      25     1     1     2     0     0 -1.459052583E+02  1.122355998E+01  7.700826539E+01  2.072910650E+02  1.250000000E+02  0.00000E+00  9.000E+00
      25     1     1     2     0     0  1.658851411E+02 -6.123674389E+01  8.321110213E+01  2.319847115E+02  1.250000000E+02  0.00000E+00  9.000E+00
      21     1     1     2   511   502 -1.997988279E+01  5.001318391E+01  1.655733963E+02  1.741122163E+02  1.907348633E-06  0.00000E+00  9.000E+00
#rwgt            1           1   4.1171545616279136E-002           7      346217           0
</event>
<event>
      5   9999 -3.79277E-02  5.21346E+01 -1.00000E+00  1.38047E-01
      21    -1     0     0   512   501  0.000000000E+00  0.000000000E+00  1.188870587E+02  1.188870587E+02  0.000000000E+00  0.00000E+00  9.000E+00
      21    -1     0     0   501   502  0.000000000E+00  0.000000000E+00 -1.318352670E+03  1.318352670E+03  0.000000000E+00  0.00000E+00  9.000E+00
      25     1     1     2     0     0 -9.546418145E+01 -1.820095570E+02 -8.368794496E+02  8.707658135E+02  1.250000000E+02  0.00000E+00  9.000E+00
      25     1     1     2     0     0  4.943705774E+01  2.064947026E+02 -4.212342314E+02  4.880034453E+02  1.250000000E+02  0.00000E+00  9.000E+00
      21     1     1     2   512   502  4.602712371E+01 -2.448514557E+01  5.864807003E+01  7.847046953E+01  1.907348633E-06  0.00000E+00  9.000E+00
#rwgt            1           1 -0.12044482438729567                7      346350           0
</event>
<event>
      5   9999  3.79277E-02  4.45349E+01 -1.00000E+00  1.42006E-01
      21    -1     0     0   502   501  0.000000000E+00  0.000000000E+00  1.105311998E+03  1.105311998E+03  0.000000000E+00  0.00000E+00  9.000E+00
      21    -1     0     0   501   511  0.000000000E+00  0.000000000E+00 -6.598067589E+01  6.598067589E+01  0.000000000E+00  0.00000E+00  9.000E+00
      25     1     1     2     0     0 -8.414540572E+00  1.735121163E+02  8.019975077E+02  8.300616010E+02  1.250000000E+02  0.00000E+00  9.000E+00
      25     1     1     2     0     0 -2.787148486E+01 -1.476919401E+02  2.176170945E+02  2.925267999E+02  1.250000000E+02  0.00000E+00  9.000E+00
      21     1     1     2   502   511  3.628602543E+01 -2.582017621E+01  1.971671945E+01  4.870427257E+01  7.152557373E-07  0.00000E+00  9.000E+00
#rwgt            1           1   4.6467914670442638E-002           7      346490           0
</event>
<event>
      5   9999  3.79277E-02  3.38634E+01 -1.00000E+00  1.49473E-01
      21    -1     0     0   502   512  0.000000000E+00  0.000000000E+00  2.055933040E+02  2.055933040E+02  0.000000000E+00  0.00000E+00  9.000E+00
      21    -1     0     0   501   502  0.000000000E+00  0.000000000E+00 -1.386182605E+03  1.386182605E+03  0.000000000E+00  0.00000E+00  9.000E+00
      25     1     1     2     0     0 -8.650780863E+01 -1.860070188E+02 -6.734918022E+02  7.150513405E+02  1.250000000E+02  0.00000E+00  9.000E+00
      25     1     1     2     0     0  1.138624948E+02  1.660458222E+02 -6.698247773E+02  7.105111646E+02  1.250000000E+02  0.00000E+00  9.000E+00
      21     1     1     2   501   512 -2.735468622E+01  1.996119659E+01  1.627272788E+02  1.662134034E+02  1.907348633E-06  0.00000E+00  9.000E+00
#rwgt            1           1   2.2052547313060174E-002           7      346650           0
</event>
<event>
      5   9999  3.79277E-02  5.65911E+01 -1.00000E+00  1.36075E-01
      21    -1     0     0   511   501  0.000000000E+00  0.000000000E+00  1.246075387E+02  1.246075387E+02  0.000000000E+00  0.00000E+00  9.000E+00
      21    -1     0     0   501   502  0.000000000E+00  0.000000000E+00 -5.934956420E+02  5.934956420E+02  0.000000000E+00  0.00000E+00  9.000E+00
      25     1     1     2     0     0  7.698238053E+01 -9.626170724E+01 -3.470500747E+01  1.789470333E+02  1.250000000E+02  0.00000E+00  9.000E+00
      25     1     1     2     0     0 -9.098114417E+01  4.142933507E+01 -4.522600586E+02  4.797479745E+02  1.250000000E+02  0.00000E+00  9.000E+00
      21     1     1     2   511   502  1.399876364E+01  5.483237217E+01  1.807696282E+01  5.940817289E+01  8.920806376E-07  0.00000E+00  9.000E+00
#rwgt            1           1   4.1336166672815804E-002           7      346836           0
</event>
<event>
      5   9999  3.79277E-02  3.64133E+01 -1.00000E+00  1.47417E-01
      21    -1     0     0   502   512  0.000000000E+00  0.000000000E+00  3.960954634E+02  3.960954634E+02  0.000000000E+00  0.00000E+00  9.000E+00
      21    -1     0     0   501   502  0.000000000E+00  0.000000000E+00 -1.202931496E+02  1.202931496E+02  0.000000000E+00  0.00000E+00  9.000E+00
      25     1     1     2     0     0  7.886081529E+01 -1.255832803E+01 -2.608372867E+01  1.506057791E+02  1.250000000E+02  0.00000E+00  9.000E+00
      25     1     1     2     0     0 -1.107790026E+02  3.008420461E+01  2.392242617E+02  2.933092125E+02  1.250000000E+02  0.00000E+00  9.000E+00
      21     1     1     2   501   512  3.191818734E+01 -1.752587658E+01  6.266178079E+01  7.247362144E+01  0.000000000E+00  0.00000E+00  9.000E+00
#rwgt            1           1   4.1954005946345810E-002           7      346936           0
</event>
<event>
      5   9999  3.79277E-02  7.10806E+01 -1.00000E+00  1.30885E-01
      21    -1     0     0   502   501  0.000000000E+00  0.000000000E+00  1.727876132E+02  1.727876132E+02  0.000000000E+00  0.00000E+00  9.000E+00
      21    -1     0     0   501   511  0.000000000E+00  0.000000000E+00 -1.796293632E+03  1.796293632E+03  0.000000000E+00  0.00000E+00  9.000E+00
      25     1     1     2     0     0  2.739169215E+01 -8.719810746E+01  1.282156584E+02  2.010424577E+02  1.250000000E+02  0.00000E+00  9.000E+00
      25     1     1     2     0     0 -2.859933405E+01  1.612780389E+01 -5.828029443E+02  5.969608864E+02  1.250000000E+02  0.00000E+00  9.000E+00
      21     1     1     2   502   511  1.207641899E+00  7.107030357E+01 -1.168918733E+03  1.171077901E+03  2.642899792E-05  0.00000E+00  9.000E+00
#rwgt            1           1   3.9003434117072765E-002           7      347094           0
</event>
<event>
      5   9999  3.79277E-02  7.04737E+01 -1.00000E+00  1.31073E-01
      21    -1     0     0   512   501  0.000000000E+00  0.000000000E+00  9.492325664E+02  9.492325664E+02  0.000000000E+00  0.00000E+00  9.000E+00
      21    -1     0     0   501   502  0.000000000E+00  0.000000000E+00 -1.821692667E+03  1.821692667E+03  0.000000000E+00  0.00000E+00  9.000E+00
      25     1     1     2     0     0 -6.014288106E+00 -1.395003039E+02 -1.152062593E+03  1.167205947E+03  1.250000000E+02  0.00000E+00  9.000E+00
      25     1     1     2     0     0  7.644861917E+01  1.371451273E+02 -6.454778439E+02  6.759584487E+02  1.250000000E+02  0.00000E+00  9.000E+00
      21     1     1     2   512   502 -7.043433106E+01  2.355176534E+00  9.250803363E+02  9.277608369E+02  0.000000000E+00  0.00000E+00  9.000E+00
#rwgt            1           1  0.15308538035353023                7      347162           0
</event>
<event>
      5   9999  3.79277E-02  1.43204E+01 -1.00000E+00  1.79302E-01
      21    -1     0     0   511   501  0.000000000E+00  0.000000000E+00  7.573236111E+01  7.573236111E+01  0.000000000E+00  0.00000E+00  9.000E+00
      21    -1     0     0   501   502  0.000000000E+00  0.000000000E+00 -7.049204146E+02  7.049204146E+02  0.000000000E+00  0.00000E+00  9.000E+00
      25     1     1     2     0     0  7.856883452E+01 -1.214244501E+01 -5.527015770E+02  5.722102183E+02  1.250000000E+02  0.00000E+00  9.000E+00
      25     1     1     2     0     0 -9.281094879E+01  1.363766887E+01 -9.661695337E+01  1.837381123E+02  1.250000000E+02  0.00000E+00  9.000E+00
      21     1     1     2   511   502  1.424211427E+01 -1.495223857E+00  2.013047683E+01  2.470444516E+01  5.331201500E-07  0.00000E+00  9.000E+00
#rwgt            1           1   4.9688790274470242E-002           7      347254           0
</event>
<event>
      5   9999  3.79277E-02  3.13557E+01 -1.00000E+00  1.51718E-01
      21    -1     0     0   502   501  0.000000000E+00  0.000000000E+00  1.148620050E+02  1.148620050E+02  0.000000000E+00  0.00000E+00  9.000E+00
      21    -1     0     0   501   512  0.000000000E+00  0.000000000E+00 -5.428706127E+02  5.428706127E+02  0.000000000E+00  0.00000E+00  9.000E+00
      25     1     1     2     0     0 -5.610732914E+00 -9.155069194E+01  2.109738272E+01  1.564707930E+02  1.250000000E+02  0.00000E+00  9.000E+00
      25     1     1     2     0     0 -2.202714470E+01  7.674099532E+01 -1.938360435E+02  2.440733235E+02  1.250000000E+02  0.00000E+00  9.000E+00
      21     1     1     2   502   512  2.763787761E+01  1.480969662E+01 -2.552699469E+02  2.571885013E+02  2.697398305E-06  0.00000E+00  9.000E+00
#rwgt            1           1   4.5909513652576783E-002           7      347572           0
</event>
<event>
      5   9999  3.79277E-02  4.75842E+00 -1.00000E+00  2.46882E-01
      21    -1     0     0   511   501  0.000000000E+00  0.000000000E+00  1.341801883E+03  1.341801883E+03  0.000000000E+00  0.00000E+00  9.000E+00
      21    -1     0     0   501   502  0.000000000E+00  0.000000000E+00 -6.168088802E+01  6.168088802E+01  0.000000000E+00  0.00000E+00  9.000E+00
      25     1     1     2     0     0 -1.451370418E+02  1.594907429E+02  2.995232521E+02  3.896681107E+02  1.250000000E+02  0.00000E+00  9.000E+00
      25     1     1     2     0     0  1.417312111E+02 -1.628138279E+02  9.259488234E+02  9.589589680E+02  1.250000000E+02  0.00000E+00  9.000E+00
      21     1     1     2   511   502  3.405830655E+00  3.323085009E+00  5.464891951E+01  5.485569232E+01  0.000000000E+00  0.00000E+00  9.000E+00
#rwgt            1           1   3.4634872300549194E-002           7      347799           0
</event>
<event>
      5   9999  3.79277E-02  2.94818E+02 -1.00000E+00  1.05838E-01
       2    -1     0     0   502     0  0.000000000E+00  0.000000000E+00  7.718895616E+02  7.718895616E+02  0.000000000E+00  0.00000E+00  9.000E+00
      21    -1     0     0   501   502  0.000000000E+00  0.000000000E+00 -4.491425095E+02  4.491425095E+02  0.000000000E+00  0.00000E+00  9.000E+00
      25     1     1     2     0     0 -1.177349587E+02  2.180462822E+02  2.738188154E+01  2.788915007E+02  1.250000000E+02  0.00000E+00  9.000E+00
      25     1     1     2     0     0  1.871052976E+02  6.849387887E+01 -2.368018756E+02  3.337662837E+02  1.250000000E+02  0.00000E+00  9.000E+00
       2     1     1     2   501     0 -6.937033890E+01 -2.865401611E+02  5.321670461E+02  6.083742868E+02  7.629394531E-06  0.00000E+00  9.000E+00
#rwgt            2          18   6.0276522282723226E-004           7      348279           0
</event>
<event>
      5   9999  3.79277E-02  1.01189E+01 -1.00000E+00  1.95166E-01
      21    -1     0     0   511   501  0.000000000E+00  0.000000000E+00  1.293660672E+02  1.293660672E+02  0.000000000E+00  0.00000E+00  9.000E+00
      21    -1     0     0   501   502  0.000000000E+00  0.000000000E+00 -5.114577258E+02  5.114577258E+02  0.000000000E+00  0.00000E+00  9.000E+00
      25     1     1     2     0     0 -7.151414524E+01 -6.509827777E+01 -3.311514346E+01  1.614734389E+02  1.250000000E+02  0.00000E+00  9.000E+00
      25     1     1     2     0     0  7.058078012E+01  5.502252697E+01 -3.993770352E+02  4.279440866E+02  1.250000000E+02  0.00000E+00  9.000E+00
      21     1     1     2   511   502  9.333651255E-01  1.007575080E+01  5.040052008E+01  5.140626761E+01  0.000000000E+00  0.00000E+00  9.000E+00
#rwgt            1           1   4.9278387899176046E-002           7      348298           0
</event>
<event>
      5   9999  3.79277E-02  3.92570E+02 -1.00000E+00  1.01931E-01
      21    -1     0     0   502   501  0.000000000E+00  0.000000000E+00  6.569231817E+02  6.569231817E+02  0.000000000E+00  0.00000E+00  9.000E+00
      21    -1     0     0   512   502  0.000000000E+00  0.000000000E+00 -4.503758511E+02  4.503758511E+02  0.000000000E+00  0.00000E+00  9.000E+00
      25     1     1     2     0     0  9.245500167E+01  1.569928026E+02  3.715790929E+02  4.323085584E+02  1.250000000E+02  0.00000E+00  9.000E+00
      25     1     1     2     0     0  1.140053025E+02  1.769009329E+02 -1.391583752E+02  2.815691788E+02  1.250000000E+02  0.00000E+00  9.000E+00
      21     1     1     2   512   501 -2.064603041E+02 -3.338937355E+02 -2.587338708E+01  3.934212957E+02  6.379646378E-06  0.00000E+00  9.000E+00
#rwgt            1           1   4.4729334847693918E-002           7      348670           0
</event>
<event>
      5   9999  3.79277E-02  1.40318E+02 -1.00000E+00  1.17554E-01
      21    -1     0     0   502   501  0.000000000E+00  0.000000000E+00  1.013823590E+02  1.013823590E+02  0.000000000E+00  0.00000E+00  9.000E+00
       2    -1     0     0   501     0  0.000000000E+00  0.000000000E+00 -1.542732096E+03  1.542732096E+03  0.000000000E+00  0.00000E+00  9.000E+00
      25     1     1     2     0     0  9.623065481E+01  3.335775037E+01 -1.573876433E+02  2.253196589E+02  1.250000000E+02  0.00000E+00  9.000E+00
      25     1     1     2     0     0 -2.313954558E+02 -7.103730402E+01 -2.329060774E+02  3.584137224E+02  1.250000000E+02  0.00000E+00  9.000E+00
       2     1     1     2   502     0  1.351648010E+02  3.767955366E+01 -1.051056017E+03  1.060381074E+03  1.525878906E-05  0.00000E+00  9.000E+00
#rwgt            1           1   3.9595694766908149E-002           7      348758           0
</event>
<event>
      5   9999  3.79277E-02  1.76657E+02 -1.00000E+00  1.13646E-01
      21    -1     0     0   502   501  0.000000000E+00  0.000000000E+00  1.295562202E+02  1.295562202E+02  0.000000000E+00  0.00000E+00  9.000E+00
      21    -1     0     0   501   511  0.000000000E+00  0.000000000E+00 -9.362691907E+02  9.362691907E+02  0.000000000E+00  0.00000E+00  9.000E+00
      25     1     1     2     0     0 -1.181830291E+02  2.283521944E+02 -3.677744850E+02  4.658272479E+02  1.250000000E+02  0.00000E+00  9.000E+00
      25     1     1     2     0     0  7.444469546E+01 -5.719509543E+01 -3.655633166E+01  1.605448754E+02  1.250000000E+02  0.00000E+00  9.000E+00
      21     1     1     2   502   511  4.373833365E+01 -1.711570989E+02 -4.023821538E+02  4.394532877E+02  0.000000000E+00  0.00000E+00  9.000E+00
#rwgt            1           1   3.7869392538583006E-002           7      348823           0
</event>
<event>
      5   9999 -3.79277E-02  1.18694E+02 -1.00000E+00  1.20570E-01
      21    -1     0     0   502   501  0.000000000E+00  0.000000000E+00  6.435484521E+02  6.435484521E+02  0.000000000E+00  0.00000E+00  9.000E+00
      21    -1     0     0   501   512  0.000000000E+00  0.000000000E+00 -2.153300134E+02  2.153300134E+02  0.000000000E+00  0.00000E+00  9.000E+00
      25     1     1     2     0     0 -2.144226195E+01  2.587223415E+02  2.770761657E+02  3.997414441E+02  1.250000000E+02  0.00000E+00  9.000E+00
      25     1     1     2     0     0  9.033103662E+01 -1.620655000E+02  2.266468942E+02  3.184630860E+02  1.250000000E+02  0.00000E+00  9.000E+00
      21     1     1     2   502   512 -6.888877467E+01 -9.665684148E+01 -7.550462121E+01  1.406739354E+02  1.651812370E-06  0.00000E+00  9.000E+00
#rwgt            1           1  -6.0372715659701759E-002           7      348876           0
</event>
<event>
      5   9999  3.79277E-02  6.01753E+01 -1.00000E+00  1.34636E-01
      21    -1     0     0   502   501  0.000000000E+00  0.000000000E+00  5.109343422E+02  5.109343422E+02  0.000000000E+00  0.00000E+00  9.000E+00
       3    -1     0     0   501     0  0.000000000E+00  0.000000000E+00 -5.677398106E+02  5.677398106E+02  0.000000000E+00  0.00000E+00  9.000E+00
      25     1     1     2     0     0  1.777693713E+02 -5.208941560E+01  9.901410085E+01  2.444259576E+02  1.250000000E+02  0.00000E+00  9.000E+00
      25     1     1     2     0     0 -1.218035274E+02  2.997849601E+01  3.140519509E+02  3.605390927E+02  1.250000000E+02  0.00000E+00  9.000E+00
       3     1     1     2   502     0 -5.596584392E+01  2.211091959E+01 -4.698715201E+02  4.737091026E+02  5.394796609E-06  0.00000E+00  9.000E+00
#rwgt            1           1   4.7518436759393205E-002           7      349179           0
</event>
<event>
      5   9999  3.79277E-02  3.69035E+01 -1.00000E+00  1.47044E-01
      21    -1     0     0   502   501  0.000000000E+00  0.000000000E+00  2.228961882E+03  2.228961882E+03  0.000000000E+00  0.00000E+00  9.000E+00
      -3    -1     0     0     0   502  0.000000000E+00  0.000000000E+00 -1.839110912E+02  1.839110912E+02  0.000000000E+00  0.00000E+00  9.000E+00
      25     1     1     2     0     0  1.025708805E+02  7.367457610E+01  1.829838215E+03  1.838445436E+03  1.250000000E+02  0.00000E+00  9.000E+00
      25     1     1     2     0     0 -1.342624408E+02 -5.476652225E+01  3.693053262E+02  4.159774020E+02  1.250000000E+02  0.00000E+00  9.000E+00
      -3     1     1     2     0   501  3.169156036E+01 -1.890805385E+01 -1.540927506E+02  1.584501350E+02  0.000000000E+00  0.00000E+00  9.000E+00
#rwgt            1           1   9.0528832459488229E-002           7      349253           0
</event>
<event>
      5   9999  3.79277E-02  2.34589E+01 -1.00000E+00  1.60849E-01
      21    -1     0     0   502   501  0.000000000E+00  0.000000000E+00  2.802481523E+02  2.802481523E+02  0.000000000E+00  0.00000E+00  9.000E+00
      21    -1     0     0   501   511  0.000000000E+00  0.000000000E+00 -1.119912753E+02  1.119912753E+02  0.000000000E+00  0.00000E+00  9.000E+00
      25     1     1     2     0     0  7.975828416E+01 -7.665367657E+01  3.484731418E+01  1.705183431E+02  1.250000000E+02  0.00000E+00  9.000E+00
      25     1     1     2     0     0 -6.461065721E+01  5.874091160E+01  1.236445067E+02  1.963109670E+02  1.250000000E+02  0.00000E+00  9.000E+00
      21     1     1     2   502   511 -1.514762695E+01  1.791276497E+01  9.765056019E+00  2.541011747E+01  4.129530925E-07  0.00000E+00  9.000E+00
#rwgt            1           1   4.5770144639188749E-002           7      349460           0
</event>
<event>
      5   9999 -3.79277E-02  1.22498E+01 -1.00000E+00  1.86092E-01
      21    -1     0     0   512   501  0.000000000E+00  0.000000000E+00  3.817066458E+02  3.817066458E+02  0.000000000E+00  0.00000E+00  9.000E+00
      21    -1     0     0   501   502  0.000000000E+00  0.000000000E+00 -1.499632035E+02  1.499632035E+02  0.000000000E+00  0.00000E+00  9.000E+00
      25     1     1     2     0     0 -1.546635926E+02 -3.430497918E+01 -5.451523706E+00  2.018721813E+02  1.250000000E+02  0.00000E+00  9.000E+00
      25     1     1     2     0     0  1.620466523E+02  4.407980913E+01  1.958572129E+02  2.866830915E+02  1.250000000E+02  0.00000E+00  9.000E+00
      21     1     1     2   512   502 -7.383059709E+00 -9.774829946E+00  4.133775319E+01  4.311457654E+01  4.768371582E-07  0.00000E+00  9.000E+00
#rwgt            1           1 -0.34876601489678438                7      349624           0
</event>
<event>
      5   9999  3.79277E-02  1.16094E+02 -1.00000E+00  1.20981E-01
      21    -1     0     0   502   501  0.000000000E+00  0.000000000E+00  2.922350339E+02  2.922350339E+02  0.000000000E+00  0.00000E+00  9.000E+00
      21    -1     0     0   501   511  0.000000000E+00  0.000000000E+00 -4.954587235E+02  4.954587235E+02  0.000000000E+00  0.00000E+00  9.000E+00
      25     1     1     2     0     0  1.283138804E+02 -1.192130556E+02  1.592768541E+02  2.677131315E+02  1.250000000E+02  0.00000E+00  9.000E+00
      25     1     1     2     0     0 -1.016408600E+02  6.224302995E+00 -2.510633354E+01  1.631714876E+02  1.250000000E+02  0.00000E+00  9.000E+00
      21     1     1     2   502   511 -2.667302039E+01  1.129887526E+02 -3.373942101E+02  3.568091384E+02  5.394796609E-06  0.00000E+00  9.000E+00
#rwgt            1           1   3.0290441705651580E-002           7      349894           0
</event>
<event>
      5   9999  3.79277E-02  1.67436E+02 -1.00000E+00  1.14532E-01
       1    -1     0     0   502     0  0.000000000E+00  0.000000000E+00  1.554565173E+03  1.554565173E+03  0.000000000E+00  0.00000E+00  9.000E+00
      21    -1     0     0   501   502  0.000000000E+00  0.000000000E+00 -1.311901564E+02  1.311901564E+02  0.000000000E+00  0.00000E+00  9.000E+00
      25     1     1     2     0     0  9.513180930E+01  7.146078238E+01 -3.414286342E+01  1.759188440E+02  1.250000000E+02  0.00000E+00  9.000E+00
      25     1     1     2     0     0  6.896470270E+01 -3.818922446E+01  2.473052600E+02  2.880962317E+02  1.250000000E+02  0.00000E+00  9.000E+00
       1     1     1     2   501     0 -1.640965120E+02 -3.327155792E+01  1.210212620E+03  1.221740253E+03  1.525878906E-05  0.00000E+00  9.000E+00
#rwgt            1           1   3.5393883621636153E-002           7      349977           0
</event>
<event>
      5   9999  3.79277E-02  8.24602E+01 -1.00000E+00  1.27716E-01
      21    -1     0     0   502   511  0.000000000E+00  0.000000000E+00  1.747798143E+02  1.747798143E+02  0.000000000E+00  0.00000E+00  9.000E+00
      21    -1     0     0   501   502  0.000000000E+00  0.000000000E+00 -7.999923414E+02  7.999923414E+02  0.000000000E+00  0.00000E+00  9.000E+00
      25     1     1     2     0     0 -1.295442468E+02 -7.458232514E+01 -4.427068950E+02  4.836927020E+02  1.250000000E+02  0.00000E+00  9.000E+00
      25     1     1     2     0     0  1.754199475E+02  6.061500433E+00 -2.864167739E+02  3.584249825E+02  1.250000000E+02  0.00000E+00  9.000E+00
      21     1     1     2   501   511 -4.587570063E+01  6.852082470E+01  1.039111418E+02  1.326544712E+02  1.348699152E-06  0.00000E+00  9.000E+00
#rwgt            1           1   2.9787136343190738E-002           7      350053           0
</event>
<event>
      5   9999  3.79277E-02  4.01740E+00 -1.00000E+00  2.63027E-01
      21    -1     0     0   502   512  0.000000000E+00  0.000000000E+00  4.110387984E+02  4.110387984E+02  0.000000000E+00  0.00000E+00  9.000E+00
      21    -1     0     0   501   502  0.000000000E+00  0.000000000E+00 -8.705025229E+01  8.705025229E+01  0.000000000E+00  0.00000E+00  9.000E+00
      25     1     1     2     0     0 -1.260395939E+02  6.017255892E+01  1.882272718E+02  2.656336235E+02  1.250000000E+02  0.00000E+00  9.000E+00
      25     1     1     2     0     0  1.227603608E+02 -5.785175569E+01  1.313157924E+02  2.264636155E+02  1.250000000E+02  0.00000E+00  9.000E+00
      21     1     1     2   501   512  3.279233130E+00 -2.320803235E+00  4.445481874E+00  5.991811635E+00  8.429369702E-08  0.00000E+00  9.000E+00
#rwgt            1           1   4.7332335264858742E-002           7      350286           0
</event>
<event>
      5   9999  3.79277E-02  2.64480E+02 -1.00000E+00  1.07401E-01
      21    -1     0     0   502   501  0.000000000E+00  0.000000000E+00  4.386954255E+02  4.386954255E+02  0.000000000E+00  0.00000E+00  9.000E+00
       3    -1     0     0   501     0  0.000000000E+00  0.000000000E+00 -8.229952538E+02  8.229952538E+02  0.000000000E+00  0.00000E+00  9.000E+00
      25     1     1     2     0     0  3.402674399E+02 -2.300645320E+02  1.464713239E+02  4.536413432E+02  1.250000000E+02  0.00000E+00  9.000E+00
      25     1     1     2     0     0 -1.331129077E+02  6.563607324E+01  2.197969632E+01  1.952824809E+02  1.250000000E+02  0.00000E+00  9.000E+00
       3     1     1     2   502     0 -2.071545323E+02  1.644284587E+02 -5.527508485E+02  6.127668552E+02  7.629394531E-06  0.00000E+00  9.000E+00
#rwgt            1           1  0.22441166665101944                7      350629           0
</event>
<event>
      5   9999  3.79277E-02  5.80451E+00 -1.00000E+00  2.27729E-01
      21    -1     0     0   511   501  0.000000000E+00  0.000000000E+00  3.122473449E+03  3.122473449E+03  0.000000000E+00  0.00000E+00  9.000E+00
      21    -1     0     0   501   502  0.000000000E+00  0.000000000E+00 -4.248303431E+01  4.248303431E+01  0.000000000E+00  0.00000E+00  9.000E+00
      25     1     1     2     0     0  7.560080447E+01 -3.057502658E+01  1.119121955E+02  1.865466520E+02  1.250000000E+02  0.00000E+00  9.000E+00
      25     1     1     2     0     0 -7.503667990E+01  2.479799358E+01  1.054164667E+03  1.064487477E+03  1.250000000E+02  0.00000E+00  9.000E+00
      21     1     1     2   511   502 -5.641245767E-01  5.777032999E+00  1.913913553E+03  1.913922355E+03  0.000000000E+00  0.00000E+00  9.000E+00
#rwgt            1           1   4.9374352632404979E-002           7      350807           0
</event>
<event>
      5   9999  3.79277E-02  1.37358E+01 -1.00000E+00  1.81063E-01
      21    -1     0     0   512   501  0.000000000E+00  0.000000000E+00  9.465968377E+02  9.465968377E+02  0.000000000E+00  0.00000E+00  9.000E+00
      21    -1     0     0   501   502  0.000000000E+00  0.000000000E+00 -7.442177842E+01  7.442177842E+01  0.000000000E+00  0.00000E+00  9.000E+00
      25     1     1     2     0     0 -4.095368423E+01 -1.352011888E+02  4.550050636E+02  4.925557569E+02  1.250000000E+02  0.00000E+00  9.000E+00
      25     1     1     2     0     0  4.842756042E+01  1.236766626E+02  9.434607373E+01  2.053468459E+02  1.250000000E+02  0.00000E+00  9.000E+00
      21     1     1     2   512   502 -7.473876194E+00  1.152452614E+01  3.228239220E+02  3.231160134E+02  0.000000000E+00  0.00000E+00  9.000E+00
#rwgt            1           1   1.4391496864464261E-002           7      351202           0
</event>
<event>
      5   9999  3.79277E-02  1.86318E+02 -1.00000E+00  1.12780E-01
      21    -1     0     0   502   511  0.000000000E+00  0.000000000E+00  6.595897455E+02  6.595897455E+02  0.000000000E+00  0.00000E+00  9.000E+00
      21    -1     0     0   501   502  0.000000000E+00  0.000000000E+00 -2.167339935E+02  2.167339935E+02  0.000000000E+00  0.00000E+00  9.000E+00
      25     1     1     2     0     0  1.552636445E+02  1.754796967E+02  2.638498435E+02  3.743549961E+02  1.250000000E+02  0.00000E+00  9.000E+00
      25     1     1     2     0     0 -9.220739448E+01 -1.558028583E-01 -8.636238756E+01  1.777236334E+02  1.250000000E+02  0.00000E+00  9.000E+00
      21     1     1     2   501   511 -6.305624998E+01 -1.753238939E+02  2.653682961E+02  3.242451095E+02  5.394796609E-06  0.00000E+00  9.000E+00
#rwgt            1           1   6.9165952996190133E-002           7      351471           0
</event>
<event>
      5   9999  3.79277E-02  2.56803E+01 -1.00000E+00  1.57882E-01
      21    -1     0     0   502   501  0.000000000E+00  0.000000000E+00  2.283574534E+02  2.283574534E+02  0.000000000E+00  0.00000E+00  9.000E+00
       1    -1     0     0   501     0  0.000000000E+00  0.000000000E+00 -1.107752071E+03  1.107752071E+03  0.000000000E+00  0.00000E+00  9.000E+00
      25     1     1     2     0     0  4.839974595E+01 -1.944690856E+02  3.969309441E+01  2.395021971E+02  1.250000000E+02  0.00000E+00  9.000E+00
      25     1     1     2     0     0 -6.643715598E+01  2.127483247E+02 -9.578162878E+01  2.729008350E+02  1.250000000E+02  0.00000E+00  9.000E+00
       1     1     1     2   502     0  1.803741003E+01 -1.827923906E+01 -8.233060830E+02  8.237064920E+02  1.078959322E-05  0.00000E+00  9.000E+00
#rwgt            1           1   3.8732151989478242E-002           7      351608           0
</event>
<event>
      5   9999  3.79277E-02  2.48452E+02 -1.00000E+00  1.08322E-01
      21    -1     0     0   502   501  0.000000000E+00  0.000000000E+00  5.493319997E+02  5.493319997E+02  0.000000000E+00  0.00000E+00  9.000E+00
      21    -1     0     0   511   502  0.000000000E+00  0.000000000E+00 -3.288859175E+02  3.288859175E+02  0.000000000E+00  0.00000E+00  9.000E+00
      25     1     1     2     0     0 -1.855846095E+00 -3.237787754E+01  2.547270652E+02  2.855917521E+02  1.250000000E+02  0.00000E+00  9.000E+00
      25     1     1     2     0     0 -2.462474126E+02  4.554071352E+01  1.152054144E+02  3.026698404E+02  1.250000000E+02  0.00000E+00  9.000E+00
      21     1     1     2   511   501  2.481032587E+02 -1.316283597E+01 -1.494863974E+02  2.899563247E+02  3.814697266E-06  0.00000E+00  9.000E+00
#rwgt            1           1   5.3022647802455622E-002           7      351772           0
</event>
<event>
      5   9999  3.79277E-02  8.30389E+01 -1.00000E+00  1.27571E-01
       1    -1     0     0   502     0  0.000000000E+00  0.000000000E+00  7.345560674E+02  7.345560674E+02  0.000000000E+00  0.00000E+00  9.000E+00
      21    -1     0     0   501   502  0.000000000E+00  0.000000000E+00 -1.030190661E+02  1.030190661E+02  0.000000000E+00  0.00000E+00  9.000E+00
      25     1     1     2     0     0 -1.544424284E+02 -4.821132427E+01  1.791154976E+02  2.718164030E+02  1.250000000E+02  0.00000E+00  9.000E+00
      25     1     1     2     0     0  9.018322948E+01  1.008061696E+02  1.124413951E+02  2.157845361E+02  1.250000000E+02  0.00000E+00  9.000E+00
       1     1     1     2   501     0  6.425919889E+01 -5.259484534E+01  3.399801087E+02  3.499741943E+02  0.000000000E+00  0.00000E+00  9.000E+00
#rwgt            1           1   3.8126143055916273E-002           7      351818           0
</event>
<event>
      5   9999  3.79277E-02  1.53317E+02 -1.00000E+00  1.16018E-01
      21    -1     0     0   511   501  0.000000000E+00  0.000000000E+00  7.191014645E+02  7.191014645E+02  0.000000000E+00  0.00000E+00  9.000E+00
      21    -1     0     0   501   502  0.000000000E+00  0.000000000E+00 -1.448096924E+03  1.448096924E+03  0.000000000E+00  0.00000E+00  9.000E+00
      25     1     1     2     0     0 -1.802720995E+02  2.265363861E+02 -6.277205925E+02  7.024776910E+02  1.250000000E+02  0.00000E+00  9.000E+00
      25     1     1     2     0     0  1.710528365E+02 -7.349723638E+01 -7.579286692E+02  7.904060882E+02  1.250000000E+02  0.00000E+00  9.000E+00
      21     1     1     2   511   502  9.219262995E+00 -1.530391497E+02  6.566538023E+02  6.743146092E+02  7.629394531E-06  0.00000E+00  9.000E+00
#rwgt            1           1   3.4695006266899059E-002           7      351916           0
</event>
<event>
      5   9999  3.79277E-02  1.91459E+01 -1.00000E+00  1.67948E-01
      21    -1     0     0   512   501  0.000000000E+00  0.000000000E+00  1.726738475E+02  1.726738475E+02  0.000000000E+00  0.00000E+00  9.000E+00
      21    -1     0     0   501   502  0.000000000E+00  0.000000000E+00 -3.356230488E+02  3.356230488E+02  0.000000000E+00  0.00000E+00  9.000E+00
      25     1     1     2     0     0 -1.593984954E+02 -2.819010111E+01 -1.871287497E+02  2.772088221E+02  1.250000000E+02  0.00000E+00  9.000E+00
      25     1     1     2     0     0  1.606004620E+02  4.729822067E+01  2.999384240E+01  2.110788020E+02  1.250000000E+02  0.00000E+00  9.000E+00
      21     1     1     2   512   502 -1.201966621E+00 -1.910811956E+01 -5.814293977E+00  2.000927213E+01  3.674277069E-07  0.00000E+00  9.000E+00
#rwgt            1           1  0.10548514076049825                7      352000           0
</event>
<event>
      5   9999  3.79277E-02  3.32659E+01 -1.00000E+00  1.49987E-01
      21    -1     0     0   502   501  0.000000000E+00  0.000000000E+00  1.022506497E+02  1.022506497E+02  0.000000000E+00  0.00000E+00  9.000E+00
       1    -1     0     0   501     0  0.000000000E+00  0.000000000E+00 -1.374077427E+03  1.374077427E+03  0.000000000E+00  0.00000E+00  9.000E+00
      25     1     1     2     0     0  6.216579932E+01 -7.537649649E+00 -2.994023870E+02  3.304363662E+02  1.250000000E+02  0.00000E+00  9.000E+00
      25     1     1     2     0     0 -2.904544390E+01  4.428725063E+00  3.878427209E+01  1.341360175E+02  1.250000000E+02  0.00000E+00  9.000E+00
       1     1     1     2   502     0 -3.312035543E+01  3.108924586E+00 -1.011208663E+03  1.011755693E+03  0.000000000E+00  0.00000E+00  9.000E+00
#rwgt            1           1   4.4273497576533677E-002           7      352203           0
</event>
<event>
      5   9999  3.79277E-02  2.96527E+01 -1.00000E+00  1.53392E-01
      21    -1     0     0   502   501  0.000000000E+00  0.000000000E+00  2.002861826E+02  2.002861826E+02  0.000000000E+00  0.00000E+00  9.000E+00
      21    -1     0     0   501   511  0.000000000E+00  0.000000000E+00 -5.047437319E+02  5.047437319E+02  0.000000000E+00  0.00000E+00  9.000E+00
      25     1     1     2     0     0  2.258366267E+02  1.301564175E+02 -1.199658554E+02  3.129851138E+02  1.250000000E+02  0.00000E+00  9.000E+00
      25     1     1     2     0     0 -2.421222471E+02 -1.549366278E+02 -1.530412153E+02  3.488196594E+02  1.250000000E+02  0.00000E+00  9.000E+00
      21     1     1     2   502   511  1.628562036E+01  2.478021032E+01 -3.145047845E+01  4.322514140E+01  1.118282261E-06  0.00000E+00  9.000E+00
#rwgt            1           1   2.3306973486625981E-002           7      352339           0
</event>
<event>
      5   9999  3.79277E-02  6.99331E+01 -1.00000E+00  1.31242E-01
      21    -1     0     0   502   512  0.000000000E+00  0.000000000E+00  2.702170511E+03  2.702170511E+03  0.000000000E+00  0.00000E+00  9.000E+00
      21    -1     0     0   501   502  0.000000000E+00  0.000000000E+00 -1.187077915E+02  1.187077915E+02  0.000000000E+00  0.00000E+00  9.000E+00
      25     1     1     2     0     0  5.151441467E+01  9.840230787E+01  3.044421187E+02  3.473424143E+02  1.250000000E+02  0.00000E+00  9.000E+00
      25     1     1     2     0     0 -9.996053304E+01 -4.796804267E+01 -2.457021028E+01  1.688837959E+02  1.250000000E+02  0.00000E+00  9.000E+00
      21     1     1     2   501   512  4.844611836E+01 -5.043426520E+01  2.303590811E+03  2.304652092E+03  0.000000000E+00  0.00000E+00  9.000E+00
#rwgt            1           1   4.6754743115531204E-002           7      352488           0
</event>
<event>
      5   9999  3.79277E-02  4.59966E+01 -1.00000E+00  1.41176E-01
      21    -1     0     0   502   501  0.000000000E+00  0.000000000E+00  8.315409583E+02  8.315409583E+02  0.000000000E+00  0.00000E+00  9.000E+00
      21    -1     0     0   511   502  0.000000000E+00  0.000000000E+00 -5.484757808E+01  5.484757808E+01  0.000000000E+00  0.00000E+00  9.000E+00
      25     1     1     2     0     0 -7.021333226E+01  9.174773446E+01  3.772545433E+02  4.138762487E+02  1.250000000E+02  0.00000E+00  9.000E+00
      25     1     1     2     0     0  9.928002503E+01 -1.273961842E+02  3.480330213E+02  4.035322726E+02  1.250000000E+02  0.00000E+00  9.000E+00
      21     1     1     2   511   501 -2.906669278E+01  3.564844977E+01  5.140581564E+01  6.898001509E+01  6.743495762E-07  0.00000E+00  9.000E+00
#rwgt            1           1   2.7978858568604301E-002           7      352575           0
</event>
<event>
      5   9999  3.79277E-02  1.02185E+02 -1.00000E+00  1.23407E-01
      21    -1     0     0   512   501  0.000000000E+00  0.000000000E+00  1.578466526E+02  1.578466526E+02  0.000000000E+00  0.00000E+00  9.000E+00
      21    -1     0     0   501   502  0.000000000E+00  0.000000000E+00 -5.928007368E+02  5.928007368E+02  0.000000000E+00  0.00000E+00  9.000E+00
      25     1     1     2     0     0 -4.654550981E+01  1.862995987E+02 -2.893597207E+02  3.690908735E+02  1.250000000E+02  0.00000E+00  9.000E+00
      25     1     1     2     0     0  1.450470750E+02 -1.591094720E+02 -1.191744447E+02  2.760109170E+02  1.250000000E+02  0.00000E+00  9.000E+00
      21     1     1     2   512   502 -9.850156515E+01 -2.719012666E+01 -2.641991876E+01  1.055455988E+02  5.840038640E-07  0.00000E+00  9.000E+00
#rwgt            1           1   9.3902018929665543E-002           7      352688           0
</event>
<event>
      5   9999  3.79277E-02  7.82490E+01 -1.00000E+00  1.28816E-01
      21    -1     0     0   502   501  0.000000000E+00  0.000000000E+00  1.430460908E+02  1.430460908E+02  0.000000000E+00  0.00000E+00  9.000E+00
      21    -1     0     0   501   511  0.000000000E+00  0.000000000E+00 -3.198994842E+02  3.198994842E+02  0.000000000E+00  0.00000E+00  9.000E+00
      25     1     1     2     0     0 -2.360578184E+01  1.453912773E+02 -1.145765633E+02  2.246077588E+02  1.250000000E+02  0.00000E+00  9.000E+00
      25     1     1     2     0     0  4.473534188E+01 -7.004910389E+01 -2.706321596E+01  1.525304738E+02  1.250000000E+02  0.00000E+00  9.000E+00
      21     1     1     2   502   511 -2.112956004E+01 -7.534217339E+01 -3.521361407E+01  8.580734243E+01  1.261592536E-06  0.00000E+00  9.000E+00
#rwgt            1           1   4.4201238536886400E-002           7      352747           0
</event>
<event>
      5   9999  3.79277E-02  3.15213E+01 -1.00000E+00  1.51563E-01
      21    -1     0     0   502   512  0.000000000E+00  0.000000000E+00  1.005323573E+03  1.005323573E+03  0.000000000E+00  0.00000E+00  9.000E+00
      21    -1     0     0   501   502  0.000000000E+00  0.000000000E+00 -5.889806687E+01  5.889806687E+01  0.000000000E+00  0.00000E+00  9.000E+00
      25     1     1     2     0     0  1.320838136E+01  9.524695608E+01  7.541843784E+02  7.704969309E+02  1.250000000E+02  0.00000E+00  9.000E+00
      25     1     1     2     0     0 -3.296553534E+01 -7.068588205E+01  6.221799427E+01  1.599352971E+02  1.250000000E+02  0.00000E+00  9.000E+00
      21     1     1     2   501   512  1.975715398E+01 -2.456107403E+01  1.300231339E+02  1.337894123E+02  0.000000000E+00  0.00000E+00  9.000E+00
#rwgt            1           1   2.7287424275820558E-002           7      353191           0
</event>
<event>
      5   9999  3.79277E-02  1.46163E+01 -1.00000E+00  1.78450E-01
      21    -1     0     0   502   511  0.000000000E+00  0.000000000E+00  9.712541656E+02  9.712541656E+02  0.000000000E+00  0.00000E+00  9.000E+00
      21    -1     0     0   501   502  0.000000000E+00  0.000000000E+00 -8.547493663E+01  8.547493663E+01  0.000000000E+00  0.00000E+00  9.000E+00
      25     1     1     2     0     0  6.174434073E+01  1.032296035E+02  4.388358113E+02  4.718798406E+02  1.250000000E+02  0.00000E+00  9.000E+00
      25     1     1     2     0     0 -7.634828808E+01 -1.026295390E+02  4.737951420E+01  1.850181119E+02  1.250000000E+02  0.00000E+00  9.000E+00
      21     1     1     2   501   511  1.460394735E+01 -6.000645320E-01  3.995639034E+02  3.998311497E+02  0.000000000E+00  0.00000E+00  9.000E+00
#rwgt            1           1   4.4882970886475200E-002           7      353346           0
</event>
<event>
      5   9999  3.79277E-02  3.32701E+01 -1.00000E+00  1.49983E-01
      21    -1     0     0   502   512  0.000000000E+00  0.000000000E+00  2.915328293E+01  2.915328293E+01  0.000000000E+00  0.00000E+00  9.000E+00
      21    -1     0     0   501   502  0.000000000E+00  0.000000000E+00 -2.501250409E+03  2.501250409E+03  0.000000000E+00  0.00000E+00  9.000E+00
      25     1     1     2     0     0  1.475343118E+02  1.138044317E+02 -9.822981537E+02  1.007597382E+03  1.250000000E+02  0.00000E+00  9.000E+00
      25     1     1     2     0     0 -1.189575539E+02 -9.676721634E+01 -1.471688237E+03  1.484926281E+03  1.250000000E+02  0.00000E+00  9.000E+00
      21     1     1     2   501   512 -2.857675796E+01 -1.703721541E+01 -1.811073491E+01  3.788002803E+01  1.369610464E-06  0.00000E+00  9.000E+00
#rwgt            1           1   5.6650651037048978E-002           7      353534           0
</event>
<event>
      5   9999  3.79277E-02  1.64036E+01 -1.00000E+00  1.73800E-01
      21    -1     0     0   502   501  0.000000000E+00  0.000000000E+00  6.384416024E+02  6.384416024E+02  0.000000000E+00  0.00000E+00  9.000E+00
      21    -1     0     0   511   502  0.000000000E+00  0.000000000E+00 -1.001805427E+02  1.001805427E+02  0.000000000E+00  0.00000E+00  9.000E+00
      25     1     1     2     0     0  1.372064655E+02  1.484901447E+02  2.446699168E+02  3.411206611E+02  1.250000000E+02  0.00000E+00  9.000E+00
      25     1     1     2     0     0 -1.522080863E+02 -1.551255010E+02  2.824645251E+02  3.776803285E+02  1.250000000E+02  0.00000E+00  9.000E+00
      21     1     1     2   511   501  1.500162078E+01  6.635356324E+00  1.112661783E+01  1.982115546E+01  2.665600750E-07  0.00000E+00  9.000E+00
#rwgt            1           1   1.8657484408874166E-002           7      353703           0
</event>
<event>
      5   9999  3.79277E-02  5.07414E+01 -1.00000E+00  1.38712E-01
      21    -1     0     0   512   501  0.000000000E+00  0.000000000E+00  7.665603462E+01  7.665603462E+01  0.000000000E+00  0.00000E+00  9.000E+00
      21    -1     0     0   501   502  0.000000000E+00  0.000000000E+00 -2.340649499E+03  2.340649499E+03  0.000000000E+00  0.00000E+00  9.000E+00
      25     1     1     2     0     0 -3.246861755E+02 -5.993612232E+01 -6.836220435E+02  7.694007731E+02  1.250000000E+02  0.00000E+00  9.000E+00
      25     1     1     2     0     0  3.754275373E+02  5.986270457E+01 -1.503099339E+03  1.555461990E+03  1.250000000E+02  0.00000E+00  9.000E+00
      21     1     1     2   512   502 -5.074136178E+01  7.341774320E-02 -7.727208170E+01  9.244277038E+01  1.651812370E-06  0.00000E+00  9.000E+00
#rwgt            1           1   3.5280260250948110E-002           7      353994           0
</event>
<event>
      5   9999  3.79277E-02  1.18089E+02 -1.00000E+00  1.20665E-01
      21    -1     0     0   502   511  0.000000000E+00  0.000000000E+00  3.800197923E+02  3.800197923E+02  0.000000000E+00  0.00000E+00  9.000E+00
      21    -1     0     0   501   502  0.000000000E+00  0.000000000E+00 -1.848833819E+02  1.848833819E+02  0.000000000E+00  0.00000E+00  9.000E+00
      25     1     1     2     0     0  2.929881729E+01  2.688669060E+01  1.613973781E+02  2.079793944E+02  1.250000000E+02  0.00000E+00  9.000E+00
      25     1     1     2     0     0 -1.155414942E+02 -1.075536384E+02 -5.555464733E+01  2.088754194E+02  1.250000000E+02  0.00000E+00  9.000E+00
      21     1     1     2   501   511  8.624267689E+01  8.066694779E+01  8.929367967E+01  1.480483604E+02  3.693564745E-06  0.00000E+00  9.000E+00
#rwgt            1           1   3.8240191289692652E-002           7      354184           0
</event>
<event>
      5   9999  3.79277E-02  1.50977E+01 -1.00000E+00  1.77118E-01
      21    -1     0     0   502   501  0.000000000E+00  0.000000000E+00  4.834540489E+01  4.834540489E+01  0.000000000E+00  0.00000E+00  9.000E+00
      21    -1     0     0   501   512  0.000000000E+00  0.000000000E+00 -9.382096516E+02  9.382096516E+02  0.000000000E+00  0.00000E+00  9.000E+00
      25     1     1     2     0     0 -4.971739217E+00  8.174461233E+00 -7.848653543E+02  7.948145471E+02  1.250000000E+02  0.00000E+00  9.000E+00
      25     1     1     2     0     0  1.893234055E+01 -2.426331930E+00 -5.215560379E+01  1.367827753E+02  1.250000000E+02  0.00000E+00  9.000E+00
      21     1     1     2   502   512 -1.396060133E+01 -5.748129303E+00 -5.284328864E+01  5.495773408E+01  0.000000000E+00  0.00000E+00  9.000E+00
#rwgt            1           1   5.1634287391098994E-002           7      354239           0
</event>
<event>
      5   9999 -6.13575E-02  1.58982E+02 -1.00000E+00  1.15401E-01
      21    -1     0     0   502   511  0.000000000E+00  0.000000000E+00  7.067012822E+02  7.067012822E+02  0.000000000E+00  0.00000E+00  9.000E+00
      21    -1     0     0   501   502  0.000000000E+00  0.000000000E+00 -5.387531165E+02  5.387531165E+02  0.000000000E+00  0.00000E+00  9.000E+00
      25     1     1     2     0     0  4.199568270E+02 -2.018919792E+02 -2.699655284E+02  5.528385789E+02  1.250000000E+02  0.00000E+00  9.000E+00
      25     1     1     2     0     0 -3.319021113E+02  6.952282882E+01  2.208103044E+02  4.235264168E+02  1.250000000E+02  0.00000E+00  9.000E+00
      21     1     1     2   501   511 -8.805471568E+01  1.323691504E+02  2.171033897E+02  2.690894029E+02  2.697398305E-06  0.00000E+00  9.000E+00
#rwgt            1           1 -0.98753009729042218                7      354544           0
</event>
<event>
      5   9999  3.79277E-02  2.18558E+01 -1.00000E+00  1.63251E-01
      21    -1     0     0   502   501  0.000000000E+00  0.000000000E+00  6.305434078E+01  6.305434078E+01  0.000000000E+00  0.00000E+00  9.000E+00
      21    -1     0     0   512   502  0.000000000E+00  0.000000000E+00 -1.698629527E+03  1.698629527E+03  0.000000000E+00  0.00000E+00  9.000E+00
      25     1     1     2     0     0  2.233960187E+02 -9.877237229E+01 -1.059358643E+03  1.094315995E+03  1.250000000E+02  0.00000E+00  9.000E+00
      25     1     1     2     0     0 -2.274801367E+02  1.202432106E+02 -4.112292403E+02  5.009392482E+02  1.250000000E+02  0.00000E+00  9.000E+00
      21     1     1     2   512   501  4.084118040E+00 -2.147083833E+01 -1.649873028E+02  1.664286244E+02  0.000000000E+00  0.00000E+00  9.000E+00
#rwgt            1           1   3.3432065844281239E-002           7      354633           0
</event>
<event>
      5   9999  3.79277E-02  3.24733E+01 -1.00000E+00  1.50688E-01
      21    -1     0     0   502   501  0.000000000E+00  0.000000000E+00  1.870491444E+03  1.870491444E+03  0.000000000E+00  0.00000E+00  9.000E+00
      21    -1     0     0   511   502  0.000000000E+00  0.000000000E+00 -1.105211853E+03  1.105211853E+03  0.000000000E+00  0.00000E+00  9.000E+00
      25     1     1     2     0     0  1.046656281E+02 -1.389659451E+02  1.169020814E+03  1.188486892E+03  1.250000000E+02  0.00000E+00  9.000E+00
      25     1     1     2     0     0 -1.306938013E+02  1.195481203E+02  6.745017919E+02  7.084845023E+02  1.250000000E+02  0.00000E+00  9.000E+00
      21     1     1     2   511   501  2.602817319E+01  1.941782473E+01 -1.078243016E+03  1.078731903E+03  0.000000000E+00  0.00000E+00  9.000E+00
#rwgt            1           1  0.16066970527187135                7      355017           0
</event>
<event>
      5   9999 -3.79277E-02  3.13342E+01 -1.00000E+00  1.51739E-01
      21    -1     0     0   502   501  0.000000000E+00  0.000000000E+00  2.906199067E+02  2.906199067E+02  0.000000000E+00  0.00000E+00  9.000E+00
      21    -1     0     0   501   512  0.000000000E+00  0.000000000E+00 -2.494570499E+02  2.494570499E+02  0.000000000E+00  0.00000E+00  9.000E+00
      25     1     1     2     0     0 -1.133356471E+02  9.807101566E+01 -1.257606832E+02  2.321715798E+02  1.250000000E+02  0.00000E+00  9.000E+00
      25     1     1     2     0     0  1.446108137E+02 -9.999301302E+01  1.723350699E+02  2.761073458E+02  1.250000000E+02  0.00000E+00  9.000E+00
      21     1     1     2   502   512 -3.127516653E+01  1.921997367E+00 -5.411529894E+00  3.179803093E+01  6.078504936E-07  0.00000E+00  9.000E+00
#rwgt            1           1  -5.6061943960316482E-002           7      355193           0
</event>
<event>
      5   9999  3.79277E-02  2.23630E+01 -1.00000E+00  1.62464E-01
      21    -1     0     0   502   511  0.000000000E+00  0.000000000E+00  1.056702334E+02  1.056702334E+02  0.000000000E+00  0.00000E+00  9.000E+00
      21    -1     0     0   501   502  0.000000000E+00  0.000000000E+00 -7.110529122E+02  7.110529122E+02  0.000000000E+00  0.00000E+00  9.000E+00
      25     1     1     2     0     0  8.566113369E+01 -1.258082263E+02 -6.879859106E+01  2.086235504E+02  1.250000000E+02  0.00000E+00  9.000E+00
      25     1     1     2     0     0 -8.910828448E+01  1.479039088E+02 -5.442115743E+02  5.844716333E+02  1.250000000E+02  0.00000E+00  9.000E+00
      21     1     1     2   501   511  3.447150784E+00 -2.209568247E+01  7.627486605E+00  2.362796192E+01  4.380028980E-07  0.00000E+00  9.000E+00
#rwgt            1           1   4.3433175451571694E-002           7      355325           0
</event>
<event>
      5   9999  3.79277E-02  9.69599E+01 -1.00000E+00  1.24434E-01
      21    -1     0     0   502   512  0.000000000E+00  0.000000000E+00  1.708238357E+02  1.708238357E+02  0.000000000E+00  0.00000E+00  9.000E+00
      21    -1     0     0   501   502  0.000000000E+00  0.000000000E+00 -5.840446675E+02  5.840446675E+02  0.000000000E+00  0.00000E+00  9.000E+00
      25     1     1     2     0     0  4.186286076E+01  1.633078326E+02 -2.281004430E+02  3.099625129E+02  1.250000000E+02  0.00000E+00  9.000E+00
      25     1     1     2     0     0  3.466644533E+01 -2.228434818E+02 -2.229078698E+02  3.408429231E+02  1.250000000E+02  0.00000E+00  9.000E+00
      21     1     1     2   501   512 -7.652930609E+01  5.953564921E+01  3.778748112E+01  1.040630672E+02  1.430511475E-06  0.00000E+00  9.000E+00
#rwgt            1           1   4.1686340173940128E-002           7      355465           0
</event>
<event>
      5   9999  3.79277E-02  7.54903E+01 -1.00000E+00  1.29581E-01
      21    -1     0     0   502   501  0.000000000E+00  0.000000000E+00  6.515762938E+01  6.515762938E+01  0.000000000E+00  0.00000E+00  9.000E+00
      21    -1     0     0   511   502  0.000000000E+00  0.000000000E+00 -1.158935796E+03  1.158935796E+03  0.000000000E+00  0.00000E+00  9.000E+00
      25     1     1     2     0     0  7.938953062E+00 -1.027369132E+02 -8.945015797E+01  1.850519686E+02  1.250000000E+02  0.00000E+00  9.000E+00
      25     1     1     2     0     0 -6.716435007E+01  5.592733593E+01 -3.695272189E+02  3.997677855E+02  1.250000000E+02  0.00000E+00  9.000E+00
      21     1     1     2   511   501  5.922539701E+01  4.680957725E+01 -6.348007900E+02  6.392736716E+02  0.000000000E+00  0.00000E+00  9.000E+00
#rwgt            2          11   8.5336982045496144E-004           7      355538           0
</event>
<event>
      5   9999  3.79277E-02  2.96559E+01 -1.00000E+00  1.53389E-01
      21    -1     0     0   512   501  0.000000000E+00  0.000000000E+00  1.435093681E+02  1.435093681E+02  0.000000000E+00  0.00000E+00  9.000E+00
      21    -1     0     0   501   502  0.000000000E+00  0.000000000E+00 -6.669842984E+02  6.669842984E+02  0.000000000E+00  0.00000E+00  9.000E+00
      25     1     1     2     0     0  1.718038335E+01  2.424809278E+01 -7.400344728E+01  1.482722017E+02  1.250000000E+02  0.00000E+00  9.000E+00
      25     1     1     2     0     0 -4.647920172E+01 -1.966009595E+01 -5.454006750E+02  5.618128976E+02  1.250000000E+02  0.00000E+00  9.000E+00
      21     1     1     2   512   502  2.929881838E+01 -4.587996828E+00  9.592919211E+01  1.004085672E+02  1.907348633E-06  0.00000E+00  9.000E+00
#rwgt            1           1   4.0685358937958875E-002           7      355588           0
</event>
<event>
      5   9999  3.79277E-02  6.33117E+01 -1.00000E+00  1.33468E-01
      21    -1     0     0   502   511  0.000000000E+00  0.000000000E+00  3.522715573E+02  3.522715573E+02  0.000000000E+00  0.00000E+00  9.000E+00
      21    -1     0     0   501   502  0.000000000E+00  0.000000000E+00 -1.375799856E+02  1.375799856E+02  0.000000000E+00  0.00000E+00  9.000E+00
      25     1     1     2     0     0  3.539874262E+01  7.270655651E+01 -1.899080324E+01  1.500831934E+02  1.250000000E+02  0.00000E+00  9.000E+00
      25     1     1     2     0     0 -1.580288127E+01 -1.329093047E+02  1.795046203E+02  2.564400964E+02  1.250000000E+02  0.00000E+00  9.000E+00
      21     1     1     2   501   511 -1.959586134E+01  6.020274821E+01  5.417775459E+01  8.332825311E+01  1.507891493E-06  0.00000E+00  9.000E+00
#rwgt            1           1   3.9112579920084267E-002           7      355755           0
</event>
<event>
      5   9999  3.79277E-02  1.67052E+01 -1.00000E+00  1.73089E-01
      21    -1     0     0   512   501  0.000000000E+00  0.000000000E+00  6.348130267E+02  6.348130267E+02  0.000000000E+00  0.00000E+00  9.000E+00
      21    -1     0     0   501   502  0.000000000E+00  0.000000000E+00 -7.752591921E+01  7.752591921E+01  0.000000000E+00  0.00000E+00  9.000E+00
      25     1     1     2     0     0 -1.665703103E+02  2.848225705E+01  2.691616162E+02  3.415111753E+02  1.250000000E+02  0.00000E+00  9.000E+00
      25     1     1     2     0     0  1.753124502E+02 -1.424707862E+01  2.576525350E+02  3.360762759E+02  1.250000000E+02  0.00000E+00  9.000E+00
      21     1     1     2   512   502 -8.742139974E+00 -1.423517843E+01  3.047295633E+01  3.475149470E+01  3.371747881E-07  0.00000E+00  9.000E+00
#rwgt            1           1   2.2982596176250106E-002           7      355889           0
</event>
<event>
      5   9999  3.79277E-02  1.27133E+02 -1.00000E+00  1.19313E-01
      21    -1     0     0   502   501  0.000000000E+00  0.000000000E+00  1.824295156E+02  1.824295156E+02  0.000000000E+00  0.00000E+00  9.000E+00
      21    -1     0     0   501   511  0.000000000E+00  0.000000000E+00 -5.919142560E+02  5.919142560E+02  0.000000000E+00  0.00000E+00  9.000E+00
      25     1     1     2     0     0 -1.322070103E+02 -1.624403919E+01 -3.126903150E+00  1.826946631E+02  1.250000000E+02  0.00000E+00  9.000E+00
      25     1     1     2     0     0  8.956351757E+00 -1.493446423E+01  3.611615173E+01  1.312731156E+02  1.250000000E+02  0.00000E+00  9.000E+00
      21     1     1     2   502   511  1.232506586E+02  3.117850342E+01 -4.424739890E+02  4.603759929E+02  5.394796609E-06  0.00000E+00  9.000E+00
#rwgt            1           1   5.3247881845544673E-002           7      356111           0
</event>
<event>
      5   9999  3.79277E-02  1.03771E+02 -1.00000E+00  1.23109E-01
      21    -1     0     0   502   501  0.000000000E+00  0.000000000E+00  1.655133767E+03  1.655133767E+03  0.000000000E+00  0.00000E+00  9.000E+00
      21    -1     0     0   501   512  0.000000000E+00  0.000000000E+00 -5.910268899E+01  5.910268899E+01  0.000000000E+00  0.00000E+00  9.000E+00
      25     1     1     2     0     0 -1.400831841E+02 -1.079031538E+02  1.077618151E+03  1.099159802E+03  1.250000000E+02  0.00000E+00  9.000E+00
      25     1     1     2     0     0  3.684426184E+01  1.184001471E+02  4.673615691E+02  4.994276031E+02  1.250000000E+02  0.00000E+00  9.000E+00
      21     1     1     2   502   512  1.032389223E+02 -1.049699336E+01  5.105135722E+01  1.156490511E+02  2.611744678E-06  0.00000E+00  9.000E+00
#rwgt            1           1   4.0035090770353825E-002           7      356263           0
</event>
<event>
      5   9999  3.79277E-02  4.52946E+01 -1.00000E+00  1.41570E-01
      -1    -1     0     0     0   501  0.000000000E+00  0.000000000E+00  3.660532730E+02  3.660532730E+02  0.000000000E+00  0.00000E+00  9.000E+00
      21    -1     0     0   501   502  0.000000000E+00  0.000000000E+00 -3.798927929E+02  3.798927929E+02  0.000000000E+00  0.00000E+00  9.000E+00
      25     1     1     2     0     0  7.033115719E+01 -1.656139064E+02 -5.799089299E+00  2.191644750E+02  1.250000000E+02  0.00000E+00  9.000E+00
      25     1     1     2     0     0 -1.068125350E+02  1.387678792E+02 -2.213684833E+02  3.086979872E+02  1.250000000E+02  0.00000E+00  9.000E+00
      -1     1     1     2     0   502  3.648137777E+01  2.684602722E+01  2.133280527E+02  2.180836036E+02  2.697398305E-06  0.00000E+00  9.000E+00
#rwgt            1           1   1.9676176587061042E-002           7      356352           0
</event>
<event>
      5   9999  3.79277E-02  1.39124E+02 -1.00000E+00  1.17704E-01
      21    -1     0     0   511   501  0.000000000E+00  0.000000000E+00  1.027868699E+03  1.027868699E+03  0.000000000E+00  0.00000E+00  9.000E+00
      21    -1     0     0   501   502  0.000000000E+00  0.000000000E+00 -6.647671933E+01  6.647671933E+01  0.000000000E+00  0.00000E+00  9.000E+00
      25     1     1     2     0     0 -1.524495507E+01  1.106701500E+01  7.334191784E+01  1.461469274E+02  1.250000000E+02  0.00000E+00  9.000E+00
      25     1     1     2     0     0 -2.013238429E+01 -1.456179928E+02  5.340020069E+02  5.677966679E+02  1.250000000E+02  0.00000E+00  9.000E+00
      21     1     1     2   511   502  3.537733936E+01  1.345509778E+02  3.540480550E+02  3.804018231E+02  3.814697266E-06  0.00000E+00  9.000E+00
#rwgt            1           1   5.3210176828209721E-002           7      356569           0
</event>
<event>
      5   9999  3.79277E-02  6.00008E+00 -1.00000E+00  2.25471E-01
      21    -1     0     0   502   501  0.000000000E+00  0.000000000E+00  3.450972008E+02  3.450972008E+02  0.000000000E+00  0.00000E+00  9.000E+00
      21    -1     0     0   501   512  0.000000000E+00  0.000000000E+00 -1.506794711E+02  1.506794711E+02  0.000000000E+00  0.00000E+00  9.000E+00
      25     1     1     2     0     0  3.468224637E+01  3.944840778E+01 -9.625686142E+01  1.662811428E+02  1.250000000E+02  0.00000E+00  9.000E+00
      25     1     1     2     0     0 -3.351619887E+01 -3.356272613E+01  2.937565415E+02  3.227502097E+02  1.250000000E+02  0.00000E+00  9.000E+00
      21     1     1     2   502   512 -1.166047497E+00 -5.885681650E+00 -3.081950366E+00  6.745319363E+00  1.115100797E-07  0.00000E+00  9.000E+00
#rwgt            1           1   4.5238647986430514E-002           7      356677           0
</event>
<event>
      5   9999  3.79277E-02  3.45403E+01 -1.00000E+00  1.48907E-01
      21    -1     0     0   502   501  0.000000000E+00  0.000000000E+00  2.756563898E+02  2.756563898E+02  0.000000000E+00  0.00000E+00  9.000E+00
      21    -1     0     0   501   511  0.000000000E+00  0.000000000E+00 -3.529730054E+02  3.529730054E+02  0.000000000E+00  0.00000E+00  9.000E+00
      25     1     1     2     0     0  1.733282239E+02  2.318935194E+01 -1.249548950E+02  2.486345612E+02  1.250000000E+02  0.00000E+00  9.000E+00
      25     1     1     2     0     0 -1.954959067E+02  3.298900090E+00  1.470638826E+02  2.747404554E+02  1.250000000E+02  0.00000E+00  9.000E+00
      21     1     1     2   502   511  2.216768279E+01 -2.648825203E+01 -9.942560309E+01  1.052543786E+02  1.348699152E-06  0.00000E+00  9.000E+00
#rwgt            1           1  0.22599349981685293                7      356963           0
</event>
<event>
      5   9999  3.79277E-02  8.92477E+00 -1.00000E+00  2.01647E-01
      21    -1     0     0   502   501  0.000000000E+00  0.000000000E+00  1.122981268E+03  1.122981268E+03  0.000000000E+00  0.00000E+00  9.000E+00
      21    -1     0     0   512   502  0.000000000E+00  0.000000000E+00 -1.929073835E+02  1.929073835E+02  0.000000000E+00  0.00000E+00  9.000E+00
      25     1     1     2     0     0 -6.681246623E+01  1.141951835E+01 -1.460488349E+02  2.038371242E+02  1.250000000E+02  0.00000E+00  9.000E+00
      25     1     1     2     0     0  6.890956781E+01 -2.744628684E+00  1.087926544E+03  1.097253492E+03  1.250000000E+02  0.00000E+00  9.000E+00
      21     1     1     2   512   501 -2.097101578E+00 -8.674889668E+00 -1.180382492E+01  1.479803462E+01  2.920019320E-07  0.00000E+00  9.000E+00
#rwgt            1           1  0.19683883889540427                7      357107           0
</event>
<event>
      5   9999  3.79277E-02  1.42325E+02 -1.00000E+00  1.17305E-01
      21    -1     0     0   502   511  0.000000000E+00  0.000000000E+00  2.568248101E+03  2.568248101E+03  0.000000000E+00  0.00000E+00  9.000E+00
      21    -1     0     0   501   502  0.000000000E+00  0.000000000E+00 -5.717106190E+01  5.717106190E+01  0.000000000E+00  0.00000E+00  9.000E+00
      25     1     1     2     0     0  6.801698134E+01  2.010790373E+02  4.074327980E+02  4.761150847E+02  1.250000000E+02  0.00000E+00  9.000E+00
      25     1     1     2     0     0  4.142062233E+01 -1.100847986E+02  3.492514830E+02  3.891476959E+02  1.250000000E+02  0.00000E+00  9.000E+00
      21     1     1     2   501   511 -1.094376037E+02 -9.099423872E+01  1.754392758E+03  1.760156383E+03  2.157918644E-05  0.00000E+00  9.000E+00
#rwgt            1           1   3.6995125267715548E-002           7      357443           0
</event>
<event>
      5   9999  3.79277E-02  6.67530E+01 -1.00000E+00  1.32274E-01
      21    -1     0     0   502   512  0.000000000E+00  0.000000000E+00  3.826205806E+02  3.826205806E+02  0.000000000E+00  0.00000E+00  9.000E+00
      21    -1     0     0   501   502  0.000000000E+00  0.000000000E+00 -2.148158509E+02  2.148158509E+02  0.000000000E+00  0.00000E+00  9.000E+00
      25     1     1     2     0     0  2.030669130E+02 -8.853445432E+01  1.432395195E+02  2.919196477E+02  1.250000000E+02  0.00000E+00  9.000E+00
      25     1     1     2     0     0 -1.380532265E+02  7.339583713E+01 -4.909553307E+01  2.061092274E+02  1.250000000E+02  0.00000E+00  9.000E+00
      21     1     1     2   501   512 -6.501368654E+01  1.513861719E+01  7.366074328E+01  9.940755640E+01  9.536743164E-07  0.00000E+00  9.000E+00
#rwgt            1           1  0.10566841839247909                7      357566           0
</event>
<event>
      5   9999  3.79277E-02  3.55552E+01 -1.00000E+00  1.48086E-01
      21    -1     0     0   502   501  0.000000000E+00  0.000000000E+00  6.882501410E+02  6.882501410E+02  0.000000000E+00  0.00000E+00  9.000E+00
      -3    -1     0     0     0   502  0.000000000E+00  0.000000000E+00 -6.325452730E+02  6.325452730E+02  0.000000000E+00  0.00000E+00  9.000E+00
      25     1     1     2     0     0 -1.146149003E+02  3.364027668E+01  2.781689978E+01  1.751200260E+02  1.250000000E+02  0.00000E+00  9.000E+00
      25     1     1     2     0     0  8.138336753E+01 -2.099761404E+01  5.765299688E+02  5.958825029E+02  1.250000000E+02  0.00000E+00  9.000E+00
      -3     1     1     2     0   501  3.323153273E+01 -1.264266265E+01 -5.486420006E+02  5.497928851E+02  7.629394531E-06  0.00000E+00  9.000E+00
#rwgt            1           1   4.2402898745356875E-002           7      357715           0
</event>
<event>
      5   9999  3.79277E-02  1.41660E+01 -1.00000E+00  1.79757E-01
      21    -1     0     0   511   501  0.000000000E+00  0.000000000E+00  2.664193176E+02  2.664193176E+02  0.000000000E+00  0.00000E+00  9.000E+00
      21    -1     0     0   501   502  0.000000000E+00  0.000000000E+00 -3.836708239E+02  3.836708239E+02  0.000000000E+00  0.00000E+00  9.000E+00
      25     1     1     2     0     0  2.149485297E+02  1.083415521E+02 -1.694359059E+02  3.198035155E+02  1.250000000E+02  0.00000E+00  9.000E+00
      25     1     1     2     0     0 -2.070912060E+02 -9.655440378E+01 -1.571591362E+01  2.609243385E+02  1.250000000E+02  0.00000E+00  9.000E+00
      21     1     1     2   511   502 -7.857323673E+00 -1.178714834E+01  6.790031321E+01  6.936228756E+01  0.000000000E+00  0.00000E+00  9.000E+00
#rwgt            1           1   1.1610008045261057E-002           7      357930           0
</event>
<event>
      5   9999  3.79277E-02  2.33688E+01 -1.00000E+00  1.60977E-01
      21    -1     0     0   502   501  0.000000000E+00  0.000000000E+00  1.698574276E+02  1.698574276E+02  0.000000000E+00  0.00000E+00  9.000E+00
      21    -1     0     0   512   502  0.000000000E+00  0.000000000E+00 -2.073072504E+02  2.073072504E+02  0.000000000E+00  0.00000E+00  9.000E+00
      25     1     1     2     0     0  7.742593526E+01 -7.486065246E+01 -2.980321817E+01  1.676667067E+02  1.250000000E+02  0.00000E+00  9.000E+00
      25     1     1     2     0     0 -8.232811810E+01  9.770953438E+01  1.174496528E+01  1.791312824E+02  1.250000000E+02  0.00000E+00  9.000E+00
      21     1     1     2   512   501  4.902182841E+00 -2.284888192E+01 -1.939156997E+01  3.036668878E+01  5.331201500E-07  0.00000E+00  9.000E+00
#rwgt            1           1   3.1027508058752470E-002           7      358166           0
</event>
<event>
      5   9999  3.79277E-02  1.15212E+02 -1.00000E+00  1.21124E-01
      21    -1     0     0   502   501  0.000000000E+00  0.000000000E+00  5.284633292E+02  5.284633292E+02  0.000000000E+00  0.00000E+00  9.000E+00
      21    -1     0     0   511   502  0.000000000E+00  0.000000000E+00 -1.331349311E+02  1.331349311E+02  0.000000000E+00  0.00000E+00  9.000E+00
      25     1     1     2     0     0 -3.538017104E+01  4.299681356E+01  3.518737224E+02  3.775454926E+02  1.250000000E+02  0.00000E+00  9.000E+00
      25     1     1     2     0     0 -7.605700859E+01 -7.224873175E+01  7.490190090E+00  1.633574325E+02  1.250000000E+02  0.00000E+00  9.000E+00
      21     1     1     2   511   501  1.114371796E+02  2.925191819E+01  3.596448566E+01  1.206953352E+02  4.768371582E-07  0.00000E+00  9.000E+00
#rwgt            1           1   4.1307850090206558E-002           7      358292           0
</event>
<event>
      5   9999  3.79277E-02  3.15003E+01 -1.00000E+00  1.51582E-01
       1    -1     0     0   502     0  0.000000000E+00  0.000000000E+00  3.687588021E+03  3.687588021E+03  0.000000000E+00  0.00000E+00  9.000E+00
      21    -1     0     0   501   502  0.000000000E+00  0.000000000E+00 -2.245052073E+02  2.245052073E+02  0.000000000E+00  0.00000E+00  9.000E+00
      25     1     1     2     0     0  5.138593763E+01 -1.662081514E+02  4.825666879E+01  2.195890941E+02  1.250000000E+02  0.00000E+00  9.000E+00
      25     1     1     2     0     0 -2.686608714E+01  1.464332345E+02 -7.068742022E+01  2.068482299E+02  1.250000000E+02  0.00000E+00  9.000E+00
       1     1     1     2   501     0 -2.451985048E+01  1.977491682E+01  3.485513565E+03  3.485655904E+03  4.315837288E-05  0.00000E+00  9.000E+00
#rwgt            1           1   3.8368239754588848E-002           7      358457           0
</event>
<event>
      5   9999  3.79277E-02  7.04119E+01 -1.00000E+00  1.31092E-01
      21    -1     0     0   502   511  0.000000000E+00  0.000000000E+00  1.354819030E+02  1.354819030E+02  0.000000000E+00  0.00000E+00  9.000E+00
      21    -1     0     0   501   502  0.000000000E+00  0.000000000E+00 -1.507171335E+03  1.507171335E+03  0.000000000E+00  0.00000E+00  9.000E+00
      25     1     1     2     0     0 -8.286837931E+01  2.436409533E+02 -1.125071870E+03  1.160878889E+03  1.250000000E+02  0.00000E+00  9.000E+00
      25     1     1     2     0     0  3.650333632E+01 -1.906492130E+02 -3.103450711E+02  3.868057383E+02  1.250000000E+02  0.00000E+00  9.000E+00
      21     1     1     2   501   511  4.636504298E+01 -5.299174035E+01  6.372750867E+01  9.496861122E+01  2.132480600E-06  0.00000E+00  9.000E+00
#rwgt            2          11   1.8652034236964481E-003           7      358640           0
</event>
<event>
      5   9999  3.79277E-02  2.97178E+01 -1.00000E+00  1.53325E-01
      21    -1     0     0   502   501  0.000000000E+00  0.000000000E+00  3.801616034E+02  3.801616034E+02  0.000000000E+00  0.00000E+00  9.000E+00
      21    -1     0     0   512   502  0.000000000E+00  0.000000000E+00 -1.206449983E+03  1.206449983E+03  0.000000000E+00  0.00000E+00  9.000E+00
      25     1     1     2     0     0 -1.444143780E+02  4.779581787E+01  2.402124080E+02  3.105912970E+02  1.250000000E+02  0.00000E+00  9.000E+00
      25     1     1     2     0     0  1.166530065E+02 -5.840020639E+01  2.650643473E+01  1.826091430E+02  1.250000000E+02  0.00000E+00  9.000E+00
      21     1     1     2   512   501  2.776137152E+01  1.060438852E+01 -1.093007222E+03  1.093411146E+03  0.000000000E+00  0.00000E+00  9.000E+00
#rwgt            1           1   4.0430465763772752E-002           7      358720           0
</event>
<event>
      5   9999  3.79277E-02  1.68868E+01 -1.00000E+00  1.72669E-01
      21    -1     0     0   502   501  0.000000000E+00  0.000000000E+00  7.293976464E+02  7.293976464E+02  0.000000000E+00  0.00000E+00  9.000E+00
      21    -1     0     0   501   511  0.000000000E+00  0.000000000E+00 -7.744613701E+01  7.744613701E+01  0.000000000E+00  0.00000E+00  9.000E+00
      25     1     1     2     0     0 -1.280540147E+02 -1.403862792E+00  5.711689149E+02  5.985471835E+02  1.250000000E+02  0.00000E+00  9.000E+00
      25     1     1     2     0     0  1.163995912E+02  1.362428124E+01  6.006569983E+01  1.815691994E+02  1.250000000E+02  0.00000E+00  9.000E+00
      21     1     1     2   502   511  1.165442355E+01 -1.222041845E+01  2.071689469E+01  2.672740057E+01  0.000000000E+00  0.00000E+00  9.000E+00
#rwgt            1           1   4.4514357217496546E-002           7      358850           0
</event>
<event>
      5   9999  3.79277E-02  1.43323E+02 -1.00000E+00  1.17183E-01
      21    -1     0     0   502   501  0.000000000E+00  0.000000000E+00  1.472037700E+02  1.472037700E+02  0.000000000E+00  0.00000E+00  9.000E+00
      21    -1     0     0   501   512  0.000000000E+00  0.000000000E+00 -7.882643719E+02  7.882643719E+02  0.000000000E+00  0.00000E+00  9.000E+00
      25     1     1     2     0     0  1.597452995E+02  2.767143032E+01 -2.516743192E+02  3.244213799E+02  1.250000000E+02  0.00000E+00  9.000E+00
      25     1     1     2     0     0 -4.959924137E+01 -1.193742534E+02  1.652266708E+01  1.805776721E+02  1.250000000E+02  0.00000E+00  9.000E+00
      21     1     1     2   502   512 -1.101460581E+02  9.170282313E+01 -4.059089498E+02  4.304690900E+02  5.394796609E-06  0.00000E+00  9.000E+00
#rwgt            1           1   3.8349662496133141E-002           7      359033           0
</event>
<event>
      5   9999 -3.79277E-02  1.45714E+01 -1.00000E+00  1.78578E-01
      21    -1     0     0   511   501  0.000000000E+00  0.000000000E+00  3.631120691E+02  3.631120691E+02  0.000000000E+00  0.00000E+00  9.000E+00
      21    -1     0     0   501   502  0.000000000E+00  0.000000000E+00 -5.439630974E+02  5.439630974E+02  0.000000000E+00  0.00000E+00  9.000E+00
      25     1     1     2     0     0 -2.335741564E+02  3.051817375E+02 -6.662588450E+01  4.095812349E+02  1.250000000E+02  0.00000E+00  9.000E+00
      25     1     1     2     0     0  2.377549692E+02 -2.912230346E+02 -1.763653921E+02  4.336681137E+02  1.250000000E+02  0.00000E+00  9.000E+00
      21     1     1     2   511   502 -4.180812741E+00 -1.395870288E+01  6.214024828E+01  6.382581795E+01  0.000000000E+00  0.00000E+00  9.000E+00
#rwgt            1           1  -7.6003526152084916E-002           7      359241           0
</event>
<event>
      5   9999  3.79277E-02  6.06724E+01 -1.00000E+00  1.34445E-01
      21    -1     0     0   502   512  0.000000000E+00  0.000000000E+00  6.694035986E+02  6.694035986E+02  0.000000000E+00  0.00000E+00  9.000E+00
      21    -1     0     0   501   502  0.000000000E+00  0.000000000E+00 -1.658094585E+02  1.658094585E+02  0.000000000E+00  0.00000E+00  9.000E+00
      25     1     1     2     0     0 -1.167500337E+01 -1.270937485E+02 -8.254915476E+01  1.967955527E+02  1.250000000E+02  0.00000E+00  9.000E+00
      25     1     1     2     0     0 -1.721995069E+01  7.374377223E+01  2.009573685E+02  2.484824633E+02  1.250000000E+02  0.00000E+00  9.000E+00
      21     1     1     2   501   512  2.889495406E+01  5.334997626E+01  3.851859264E+02  3.899350410E+02  5.394796609E-06  0.00000E+00  9.000E+00
#rwgt            1           1   2.9517330140044467E-002           7      359564           0
</event>
<event>
      5   9999  3.79277E-02  1.11402E+02 -1.00000E+00  1.21755E-01
      21    -1     0     0   502   501  0.000000000E+00  0.000000000E+00  1.921427892E+02  1.921427892E+02  0.000000000E+00  0.00000E+00  9.000E+00
      -3    -1     0     0     0   502  0.000000000E+00  0.000000000E+00 -1.229779025E+03  1.229779025E+03  0.000000000E+00  0.00000E+00  9.000E+00
      25     1     1     2     0     0 -1.300830869E+01 -1.408118814E+02 -1.560705022E+02  2.449085619E+02  1.250000000E+02  0.00000E+00  9.000E+00
      25     1     1     2     0     0  7.235610492E+01  4.653430462E+01  1.047753396E+02  1.844009740E+02  1.250000000E+02  0.00000E+00  9.000E+00
      -3     1     1     2     0   501 -5.934779623E+01  9.427757680E+01 -9.863410728E+02  9.926122780E+02  1.078959322E-05  0.00000E+00  9.000E+00
#rwgt            1           1   2.1782335116551168E-002           7      359625           0
</event>
<event>
      5   9999  3.79277E-02  9.35484E+01 -1.00000E+00  1.25145E-01
      21    -1     0     0   502   501  0.000000000E+00  0.000000000E+00  7.987308901E+01  7.987308901E+01  0.000000000E+00  0.00000E+00  9.000E+00
       1    -1     0     0   501     0  0.000000000E+00  0.000000000E+00 -1.935696185E+03  1.935696185E+03  0.000000000E+00  0.00000E+00  9.000E+00
      25     1     1     2     0     0 -2.149405386E+02 -3.038723560E+01 -4.531665898E+02  5.177912488E+02  1.250000000E+02  0.00000E+00  9.000E+00
      25     1     1     2     0     0  1.378628897E+02  8.339990438E+01 -1.813687927E+02  2.729127322E+02  1.250000000E+02  0.00000E+00  9.000E+00
       1     1     1     2   502     0  7.707764882E+01 -5.301266877E+01 -1.221287713E+03  1.224865293E+03  0.000000000E+00  0.00000E+00  9.000E+00
#rwgt            1           1   5.9481654957464984E-002           7      359698           0
</event>
<event>
      5   9999  3.79277E-02  1.58063E+02 -1.00000E+00  1.15500E-01
      21    -1     0     0   502   501  0.000000000E+00  0.000000000E+00  2.177215785E+02  2.177215785E+02  0.000000000E+00  0.00000E+00  9.000E+00
      21    -1     0     0   511   502  0.000000000E+00  0.000000000E+00 -6.553129317E+02  6.553129317E+02  0.000000000E+00  0.00000E+00  9.000E+00
      25     1     1     2     0     0  2.308296560E+02  7.083437343E+01 -2.128404050E+02  3.452910027E+02  1.250000000E+02  0.00000E+00  9.000E+00
      25     1     1     2     0     0 -8.989742141E+01  7.332249509E-01  8.798198594E+01  1.773355967E+02  1.250000000E+02  0.00000E+00  9.000E+00
      21     1     1     2   511   501 -1.409322346E+02 -7.156759838E+01 -3.127329342E+02  3.504079109E+02  6.607249480E-06  0.00000E+00  9.000E+00
#rwgt            1           1   3.9063912862369848E-002           7      359752           0
</event>
<event>
      5   9999  3.79277E-02  4.61760E+01 -1.00000E+00  1.41076E-01
      21    -1     0     0   512   501  0.000000000E+00  0.000000000E+00  1.504471089E+03  1.504471089E+03  0.000000000E+00  0.00000E+00  9.000E+00
      21    -1     0     0   501   502  0.000000000E+00  0.000000000E+00 -1.002573719E+02  1.002573719E+02  0.000000000E+00  0.00000E+00  9.000E+00
      25     1     1     2     0     0  8.318746474E+01  3.382702980E+02  5.124005062E+02  6.320808711E+02  1.250000000E+02  0.00000E+00  9.000E+00
      25     1     1     2     0     0 -9.806988404E+01 -2.945583326E+02  7.078978288E+02  7.830240415E+02  1.250000000E+02  0.00000E+00  9.000E+00
      21     1     1     2   512   502  1.488241930E+01 -4.371196535E+01  1.839153826E+02  1.896235488E+02  3.814697266E-06  0.00000E+00  9.000E+00
#rwgt            1           1   4.0710659541623430E-002           7      359832           0
</event>
<event>
      5   9999  3.79277E-02  5.42318E+01 -1.00000E+00  1.37092E-01
      21    -1     0     0   502   501  0.000000000E+00  0.000000000E+00  7.587929240E+01  7.587929240E+01  0.000000000E+00  0.00000E+00  9.000E+00
      21    -1     0     0   501   511  0.000000000E+00  0.000000000E+00 -1.644425573E+03  1.644425573E+03  0.000000000E+00  0.00000E+00  9.000E+00
      25     1     1     2     0     0  3.154385789E+01 -1.850040461E+02 -3.634886180E+02  4.277504967E+02  1.250000000E+02  0.00000E+00  9.000E+00
      25     1     1     2     0     0  1.483643767E+01  1.568979323E+02 -1.920958341E+02  2.781418533E+02  1.250000000E+02  0.00000E+00  9.000E+00
      21     1     1     2   502   511 -4.638029556E+01  2.810611372E+01 -1.012961828E+03  1.014412515E+03  1.078959322E-05  0.00000E+00  9.000E+00
#rwgt            1           1   3.7374374202755703E-002           7      359998           0
</event>
<event>
      5   9999  3.79277E-02  1.03505E+02 -1.00000E+00  1.23159E-01
       2    -1     0     0   502     0  0.000000000E+00  0.000000000E+00  1.120438628E+03  1.120438628E+03  0.000000000E+00  0.00000E+00  9.000E+00
      21    -1     0     0   501   502  0.000000000E+00  0.000000000E+00 -1.748587842E+02  1.748587842E+02  0.000000000E+00  0.00000E+00  9.000E+00
      25     1     1     2     0     0  7.062114654E+01 -3.115229751E+02  3.539448445E+02  4.928852436E+02  1.250000000E+02  0.00000E+00  9.000E+00
      25     1     1     2     0     0 -1.277549278E+02  2.252152593E+02  1.069012512E+02  3.067508958E+02  1.250000000E+02  0.00000E+00  9.000E+00
       2     1     1     2   501     0  5.713378123E+01  8.630771576E+01  4.847337486E+02  4.956612733E+02  5.394796609E-06  0.00000E+00  9.000E+00
#rwgt            1           1   4.2876277904733619E-002           7      360081           0
</event>
<event>
      5   9999  3.79277E-02  2.92727E+01 -1.00000E+00  1.53784E-01
      21    -1     0     0   502   501  0.000000000E+00  0.000000000E+00  2.967323352E+02  2.967323352E+02  0.000000000E+00  0.00000E+00  9.000E+00
      21    -1     0     0   501   511  0.000000000E+00  0.000000000E+00 -3.171630735E+02  3.171630735E+02  0.000000000E+00  0.00000E+00  9.000E+00
      25     1     1     2     0     0  1.569970647E+02  1.103877844E+02  1.606627823E+02  2.797696747E+02  1.250000000E+02  0.00000E+00  9.000E+00
      25     1     1     2     0     0 -1.686100972E+02 -1.372583950E+02 -1.543736303E+02  2.944918498E+02  1.250000000E+02  0.00000E+00  9.000E+00
      21     1     1     2   502   511  1.161303246E+01  2.687061064E+01 -2.671989031E+01  3.963388421E+01  6.743495762E-07  0.00000E+00  9.000E+00
#rwgt            1           1   4.5028930130759114E-002           7      360218           0
</event>
<event>
      5   9999  3.79277E-02  1.46158E+02 -1.00000E+00  1.16842E-01
      21    -1     0     0   502   512  0.000000000E+00  0.000000000E+00  4.247039577E+02  4.247039577E+02  0.000000000E+00  0.00000E+00  9.000E+00
      21    -1     0     0   501   502  0.000000000E+00  0.000000000E+00 -5.227487808E+02  5.227487808E+02  0.000000000E+00  0.00000E+00  9.000E+00
      25     1     1     2     0     0 -8.273353245E+01  9.249699976E+01 -1.554591566E+02  2.349320790E+02  1.250000000E+02  0.00000E+00  9.000E+00
      25     1     1     2     0     0  2.073098676E+02 -1.605837887E+01 -2.645390379E+02  3.589445017E+02  1.250000000E+02  0.00000E+00  9.000E+00
      21     1     1     2   501   512 -1.245763351E+02 -7.643862089E+01  3.219533714E+02  3.535761579E+02  5.394796609E-06  0.00000E+00  9.000E+00
#rwgt            1           1   2.4820406829410398E-002           7      360557           0
</event>
<event>
      5   9999  3.79277E-02  8.98893E+01 -1.00000E+00  1.25946E-01
      21    -1     0     0   502   501  0.000000000E+00  0.000000000E+00  2.354141055E+02  2.354141055E+02  0.000000000E+00  0.00000E+00  9.000E+00
      21    -1     0     0   501   511  0.000000000E+00  0.000000000E+00 -6.769507340E+02  6.769507340E+02  0.000000000E+00  0.00000E+00  9.000E+00
      25     1     1     2     0     0  2.149900586E+02 -8.500924764E+01 -3.736807692E+02  4.568474743E+02  1.250000000E+02  0.00000E+00  9.000E+00
      25     1     1     2     0     0 -1.595608731E+02  1.424414447E+01  1.279096832E+02  2.401009266E+02  1.250000000E+02  0.00000E+00  9.000E+00
      21     1     1     2   502   511 -5.542918546E+01  7.076510317E+01 -1.957655425E+02  2.154164387E+02  0.000000000E+00  0.00000E+00  9.000E+00
#rwgt            1           1   4.6258870430054243E-002           7      360651           0
</event>
<event>
      5   9999  3.79277E-02  3.32934E+01 -1.00000E+00  1.49963E-01
      21    -1     0     0   502   501  0.000000000E+00  0.000000000E+00  2.774269545E+02  2.774269545E+02  0.000000000E+00  0.00000E+00  9.000E+00
       2    -1     0     0   501     0  0.000000000E+00  0.000000000E+00 -3.652409408E+03  3.652409408E+03  0.000000000E+00  0.00000E+00  9.000E+00
      25     1     1     2     0     0  2.368201525E+02 -3.098649806E+01 -5.965942352E+00  2.696377944E+02  1.250000000E+02  0.00000E+00  9.000E+00
      25     1     1     2     0     0 -2.177630890E+02  5.828631884E+01  3.135368713E+01  2.596653839E+02  1.250000000E+02  0.00000E+00  9.000E+00
       2     1     1     2   502     0 -1.905706351E+01 -2.729982078E+01 -3.400370198E+03  3.400533184E+03  4.315837288E-05  0.00000E+00  9.000E+00
#rwgt            1           1   3.1917417835952436E-002           7      360784           0
</event>
<event>
      5   9999  3.79277E-02  5.34582E+01 -1.00000E+00  1.37438E-01
      21    -1     0     0   511   501  0.000000000E+00  0.000000000E+00  2.350537342E+02  2.350537342E+02  0.000000000E+00  0.00000E+00  9.000E+00
      21    -1     0     0   501   502  0.000000000E+00  0.000000000E+00 -2.535268946E+02  2.535268946E+02  0.000000000E+00  0.00000E+00  9.000E+00
      25     1     1     2     0     0  1.418836958E+02 -7.968237261E+01  5.734179257E+01  2.130571398E+02  1.250000000E+02  0.00000E+00  9.000E+00
      25     1     1     2     0     0 -1.609922345E+02  2.975598704E+01 -8.200844079E+01  2.217076965E+02  1.250000000E+02  0.00000E+00  9.000E+00
      21     1     1     2   511   502  1.910853869E+01  4.992638557E+01  6.193487810E+00  5.381579246E+01  1.440411326E-06  0.00000E+00  9.000E+00
#rwgt            1           1   4.6591913374465346E-002           7      360859           0
</event>
<event>
      5   9999  3.79277E-02  1.90147E+02 -1.00000E+00  1.12453E-01
      21    -1     0     0   502   501  0.000000000E+00  0.000000000E+00  1.435266439E+02  1.435266439E+02  0.000000000E+00  0.00000E+00  9.000E+00
      21    -1     0     0   501   512  0.000000000E+00  0.000000000E+00 -9.456365972E+02  9.456365972E+02  0.000000000E+00  0.00000E+00  9.000E+00
      25     1     1     2     0     0  3.330144985E+01  1.829153761E+02  7.929979067E-01  2.240371626E+02  1.250000000E+02  0.00000E+00  9.000E+00
      25     1     1     2     0     0  2.832554778E+01 -3.032235553E+00 -3.902920421E+02  4.108094561E+02  1.250000000E+02  0.00000E+00  9.000E+00
      21     1     1     2   502   512 -6.162699763E+01 -1.798831405E+02 -4.126109092E+02  4.543166225E+02  7.629394531E-06  0.00000E+00  9.000E+00
#rwgt            1           1   4.2172197127150167E-002           7      361010           0
</event>
<event>
      5   9999  3.79277E-02  7.12239E+00 -1.00000E+00  2.14495E-01
      21    -1     0     0   502   501  0.000000000E+00  0.000000000E+00  8.344163028E+01  8.344163028E+01  0.000000000E+00  0.00000E+00  9.000E+00
      21    -1     0     0   501   511  0.000000000E+00  0.000000000E+00 -4.856015225E+02  4.856015225E+02  0.000000000E+00  0.00000E+00  9.000E+00
      25     1     1     2     0     0  5.327040028E+01 -7.620480257E+01 -2.819838821E+01  1.583194763E+02  1.250000000E+02  0.00000E+00  9.000E+00
      25     1     1     2     0     0 -5.946664385E+01  7.269268115E+01 -3.184993173E+02  3.548060354E+02  1.250000000E+02  0.00000E+00  9.000E+00
      21     1     1     2   502   511  6.196243575E+00  3.512121419E+00 -5.546218670E+01  5.591764109E+01  9.536743164E-07  0.00000E+00  9.000E+00
#rwgt            1           1   4.0820519829585691E-002           7      361071           0
</event>
<event>
      5   9999  3.79277E-02  1.10162E+01 -1.00000E+00  1.91021E-01
      21    -1     0     0   502   501  0.000000000E+00  0.000000000E+00  1.847544055E+03  1.847544055E+03  0.000000000E+00  0.00000E+00  9.000E+00
      21    -1     0     0   512   502  0.000000000E+00  0.000000000E+00 -2.764105340E+02  2.764105340E+02  0.000000000E+00  0.00000E+00  9.000E+00
      25     1     1     2     0     0 -2.645545606E+02  3.656232475E+01  4.634970879E+02  5.493454920E+02  1.250000000E+02  0.00000E+00  9.000E+00
      25     1     1     2     0     0  2.646933149E+02 -2.554703863E+01  1.324886769E+03  1.357079641E+03  1.250000000E+02  0.00000E+00  9.000E+00
      21     1     1     2   512   501 -1.387543481E-01 -1.101528612E+01 -2.172503357E+02  2.175294558E+02  7.629394531E-06  0.00000E+00  9.000E+00
#rwgt            1           1   3.1475872252576073E-002           7      361503           0
</event>
<event>
      5   9999  3.79277E-02  7.06049E+01 -1.00000E+00  1.31032E-01
      21    -1     0     0   502   511  0.000000000E+00  0.000000000E+00  1.416564433E+01  1.416564433E+01  0.000000000E+00  0.00000E+00  9.000E+00
      21    -1     0     0   501   502  0.000000000E+00  0.000000000E+00 -3.834689141E+03  3.834689141E+03  0.000000000E+00  0.00000E+00  9.000E+00
      25     1     1     2     0     0  4.113474823E+01 -6.021995787E+01 -6.342718660E+02  6.505722948E+02  1.250000000E+02  0.00000E+00  9.000E+00
      25     1     1     2     0     0  3.451028646E+00  1.149663042E+02 -2.830484544E+03  2.835576999E+03  1.250000000E+02  0.00000E+00  9.000E+00
      21     1     1     2   501   511 -4.458577687E+01 -5.474634638E+01 -3.557670870E+02  3.627054922E+02  5.394796609E-06  0.00000E+00  9.000E+00
#rwgt            1           1   1.8792159641746797E-002           7      361826           0
</event>
<event>
      5   9999  3.79277E-02  1.79017E+01 -1.00000E+00  1.70441E-01
      21    -1     0     0   502   512  0.000000000E+00  0.000000000E+00  3.698461507E+01  3.698461507E+01  0.000000000E+00  0.00000E+00  9.000E+00
      21    -1     0     0   501   502  0.000000000E+00  0.000000000E+00 -1.086179701E+03  1.086179701E+03  0.000000000E+00  0.00000E+00  9.000E+00
      25     1     1     2     0     0 -3.445442008E+01  1.073385132E+02 -2.579645727E+02  3.080249734E+02  1.250000000E+02  0.00000E+00  9.000E+00
      25     1     1     2     0     0  5.216671546E+01 -1.099355199E+02 -7.527339090E+02  7.726839733E+02  1.250000000E+02  0.00000E+00  9.000E+00
      21     1     1     2   501   512 -1.771229538E+01  2.597006683E+00 -3.849660409E+01  4.245536925E+01  4.768371582E-07  0.00000E+00  9.000E+00
#rwgt            1           1   4.6626288039613065E-002           7      362003           0
</event>
<event>
      5   9999  3.79277E-02  1.95631E+01 -1.00000E+00  1.67164E-01
      21    -1     0     0   511   501  0.000000000E+00  0.000000000E+00  4.222667236E+02  4.222667236E+02  0.000000000E+00  0.00000E+00  9.000E+00
      21    -1     0     0   501   502  0.000000000E+00  0.000000000E+00 -1.337709495E+02  1.337709495E+02  0.000000000E+00  0.00000E+00  9.000E+00
      25     1     1     2     0     0 -8.951905033E+00 -6.908336759E+01 -6.488977761E+01  1.571252097E+02  1.250000000E+02  0.00000E+00  9.000E+00
      25     1     1     2     0     0  2.553700337E+01  7.945884439E+01  2.352326851E+02  2.791509675E+02  1.250000000E+02  0.00000E+00  9.000E+00
      21     1     1     2   511   502 -1.658509834E+01 -1.037547680E+01  1.181528666E+02  1.197614959E+02  1.348699152E-06  0.00000E+00  9.000E+00
#rwgt            1           1   3.8503557840034043E-002           7      362201           0
</event>
<event>
      5   9999  3.79277E-02  1.98833E+01 -1.00000E+00  1.66579E-01
      21    -1     0     0   502   501  0.000000000E+00  0.000000000E+00  9.110657088E+02  9.110657088E+02  0.000000000E+00  0.00000E+00  9.000E+00
      21    -1     0     0   501   512  0.000000000E+00  0.000000000E+00 -5.281556564E+01  5.281556564E+01  0.000000000E+00  0.00000E+00  9.000E+00
      25     1     1     2     0     0  3.622694811E+01 -1.175463064E+02  1.640533653E+02  2.401416927E+02  1.250000000E+02  0.00000E+00  9.000E+00
      25     1     1     2     0     0 -1.802134596E+01  1.095525091E+02  6.773529074E+02  6.976807882E+02  1.250000000E+02  0.00000E+00  9.000E+00
      21     1     1     2   502   512 -1.820560215E+01  7.993797271E+00  1.684387055E+01  2.605879352E+01  2.384185791E-07  0.00000E+00  9.000E+00
#rwgt            1           1   3.7980793799241838E-002           7      362677           0
</event>
<event>
      5   9999  3.79277E-02  6.05912E+01 -1.00000E+00  1.34476E-01
      21    -1     0     0   511   501  0.000000000E+00  0.000000000E+00  3.455781332E+02  3.455781332E+02  0.000000000E+00  0.00000E+00  9.000E+00
      21    -1     0     0   501   502  0.000000000E+00  0.000000000E+00 -1.454031382E+02  1.454031382E+02  0.000000000E+00  0.00000E+00  9.000E+00
      25     1     1     2     0     0  4.625711245E+01 -5.273083793E+01 -4.720557666E+01  1.509093376E+02  1.250000000E+02  0.00000E+00  9.000E+00
      25     1     1     2     0     0 -3.798520154E+01  1.127547892E+02  1.889331515E+02  2.558852355E+02  1.250000000E+02  0.00000E+00  9.000E+00
      21     1     1     2   511   502 -8.271910912E+00 -6.002395123E+01  5.844742016E+01  8.418669821E+01  9.536743164E-07  0.00000E+00  9.000E+00
#rwgt            1           1   2.7255310022587534E-002           7      362898           0
</event>
<event>
      5   9999  3.79277E-02  7.06164E+01 -1.00000E+00  1.31028E-01
      21    -1     0     0   512   501  0.000000000E+00  0.000000000E+00  8.581030541E+01  8.581030541E+01  0.000000000E+00  0.00000E+00  9.000E+00
      21    -1     0     0   501   502  0.000000000E+00  0.000000000E+00 -2.537811214E+03  2.537811214E+03  0.000000000E+00  0.00000E+00  9.000E+00
      25     1     1     2     0     0 -1.129728494E+02  1.105802650E+02 -1.473879226E+03  1.487593974E+03  1.250000000E+02  0.00000E+00  9.000E+00
      25     1     1     2     0     0  1.601244512E+02 -5.801217983E+01 -1.028057409E+03  1.049539084E+03  1.250000000E+02  0.00000E+00  9.000E+00
      21     1     1     2   512   502 -4.715160180E+01 -5.256808521E+01  4.993572629E+01  8.648846105E+01  3.371747881E-06  0.00000E+00  9.000E+00
#rwgt            1           1   8.6630796447538183E-002           7      363047           0
</event>
<event>
      5   9999  3.79277E-02  8.54264E+01 -1.00000E+00  1.26985E-01
      21    -1     0     0   502   501  0.000000000E+00  0.000000000E+00  3.955036007E+02  3.955036007E+02  0.000000000E+00  0.00000E+00  9.000E+00
      -2    -1     0     0     0   502  0.000000000E+00  0.000000000E+00 -2.051266503E+02  2.051266503E+02  0.000000000E+00  0.00000E+00  9.000E+00
      25     1     1     2     0     0 -6.513674283E+01 -3.756382289E+01  2.495824108E+02  2.890851359E+02  1.250000000E+02  0.00000E+00  9.000E+00
      25     1     1     2     0     0  1.503429214E+02  4.369318247E+01 -9.146081953E+01  2.202320815E+02  1.250000000E+02  0.00000E+00  9.000E+00
      -2     1     1     2     0   501 -8.520617857E+01 -6.129359575E+00  3.225535919E+01  9.131303363E+01  1.066240300E-06  0.00000E+00  9.000E+00
#rwgt            1           1   4.8258405656241239E-002           7      363239           0
</event>
<event>
      5   9999  3.79277E-02  4.26601E+01 -1.00000E+00  1.43127E-01
      21    -1     0     0   502   501  0.000000000E+00  0.000000000E+00  2.259540762E+02  2.259540762E+02  0.000000000E+00  0.00000E+00  9.000E+00
      21    -1     0     0   501   511  0.000000000E+00  0.000000000E+00 -9.319443250E+02  9.319443250E+02  0.000000000E+00  0.00000E+00  9.000E+00
      25     1     1     2     0     0 -1.629562705E+01  1.712517137E+02 -1.277422452E+02  2.480640605E+02  1.250000000E+02  0.00000E+00  9.000E+00
      25     1     1     2     0     0  5.613709871E+01 -1.865009582E+02  8.400944013E+01  2.462043202E+02  1.250000000E+02  0.00000E+00  9.000E+00
      21     1     1     2   502   511 -3.984147166E+01  1.524924447E+01 -6.622574437E+02  6.636300204E+02  0.000000000E+00  0.00000E+00  9.000E+00
#rwgt            1           1   2.9374634742808162E-002           7      363330           0
</event>
<event>
      5   9999  3.79277E-02  9.15539E+01 -1.00000E+00  1.25576E-01
      21    -1     0     0   502   512  0.000000000E+00  0.000000000E+00  3.589193981E+02  3.589193981E+02  0.000000000E+00  0.00000E+00  9.000E+00
      21    -1     0     0   501   502  0.000000000E+00  0.000000000E+00 -2.099016051E+02  2.099016051E+02  0.000000000E+00  0.00000E+00  9.000E+00
      25     1     1     2     0     0 -1.622506975E+02 -8.949144154E+01  1.662069979E+02  2.785386384E+02  1.250000000E+02  0.00000E+00  9.000E+00
      25     1     1     2     0     0  1.208232866E+02  7.846553931E+00 -6.649419910E+01  1.862963056E+02  1.250000000E+02  0.00000E+00  9.000E+00
      21     1     1     2   501   512  4.142741091E+01  8.164488761E+01  4.930499409E+01  1.039860591E+02  1.651812370E-06  0.00000E+00  9.000E+00
#rwgt            1           1   2.3259819717312544E-002           7      363508           0
</event>
<event>
      5   9999  3.79277E-02  2.79489E+01 -1.00000E+00  1.55207E-01
      21    -1     0     0   502   501  0.000000000E+00  0.000000000E+00  3.058145581E+02  3.058145581E+02  0.000000000E+00  0.00000E+00  9.000E+00
       2    -1     0     0   501     0  0.000000000E+00  0.000000000E+00 -6.023844917E+02  6.023844917E+02  0.000000000E+00  0.00000E+00  9.000E+00
      25     1     1     2     0     0  1.300940225E+02 -1.378966642E+02  1.745458542E+01  2.277490005E+02  1.250000000E+02  0.00000E+00  9.000E+00
      25     1     1     2     0     0 -1.478837555E+02  1.163405849E+02  1.129500118E+02  2.525617588E+02  1.250000000E+02  0.00000E+00  9.000E+00
       2     1     1     2   502     0  1.778973295E+01  2.155607922E+01 -4.269745309E+02  4.278882905E+02  0.000000000E+00  0.00000E+00  9.000E+00
#rwgt            1           1   3.4549025356884540E-002           7      363564           0
</event>
<event>
      5   9999  3.79277E-02  1.34886E+01 -1.00000E+00  1.81842E-01
      21    -1     0     0   511   501  0.000000000E+00  0.000000000E+00  7.349581628E+02  7.349581628E+02  0.000000000E+00  0.00000E+00  9.000E+00
      21    -1     0     0   501   502  0.000000000E+00  0.000000000E+00 -6.445974595E+01  6.445974595E+01  0.000000000E+00  0.00000E+00  9.000E+00
      25     1     1     2     0     0  4.728589040E+01 -1.308064739E+02  4.582473862E+02  4.949363151E+02  1.250000000E+02  0.00000E+00  9.000E+00
      25     1     1     2     0     0 -3.709058680E+01  1.219748364E+02  1.293159290E+02  2.204567573E+02  1.250000000E+02  0.00000E+00  9.000E+00
      21     1     1     2   511   502 -1.019530360E+01  8.831637454E+00  8.293510170E+01  8.402483639E+01  1.348699152E-06  0.00000E+00  9.000E+00
#rwgt            1           1   4.2581619820727633E-002           7      363669           0
</event>
<event>
      5   9999  3.79277E-02  7.32434E+00 -1.00000E+00  2.12811E-01
       2    -1     0     0   502     0  0.000000000E+00  0.000000000E+00  4.310389338E+02  4.310389338E+02  0.000000000E+00  0.00000E+00  9.000E+00
      21    -1     0     0   501   502  0.000000000E+00  0.000000000E+00 -9.816443803E+01  9.816443803E+01  0.000000000E+00  0.00000E+00  9.000E+00
      25     1     1     2     0     0 -1.116883380E+02 -1.446727891E+01  2.257685520E+01  1.697595399E+02  1.250000000E+02  0.00000E+00  9.000E+00
      25     1     1     2     0     0  1.179258434E+02  1.830648016E+01  2.869370893E+02  3.349619754E+02  1.250000000E+02  0.00000E+00  9.000E+00
       2     1     1     2   501     0 -6.237505392E+00 -3.839201249E+00  2.336055130E+01  2.448185648E+01  4.768371582E-07  0.00000E+00  9.000E+00
#rwgt            1           1   3.6487848490570851E-002           7      363870           0
</event>
<event>
      5   9999  3.79277E-02  3.10790E+01 -1.00000E+00  1.51982E-01
      21    -1     0     0   502   511  0.000000000E+00  0.000000000E+00  1.659301964E+02  1.659301964E+02  0.000000000E+00  0.00000E+00  9.000E+00
      21    -1     0     0   501   502  0.000000000E+00  0.000000000E+00 -4.214947028E+02  4.214947028E+02  0.000000000E+00  0.00000E+00  9.000E+00
      25     1     1     2     0     0  2.955926732E+01 -1.732140903E+02 -1.239320309E+02  2.487187561E+02  1.250000000E+02  0.00000E+00  9.000E+00
      25     1     1     2     0     0  2.605726648E-01  1.819708003E+02 -1.775179014E+02  2.832861546E+02  1.250000000E+02  0.00000E+00  9.000E+00
      21     1     1     2   501   511 -2.981983998E+01 -8.756709950E+00  4.588542586E+01  5.541998856E+01  6.743495762E-07  0.00000E+00  9.000E+00
#rwgt            1           1   4.2666966650518535E-002           7      364183           0
</event>
<event>
      5   9999  3.79277E-02  8.16885E+00 -1.00000E+00  2.06492E-01
      21    -1     0     0   512   501  0.000000000E+00  0.000000000E+00  9.393053507E+01  9.393053507E+01  0.000000000E+00  0.00000E+00  9.000E+00
      21    -1     0     0   501   502  0.000000000E+00  0.000000000E+00 -5.219197104E+02  5.219197104E+02  0.000000000E+00  0.00000E+00  9.000E+00
      25     1     1     2     0     0  5.612748173E+01  1.286198717E+02 -3.600997388E+02  4.061898417E+02  1.250000000E+02  0.00000E+00  9.000E+00
      25     1     1     2     0     0 -5.746765955E+01 -1.205617073E+02 -7.605648759E+01  1.981091782E+02  1.250000000E+02  0.00000E+00  9.000E+00
      21     1     1     2   512   502  1.340177819E+00 -8.058164412E+00  8.167051050E+00  1.155122561E+01  1.192092896E-07  0.00000E+00  9.000E+00
#rwgt            1           1  0.20829097644160785                7      364327           0
</event>
<event>
      5   9999  3.79277E-02  6.23984E+00 -1.00000E+00  2.22860E-01
      21    -1     0     0   502   501  0.000000000E+00  0.000000000E+00  1.022342049E+03  1.022342049E+03  0.000000000E+00  0.00000E+00  9.000E+00
      21    -1     0     0   511   502  0.000000000E+00  0.000000000E+00 -6.857482728E+01  6.857482728E+01  0.000000000E+00  0.00000E+00  9.000E+00
      25     1     1     2     0     0 -1.100359459E+02  5.119447493E+01  9.426534096E+01  1.980902273E+02  1.250000000E+02  0.00000E+00  9.000E+00
      25     1     1     2     0     0  1.153997662E+02 -5.438274380E+01  8.657590017E+02  8.839899535E+02  1.250000000E+02  0.00000E+00  9.000E+00
      21     1     1     2   511   501 -5.363820351E+00  3.188268870E+00 -6.257120863E+00  8.836695572E+00  3.153981341E-07  0.00000E+00  9.000E+00
#rwgt            1           1   4.4219909421678485E-002           7      364632           0
</event>
<event>
      5   9999  3.79277E-02  1.86966E+02 -1.00000E+00  1.12724E-01
       1    -1     0     0   502     0  0.000000000E+00  0.000000000E+00  8.014240617E+02  8.014240617E+02  0.000000000E+00  0.00000E+00  9.000E+00
      21    -1     0     0   501   502  0.000000000E+00  0.000000000E+00 -2.381252385E+02  2.381252385E+02  0.000000000E+00  0.00000E+00  9.000E+00
      25     1     1     2     0     0  1.237824820E+02  4.664190431E+01  2.523824288E+02  3.111582562E+02  1.250000000E+02  0.00000E+00  9.000E+00
      25     1     1     2     0     0 -1.300081332E+00 -1.879016972E+02 -1.221987796E+02  2.566442670E+02  1.250000000E+02  0.00000E+00  9.000E+00
       1     1     1     2   501     0 -1.224824007E+02  1.412597929E+02  4.331151741E+02  4.717467770E+02  7.629394531E-06  0.00000E+00  9.000E+00
#rwgt            1           1   3.9863306039308447E-002           7      364928           0
</event>
<event>
      5   9999  3.79277E-02  3.56556E+01 -1.00000E+00  1.48006E-01
      21    -1     0     0   502   501  0.000000000E+00  0.000000000E+00  5.940118866E+01  5.940118866E+01  0.000000000E+00  0.00000E+00  9.000E+00
      21    -1     0     0   511   502  0.000000000E+00  0.000000000E+00 -1.002749214E+03  1.002749214E+03  0.000000000E+00  0.00000E+00  9.000E+00
      25     1     1     2     0     0  2.488454245E+01  1.636817389E+02 -2.087883754E+02  2.943272631E+02  1.250000000E+02  0.00000E+00  9.000E+00
      25     1     1     2     0     0 -3.283512187E-01 -1.378298775E+02 -6.485908010E+02  6.747534439E+02  1.250000000E+02  0.00000E+00  9.000E+00
      21     1     1     2   511   501 -2.455619123E+01 -2.585186140E+01 -8.596884880E+01  9.306969554E+01  0.000000000E+00  0.00000E+00  9.000E+00
#rwgt            1           1   4.5327219916157881E-002           7      364985           0
</event>
<event>
      5   9999  3.79277E-02  4.87512E+01 -1.00000E+00  1.39705E-01
      21    -1     0     0   502   501  0.000000000E+00  0.000000000E+00  1.025755760E+03  1.025755760E+03  0.000000000E+00  0.00000E+00  9.000E+00
      21    -1     0     0   501   512  0.000000000E+00  0.000000000E+00 -4.668672987E+01  4.668672987E+01  0.000000000E+00  0.00000E+00  9.000E+00
      25     1     1     2     0     0 -8.434497666E+01 -1.026880269E+02  2.453044680E+02  3.057093194E+02  1.250000000E+02  0.00000E+00  9.000E+00
      25     1     1     2     0     0  5.144138081E+01  6.671539678E+01  6.684223937E+02  6.852084765E+02  1.250000000E+02  0.00000E+00  9.000E+00
      21     1     1     2   502   512  3.290359585E+01  3.597263017E+01  6.534216811E+01  8.152469365E+01  9.536743164E-07  0.00000E+00  9.000E+00
#rwgt            1           1   3.2974014581187705E-002           7      365129           0
</event>
<event>
      5   9999  3.79277E-02  2.00541E+01 -1.00000E+00  1.66272E-01
      21    -1     0     0   502   501  0.000000000E+00  0.000000000E+00  7.505999447E+01  7.505999447E+01  0.000000000E+00  0.00000E+00  9.000E+00
      21    -1     0     0   511   502  0.000000000E+00  0.000000000E+00 -7.702301960E+02  7.702301960E+02  0.000000000E+00  0.00000E+00  9.000E+00
      25     1     1     2     0     0 -6.585268934E+01 -7.207038633E+01 -3.948183984E+02  4.254847647E+02  1.250000000E+02  0.00000E+00  9.000E+00
      25     1     1     2     0     0  8.432659653E+01  6.426777739E+01 -5.390764785E+01  1.725466795E+02  1.250000000E+02  0.00000E+00  9.000E+00
      21     1     1     2   511   501 -1.847390719E+01  7.802608942E+00 -2.464441553E+02  2.472587464E+02  2.697398305E-06  0.00000E+00  9.000E+00
#rwgt            1           1   4.5823044544874326E-002           7      365213           0
</event>
<event>
      5   9999 -3.79277E-02  1.03358E+02 -1.00000E+00  1.23186E-01
       2    -1     0     0   502     0  0.000000000E+00  0.000000000E+00  3.296285861E+03  3.296285861E+03  0.000000000E+00  0.00000E+00  9.000E+00
      21    -1     0     0   501   502  0.000000000E+00  0.000000000E+00 -4.076972511E+01  4.076972511E+01  0.000000000E+00  0.00000E+00  9.000E+00
      25     1     1     2     0     0  1.778958370E+02 -1.636275028E+02  9.904201938E+02  1.027121244E+03  1.250000000E+02  0.00000E+00  9.000E+00
      25     1     1     2     0     0 -7.477719837E+01  1.566014873E+02  5.266645066E+02  5.684330724E+02  1.250000000E+02  0.00000E+00  9.000E+00
       2     1     1     2   501     0 -1.031186386E+02  7.026015504E+00  1.738431435E+03  1.741501270E+03  2.157918644E-05  0.00000E+00  9.000E+00
#rwgt            1           1  -6.0070011804991837E-002           7      365365           0
</event>
<event>
      5   9999  3.79277E-02  1.48230E+01 -1.00000E+00  1.77871E-01
       1    -1     0     0   502     0  0.000000000E+00  0.000000000E+00  6.702066835E+01  6.702066835E+01  0.000000000E+00  0.00000E+00  9.000E+00
      21    -1     0     0   501   502  0.000000000E+00  0.000000000E+00 -6.323873663E+02  6.323873663E+02  0.000000000E+00  0.00000E+00  9.000E+00
      25     1     1     2     0     0  1.276607020E+02  3.757798843E+01 -4.220535957E+02  4.598517128E+02  1.250000000E+02  0.00000E+00  9.000E+00
      25     1     1     2     0     0 -1.148353582E+02 -4.500981242E+01 -1.229547112E+02  2.143732813E+02  1.250000000E+02  0.00000E+00  9.000E+00
       1     1     1     2   501     0 -1.282534376E+01  7.431823993E+00 -2.035839107E+01  2.518304067E+01  0.000000000E+00  0.00000E+00  9.000E+00
#rwgt            1           1   3.6077760678175773E-002           7      365422           0
</event>
<event>
      5   9999  3.79277E-02  1.41427E+01 -1.00000E+00  1.79826E-01
      21    -1     0     0   502   511  0.000000000E+00  0.000000000E+00  2.385889166E+01  2.385889166E+01  0.000000000E+00  0.00000E+00  9.000E+00
      21    -1     0     0   501   502  0.000000000E+00  0.000000000E+00 -1.934749154E+03  1.934749154E+03  0.000000000E+00  0.00000E+00  9.000E+00
      25     1     1     2     0     0  1.547834165E+02 -9.873744600E+00 -6.633201914E+02  6.925850657E+02  1.250000000E+02  0.00000E+00  9.000E+00
      25     1     1     2     0     0 -1.517870681E+02 -3.947949527E+00 -1.209998210E+03  1.225877469E+03  1.250000000E+02  0.00000E+00  9.000E+00
      21     1     1     2   501   511 -2.996348413E+00  1.382169413E+01 -3.757186072E+01  4.014551096E+01  4.768371582E-07  0.00000E+00  9.000E+00
#rwgt            1           1  0.14756244161738388                7      365591           0
</event>
<event>
      5   9999  3.79277E-02  7.62364E+01 -1.00000E+00  1.29371E-01
      21    -1     0     0   502   512  0.000000000E+00  0.000000000E+00  6.328181255E+02  6.328181255E+02  0.000000000E+00  0.00000E+00  9.000E+00
      21    -1     0     0   501   502  0.000000000E+00  0.000000000E+00 -3.606169107E+02  3.606169107E+02  0.000000000E+00  0.00000E+00  9.000E+00
      25     1     1     2     0     0 -9.673442743E+01  1.917681808E+02 -1.776948123E+02  3.055045514E+02  1.250000000E+02  0.00000E+00  9.000E+00
      25     1     1     2     0     0  1.459729506E+02 -1.335654944E+02  2.462829349E+00  2.340489460E+02  1.250000000E+02  0.00000E+00  9.000E+00
      21     1     1     2   501   512 -4.923852314E+01 -5.820268638E+01  4.474331977E+02  4.538815388E+02  0.000000000E+00  0.00000E+00  9.000E+00
#rwgt            1           1   4.3678403930744500E-002           7      365842           0
</event>
<event>
      5   9999  3.79277E-02  3.64558E+01 -1.00000E+00  1.47384E-01
      21    -1     0     0   502   501  0.000000000E+00  0.000000000E+00  2.369315497E+02  2.369315497E+02  0.000000000E+00  0.00000E+00  9.000E+00
       2    -1     0     0   501     0  0.000000000E+00  0.000000000E+00 -8.748480982E+02  8.748480982E+02  0.000000000E+00  0.00000E+00  9.000E+00
      25     1     1     2     0     0  2.086293222E+02  8.255659687E+01 -4.779993194E+01  2.612501086E+02  1.250000000E+02  0.00000E+00  9.000E+00
      25     1     1     2     0     0 -1.798418406E+02 -1.049241794E+02  1.594257314E+01  2.433748892E+02  1.250000000E+02  0.00000E+00  9.000E+00
       2     1     1     2   502     0 -2.878748159E+01  2.236758250E+01 -6.060591897E+02  6.071546502E+02  0.000000000E+00  0.00000E+00  9.000E+00
#rwgt            1           1   3.7125560911242410E-002           7      365997           0
</event>
<event>
      5   9999  3.79277E-02  2.68067E+02 -1.00000E+00  1.07205E-01
       2    -1     0     0   502     0  0.000000000E+00  0.000000000E+00  2.276901842E+03  2.276901842E+03  0.000000000E+00  0.00000E+00  9.000E+00
      21    -1     0     0   501   502  0.000000000E+00  0.000000000E+00 -7.675591933E+01  7.675591933E+01  0.000000000E+00  0.00000E+00  9.000E+00
      25     1     1     2     0     0 -3.160222149E+02 -1.413225955E+01  5.392503873E+02  6.375623430E+02  1.250000000E+02  0.00000E+00  9.000E+00
      25     1     1     2     0     0  6.514926852E+01 -8.032757112E+01  6.955643217E+02  7.142350253E+02  1.250000000E+02  0.00000E+00  9.000E+00
       2     1     1     2   501     0  2.508729463E+02  9.445983066E+01  9.653312141E+02  1.001860393E+03  1.868812365E-05  0.00000E+00  9.000E+00
#rwgt            1           1   4.1259660539979086E-002           7      366110           0
</event>
<event>
      5   9999  3.79277E-02  6.79201E+01 -1.00000E+00  1.31888E-01
      21    -1     0     0   502   501  0.000000000E+00  0.000000000E+00  4.343788826E+02  4.343788826E+02  0.000000000E+00  0.00000E+00  9.000E+00
      21    -1     0     0   511   502  0.000000000E+00  0.000000000E+00 -4.966089231E+02  4.966089231E+02  0.000000000E+00  0.00000E+00  9.000E+00
      25     1     1     2     0     0 -4.311342801E+02  1.759133974E+01  1.815176744E+01  4.496006109E+02  1.250000000E+02  0.00000E+00  9.000E+00
      25     1     1     2     0     0  3.780473171E+02  2.477510685E+01 -3.669632880E+01  4.006310029E+02  1.250000000E+02  0.00000E+00  9.000E+00
      21     1     1     2   511   501  5.308696292E+01 -4.236644659E+01 -4.368547918E+01  8.075619184E+01  6.743495762E-07  0.00000E+00  9.000E+00
#rwgt            1           1   3.2536441443390740E-002           7      366220           0
</event>
<event>
      5   9999  3.79277E-02  1.59553E+01 -1.00000E+00  1.74894E-01
      21    -1     0     0   512   501  0.000000000E+00  0.000000000E+00  2.179553067E+03  2.179553067E+03  0.000000000E+00  0.00000E+00  9.000E+00
      21    -1     0     0   501   502  0.000000000E+00  0.000000000E+00 -1.675229874E+01  1.675229874E+01  0.000000000E+00  0.00000E+00  9.000E+00
      25     1     1     2     0     0  1.050874186E+02 -3.417271083E+01  1.512312040E+03  1.521487380E+03  1.250000000E+02  0.00000E+00  9.000E+00
      25     1     1     2     0     0 -8.995233158E+01  3.922247088E+01  5.310548470E+02  5.543230779E+02  1.250000000E+02  0.00000E+00  9.000E+00
      21     1     1     2   512   502 -1.513508701E+01 -5.049760051E+00  1.194338814E+02  1.204949084E+02  0.000000000E+00  0.00000E+00  9.000E+00
#rwgt            1           1   9.5888637472079222E-002           7      366318           0
</event>
<event>
      5   9999  3.79277E-02  3.81102E+01 -1.00000E+00  1.46156E-01
      21    -1     0     0   511   501  0.000000000E+00  0.000000000E+00  3.828970104E+02  3.828970104E+02  0.000000000E+00  0.00000E+00  9.000E+00
      21    -1     0     0   501   502  0.000000000E+00  0.000000000E+00 -1.586607897E+02  1.586607897E+02  0.000000000E+00  0.00000E+00  9.000E+00
      25     1     1     2     0     0 -4.237079595E+00 -1.785327664E+02  9.345169435E+01  2.371710790E+02  1.250000000E+02  0.00000E+00  9.000E+00
      25     1     1     2     0     0  2.070914491E+01  1.441662709E+02  2.699405772E+01  1.938206942E+02  1.250000000E+02  0.00000E+00  9.000E+00
      21     1     1     2   511   502 -1.647206531E+01  3.436649557E+01  1.037904686E+02  1.105660270E+02  1.348699152E-06  0.00000E+00  9.000E+00
#rwgt            1           1   7.2765365893639911E-002           7      366469           0
</event>
<event>
      5   9999  3.79277E-02  3.54498E+01 -1.00000E+00  1.48170E-01
      21    -1     0     0   502   501  0.000000000E+00  0.000000000E+00  8.363118693E+01  8.363118693E+01  0.000000000E+00  0.00000E+00  9.000E+00
      21    -1     0     0   512   502  0.000000000E+00  0.000000000E+00 -9.308311858E+02  9.308311858E+02  0.000000000E+00  0.00000E+00  9.000E+00
      25     1     1     2     0     0 -7.247571690E+00  1.477027780E+02 -4.477449702E+02  4.878208649E+02  1.250000000E+02  0.00000E+00  9.000E+00
      25     1     1     2     0     0 -2.664098425E+01 -1.372982222E+02 -7.785478355E+01  2.030933558E+02  1.250000000E+02  0.00000E+00  9.000E+00
      21     1     1     2   512   501  3.388855594E+01 -1.040455580E+01 -3.216002451E+02  3.235481520E+02  3.814697266E-06  0.00000E+00  9.000E+00
#rwgt            1           1   3.9939461475924212E-002           7      366626           0
</event>
<event>
      5   9999  3.79277E-02  5.08795E+01 -1.00000E+00  1.38645E-01
      21    -1     0     0   502   511  0.000000000E+00  0.000000000E+00  5.554128622E+02  5.554128622E+02  0.000000000E+00  0.00000E+00  9.000E+00
      21    -1     0     0   501   502  0.000000000E+00  0.000000000E+00 -2.704217776E+02  2.704217776E+02  0.000000000E+00  0.00000E+00  9.000E+00
      25     1     1     2     0     0 -9.618278805E+01 -9.658186997E+01 -1.019207034E+02  2.111682176E+02  1.250000000E+02  0.00000E+00  9.000E+00
      25     1     1     2     0     0  1.470542968E+02  9.567846398E+01 -8.897537478E+00  2.156003267E+02  1.250000000E+02  0.00000E+00  9.000E+00
      21     1     1     2   501   511 -5.087150876E+01  9.034059921E-01  3.958093255E+02  3.990660956E+02  0.000000000E+00  0.00000E+00  9.000E+00
#rwgt            1           1   4.0015970519145447E-002           7      366705           0
</event>
<event>
      5   9999  3.79277E-02  8.35876E+01 -1.00000E+00  1.27434E-01
      21    -1     0     0   502   501  0.000000000E+00  0.000000000E+00  2.070169711E+02  2.070169711E+02  0.000000000E+00  0.00000E+00  9.000E+00
      21    -1     0     0   512   502  0.000000000E+00  0.000000000E+00 -6.738449809E+02  6.738449809E+02  0.000000000E+00  0.00000E+00  9.000E+00
      25     1     1     2     0     0  7.538330306E+01  3.285710154E+01  1.562275066E+02  2.163198218E+02  1.250000000E+02  0.00000E+00  9.000E+00
      25     1     1     2     0     0 -1.911468262E+01  2.895491016E+01 -2.435937053E+02  2.759830632E+02  1.250000000E+02  0.00000E+00  9.000E+00
      21     1     1     2   512   501 -5.626862044E+01 -6.181201171E+01 -3.794618111E+02  3.885590670E+02  0.000000000E+00  0.00000E+00  9.000E+00
#rwgt            1           1   4.4831715863682731E-002           7      366822           0
</event>
<event>
      5   9999  3.79277E-02  5.11036E+01 -1.00000E+00  1.38537E-01
      21    -1     0     0   511   501  0.000000000E+00  0.000000000E+00  5.186464398E+02  5.186464398E+02  0.000000000E+00  0.00000E+00  9.000E+00
      21    -1     0     0   501   502  0.000000000E+00  0.000000000E+00 -1.837258483E+02  1.837258483E+02  0.000000000E+00  0.00000E+00  9.000E+00
      25     1     1     2     0     0 -7.175281000E+01  1.760674714E+02 -6.315476877E+01  2.361392493E+02  1.250000000E+02  0.00000E+00  9.000E+00
      25     1     1     2     0     0  3.705480533E+01 -1.385490883E+02  3.327071818E+02  3.832596735E+02  1.250000000E+02  0.00000E+00  9.000E+00
      21     1     1     2   511   502  3.469800467E+01 -3.751838309E+01  6.536817842E+01  8.297336529E+01  1.348699152E-06  0.00000E+00  9.000E+00
#rwgt            2          11   2.6832885702077437E-003           7      366896           0
</event>
<event>
      5   9999  3.79277E-02  2.10609E+01 -1.00000E+00  1.64538E-01
      21    -1     0     0   502   501  0.000000000E+00  0.000000000E+00  2.733680423E+02  2.733680423E+02  0.000000000E+00  0.00000E+00  9.000E+00
      21    -1     0     0   512   502  0.000000000E+00  0.000000000E+00 -3.023635807E+02  3.023635807E+02  0.000000000E+00  0.00000E+00  9.000E+00
      25     1     1     2     0     0  8.589734763E+00  6.740382264E+01  2.132043910E+02  2.563165449E+02  1.250000000E+02  0.00000E+00  9.000E+00
      25     1     1     2     0     0  2.607790081E+00 -8.524129414E+01 -1.138963945E+02  1.893944758E+02  1.250000000E+02  0.00000E+00  9.000E+00
      21     1     1     2   512   501 -1.119752484E+01  1.783747150E+01 -1.283035349E+02  1.300206023E+02  0.000000000E+00  0.00000E+00  9.000E+00
#rwgt            1           1   3.5894975946514501E-002           7      367006           0
</event>
<event>
      5   9999  3.79277E-02  2.59436E+01 -1.00000E+00  1.57555E-01
      21    -1     0     0   502   511  0.000000000E+00  0.000000000E+00  2.344106358E+02  2.344106358E+02  0.000000000E+00  0.00000E+00  9.000E+00
      21    -1     0     0   501   502  0.000000000E+00  0.000000000E+00 -1.794374274E+02  1.794374274E+02  0.000000000E+00  0.00000E+00  9.000E+00
      25     1     1     2     0     0  6.732954999E+01 -2.013833326E+01 -1.103732028E+02  1.809587374E+02  1.250000000E+02  0.00000E+00  9.000E+00
      25     1     1     2     0     0 -4.653185784E+01  3.564716807E+01  1.395160669E+02  1.962795642E+02  1.250000000E+02  0.00000E+00  9.000E+00
      21     1     1     2   501   511 -2.079769215E+01 -1.550883481E+01  2.583034424E+01  3.660976153E+01  0.000000000E+00  0.00000E+00  9.000E+00
#rwgt            1           1   4.4154469211608635E-002           7      367228           0
</event>
<event>
      5   9999  3.79277E-02  4.24375E+01 -1.00000E+00  1.43265E-01
      21    -1     0     0   502   501  0.000000000E+00  0.000000000E+00  1.279571092E+03  1.279571092E+03  0.000000000E+00  0.00000E+00  9.000E+00
      21    -1     0     0   512   502  0.000000000E+00  0.000000000E+00 -1.022338555E+02  1.022338555E+02  0.000000000E+00  0.00000E+00  9.000E+00
      25     1     1     2     0     0  2.115840410E+02  1.317518481E+02  9.454774955E+02  9.857378203E+02  1.250000000E+02  0.00000E+00  9.000E+00
      25     1     1     2     0     0 -1.844513624E+02 -1.643825390E+02  1.858831212E+02  3.334988140E+02  1.250000000E+02  0.00000E+00  9.000E+00
      21     1     1     2   512   501 -2.713267867E+01  3.263069094E+01  4.597661993E+01  6.256831325E+01  1.507891493E-06  0.00000E+00  9.000E+00
#rwgt            1           1   4.3571946204869018E-002           7      367354           0
</event>
<event>
      5   9999  3.79277E-02  1.55324E+01 -1.00000E+00  1.75968E-01
      21    -1     0     0   502   501  0.000000000E+00  0.000000000E+00  1.464388217E+03  1.464388217E+03  0.000000000E+00  0.00000E+00  9.000E+00
      21    -1     0     0   511   502  0.000000000E+00  0.000000000E+00 -3.592061556E+01  3.592061556E+01  0.000000000E+00  0.00000E+00  9.000E+00
      25     1     1     2     0     0  1.273007149E+02  1.211114182E+02  6.085506196E+02  6.456255139E+02  1.250000000E+02  0.00000E+00  9.000E+00
      25     1     1     2     0     0 -1.173791585E+02 -1.330620603E+02  8.025613561E+02  8.313922714E+02  1.250000000E+02  0.00000E+00  9.000E+00
      21     1     1     2   511   501 -9.921556415E+00  1.195064209E+01  1.735562531E+01  2.329104673E+01  3.371747881E-07  0.00000E+00  9.000E+00
#rwgt            1           1   6.1691804110518292E-002           7      367579           0
</event>
<event>
      5   9999  3.79277E-02  2.04808E+01 -1.00000E+00  1.65522E-01
      21    -1     0     0   502   512  0.000000000E+00  0.000000000E+00  1.909803650E+02  1.909803650E+02  0.000000000E+00  0.00000E+00  9.000E+00
      21    -1     0     0   501   502  0.000000000E+00  0.000000000E+00 -3.118335783E+02  3.118335783E+02  0.000000000E+00  0.00000E+00  9.000E+00
      25     1     1     2     0     0  1.346189538E+02 -7.360330275E-01  5.741395168E+00  1.837954518E+02  1.250000000E+02  0.00000E+00  9.000E+00
      25     1     1     2     0     0 -1.235529810E+02  1.796996313E+01 -1.857895471E+02  2.563806047E+02  1.250000000E+02  0.00000E+00  9.000E+00
      21     1     1     2   501   512 -1.106597289E+01 -1.723393010E+01  5.919493861E+01  6.263788677E+01  0.000000000E+00  0.00000E+00  9.000E+00
#rwgt            1           1   6.7261854760378589E-002           7      367757           0
</event>
<event>
      5   9999  3.79277E-02  2.13952E+01 -1.00000E+00  1.63988E-01
      21    -1     0     0   502   511  0.000000000E+00  0.000000000E+00  9.405886381E+01  9.405886381E+01  0.000000000E+00  0.00000E+00  9.000E+00
      21    -1     0     0   501   502  0.000000000E+00  0.000000000E+00 -1.353386114E+03  1.353386114E+03  0.000000000E+00  0.00000E+00  9.000E+00
      25     1     1     2     0     0 -4.194263659E+01 -2.354086442E+02 -8.612532378E+02  9.025289769E+02  1.250000000E+02  0.00000E+00  9.000E+00
      25     1     1     2     0     0  3.018813736E+01  2.532856063E+02 -4.245874127E+02  5.108467412E+02  1.250000000E+02  0.00000E+00  9.000E+00
      21     1     1     2   501   511  1.175449922E+01 -1.787696212E+01  2.651340057E+01  3.406925941E+01  1.011524364E-06  0.00000E+00  9.000E+00
#rwgt            1           1   3.4296648169908399E-002           7      367901           0
</event>
<event>
      5   9999  3.79277E-02  1.54216E+01 -1.00000E+00  1.76257E-01
      21    -1     0     0   502   501  0.000000000E+00  0.000000000E+00  2.561305664E+02  2.561305664E+02  0.000000000E+00  0.00000E+00  9.000E+00
      21    -1     0     0   512   502  0.000000000E+00  0.000000000E+00 -4.368146147E+02  4.368146147E+02  0.000000000E+00  0.00000E+00  9.000E+00
      25     1     1     2     0     0  5.227824514E+01  1.794856027E+01 -4.831444277E+01  1.449636200E+02  1.250000000E+02  0.00000E+00  9.000E+00
      25     1     1     2     0     0 -5.697814304E+01 -3.263650137E+01  1.836115091E+02  2.316243430E+02  1.250000000E+02  0.00000E+00  9.000E+00
      21     1     1     2   512   501  4.699897901E+00  1.468794110E+01 -3.159811147E+02  3.163572182E+02  3.814697266E-06  0.00000E+00  9.000E+00
#rwgt            1           1   3.3036217369030889E-002           7      368148           0
</event>
<event>
      5   9999  3.79277E-02  1.88350E+02 -1.00000E+00  1.12605E-01
      21    -1     0     0   511   501  0.000000000E+00  0.000000000E+00  2.985798515E+03  2.985798515E+03  0.000000000E+00  0.00000E+00  9.000E+00
      21    -1     0     0   501   502  0.000000000E+00  0.000000000E+00 -5.902923259E+01  5.902923259E+01  0.000000000E+00  0.00000E+00  9.000E+00
      25     1     1     2     0     0 -6.739596188E+01 -1.759380523E+02  8.395902047E+02  8.695016536E+02  1.250000000E+02  0.00000E+00  9.000E+00
      25     1     1     2     0     0  2.336550596E+02  8.742942763E+01  4.653709471E+02  5.426174620E+02  1.250000000E+02  0.00000E+00  9.000E+00
      21     1     1     2   511   502 -1.662590977E+02  8.850862466E+01  1.621808131E+03  1.632708632E+03  3.051757812E-05  0.00000E+00  9.000E+00
#rwgt            1           1   3.4486356084970075E-002           7      368354           0
</event>
<event>
      5   9999  3.79277E-02  9.04433E+01 -1.00000E+00  1.25822E-01
      21    -1     0     0   502   512  0.000000000E+00  0.000000000E+00  3.973846010E+02  3.973846010E+02  0.000000000E+00  0.00000E+00  9.000E+00
      21    -1     0     0   501   502  0.000000000E+00  0.000000000E+00 -1.641912552E+02  1.641912552E+02  0.000000000E+00  0.00000E+00  9.000E+00
      25     1     1     2     0     0 -8.721980977E+00  5.793176588E+01 -8.040553211E+01  1.597567277E+02  1.250000000E+02  0.00000E+00  9.000E+00
      25     1     1     2     0     0 -6.527369291E+01 -5.925780647E+00  2.622431702E+02  2.978124413E+02  1.250000000E+02  0.00000E+00  9.000E+00
      21     1     1     2   501   512  7.399567388E+01 -5.200598523E+01  5.135570770E+01  1.040066871E+02  1.168007728E-06  0.00000E+00  9.000E+00
#rwgt            1           1   4.6793684770126062E-002           7      368412           0
</event>
<event>
      5   9999  3.79277E-02  1.63729E+01 -1.00000E+00  1.73874E-01
      21    -1     0     0   502   511  0.000000000E+00  0.000000000E+00  5.070938099E+02  5.070938099E+02  0.000000000E+00  0.00000E+00  9.000E+00
      21    -1     0     0   501   502  0.000000000E+00  0.000000000E+00 -9.462646887E+02  9.462646887E+02  0.000000000E+00  0.00000E+00  9.000E+00
      25     1     1     2     0     0  2.548347434E+02  4.985784962E+02 -5.872855090E+02  8.210058053E+02  1.250000000E+02  0.00000E+00  9.000E+00
      25     1     1     2     0     0 -2.572635514E+02 -5.147702622E+02  1.217987904E+02  6.013592130E+02  1.250000000E+02  0.00000E+00  9.000E+00
      21     1     1     2   501   511  2.428807982E+00  1.619176599E+01  2.631583983E+01  3.099348029E+01  0.000000000E+00  0.00000E+00  9.000E+00
#rwgt            1           1  0.10175956978928466                7      368481           0
</event>
<event>
      5   9999  3.79277E-02  9.66661E+01 -1.00000E+00  1.24494E-01
      21    -1     0     0   502   501  0.000000000E+00  0.000000000E+00  1.069334431E+03  1.069334431E+03  0.000000000E+00  0.00000E+00  9.000E+00
      -3    -1     0     0     0   502  0.000000000E+00  0.000000000E+00 -6.149334970E+01  6.149334970E+01  0.000000000E+00  0.00000E+00  9.000E+00
      25     1     1     2     0     0 -5.585321343E+01  2.304470111E+01  1.634004029E+02  2.144185892E+02  1.250000000E+02  0.00000E+00  9.000E+00
      25     1     1     2     0     0  1.484009228E+02 -5.095974014E+01  7.662586285E+02  7.920839695E+02  1.250000000E+02  0.00000E+00  9.000E+00
      -3     1     1     2     0   501 -9.254770940E+01  2.791503903E+01  7.818204994E+01  1.243252221E+02  2.132480600E-06  0.00000E+00  9.000E+00
#rwgt            1           1   3.8934155665277109E-002           7      368738           0
</event>
<event>
      5   9999  3.79277E-02  1.33451E+01 -1.00000E+00  1.82304E-01
      21    -1     0     0   502   511  0.000000000E+00  0.000000000E+00  1.006690614E+02  1.006690614E+02  0.000000000E+00  0.00000E+00  9.000E+00
      21    -1     0     0   501   502  0.000000000E+00  0.000000000E+00 -4.550221059E+02  4.550221059E+02  0.000000000E+00  0.00000E+00  9.000E+00
      25     1     1     2     0     0  6.183711052E+01  1.381459716E+02 -1.472500541E+02  2.453889080E+02  1.250000000E+02  0.00000E+00  9.000E+00
      25     1     1     2     0     0 -5.996614502E+01 -1.249326860E+02 -2.221846918E+02  2.901640085E+02  1.250000000E+02  0.00000E+00  9.000E+00
      21     1     1     2   501   511 -1.870965505E+00 -1.321328553E+01  1.508170146E+01  2.013825080E+01  3.371747881E-07  0.00000E+00  9.000E+00
#rwgt            1           1   4.1066314539660587E-002           7      368956           0
</event>
<event>
      5   9999  3.79277E-02  1.60652E+01 -1.00000E+00  1.74622E-01
      21    -1     0     0   502   501  0.000000000E+00  0.000000000E+00  5.740313583E+02  5.740313583E+02  0.000000000E+00  0.00000E+00  9.000E+00
      21    -1     0     0   501   512  0.000000000E+00  0.000000000E+00 -3.587101271E+02  3.587101271E+02  0.000000000E+00  0.00000E+00  9.000E+00
      25     1     1     2     0     0  1.378763487E+01 -1.759381575E+02  3.054086716E+02  3.742242521E+02  1.250000000E+02  0.00000E+00  9.000E+00
      25     1     1     2     0     0 -8.246886745E+00  1.608586451E+02  1.895705920E+02  2.783981397E+02  1.250000000E+02  0.00000E+00  9.000E+00
      21     1     1     2   502   512 -5.540748125E+00  1.507951243E+01 -2.796580323E+02  2.801190937E+02  3.814697266E-06  0.00000E+00  9.000E+00
#rwgt            1           1   3.9053712110860471E-002           7      369200           0
</event>
<event>
      5   9999  3.79277E-02  5.37217E+01 -1.00000E+00  1.37320E-01
      21    -1     0     0   502   501  0.000000000E+00  0.000000000E+00  5.340082194E+01  5.340082194E+01  0.000000000E+00  0.00000E+00  9.000E+00
      21    -1     0     0   511   502  0.000000000E+00  0.000000000E+00 -2.087704270E+03  2.087704270E+03  0.000000000E+00  0.00000E+00  9.000E+00
      25     1     1     2     0     0 -6.324038032E+01 -1.129291855E+02 -2.608959618E+02  3.169290923E+02  1.250000000E+02  0.00000E+00  9.000E+00
      25     1     1     2     0     0  9.523151959E+00  1.122375058E+02 -2.592685494E+02  3.090843393E+02  1.250000000E+02  0.00000E+00  9.000E+00
      21     1     1     2   511   501  5.371722836E+01  6.916797788E-01 -1.514138937E+03  1.515091661E+03  2.157918644E-05  0.00000E+00  9.000E+00
#rwgt            1           1   2.7963102872443683E-002           7      369525           0
</event>
<event>
      5   9999  3.79277E-02  1.67972E+01 -1.00000E+00  1.72875E-01
      21    -1     0     0   502   501  0.000000000E+00  0.000000000E+00  2.284690669E+02  2.284690669E+02  0.000000000E+00  0.00000E+00  9.000E+00
      21    -1     0     0   501   512  0.000000000E+00  0.000000000E+00 -2.441472210E+02  2.441472210E+02  0.000000000E+00  0.00000E+00  9.000E+00
      25     1     1     2     0     0  3.325104505E+01 -4.593185240E+01 -8.517832728E+01  1.615416804E+02  1.250000000E+02  0.00000E+00  9.000E+00
      25     1     1     2     0     0 -1.878733458E+01  5.447277045E+01  1.645641116E+02  2.145380933E+02  1.250000000E+02  0.00000E+00  9.000E+00
      21     1     1     2   502   512 -1.446371047E+01 -8.540918050E+00 -9.506393835E+01  9.653651421E+01  1.907348633E-06  0.00000E+00  9.000E+00
#rwgt            1           1   4.7728095306517344E-002           7      369563           0
</event>
<event>
      5   9999  3.79277E-02  2.39819E+01 -1.00000E+00  1.60115E-01
      21    -1     0     0   502   501  0.000000000E+00  0.000000000E+00  3.284043392E+02  3.284043392E+02  0.000000000E+00  0.00000E+00  9.000E+00
      21    -1     0     0   511   502  0.000000000E+00  0.000000000E+00 -2.871863102E+02  2.871863102E+02  0.000000000E+00  0.00000E+00  9.000E+00
      25     1     1     2     0     0 -7.177295750E+01 -4.486431074E+01  2.769267276E+02  3.154006599E+02  1.250000000E+02  0.00000E+00  9.000E+00
      25     1     1     2     0     0  6.925787859E+01  6.871393610E+01 -1.820994875E+02  2.414611399E+02  1.250000000E+02  0.00000E+00  9.000E+00
      21     1     1     2   511   501  2.515078909E+00 -2.384962535E+01 -5.360921110E+01  5.872884952E+01  0.000000000E+00  0.00000E+00  9.000E+00
#rwgt            1           1   2.5534430560091269E-002           7      369900           0
</event>
<event>
      5   9999  3.79277E-02  4.28063E+01 -1.00000E+00  1.43037E-01
      21    -1     0     0   502   501  0.000000000E+00  0.000000000E+00  2.145696466E+02  2.145696466E+02  0.000000000E+00  0.00000E+00  9.000E+00
      21    -1     0     0   501   512  0.000000000E+00  0.000000000E+00 -5.975004625E+02  5.975004625E+02  0.000000000E+00  0.00000E+00  9.000E+00
      25     1     1     2     0     0 -1.900726856E+02  2.597868905E+00  2.861402647E+01  2.292992308E+02  1.250000000E+02  0.00000E+00  9.000E+00
      25     1     1     2     0     0  2.225997356E+02  2.522966856E+01 -1.115577562E+02  2.797450830E+02  1.250000000E+02  0.00000E+00  9.000E+00
      21     1     1     2   502   512 -3.252705005E+01 -2.782753746E+01 -2.999870862E+02  3.030257954E+02  6.607249480E-06  0.00000E+00  9.000E+00
#rwgt            1           1   2.5070269221741784E-002           7      369978           0
</event>
<event>
      5   9999  3.79277E-02  7.80000E+01 -1.00000E+00  1.28884E-01
       2    -1     0     0   502     0  0.000000000E+00  0.000000000E+00  9.434299072E+02  9.434299072E+02  0.000000000E+00  0.00000E+00  9.000E+00
      21    -1     0     0   501   502  0.000000000E+00  0.000000000E+00 -9.992972337E+01  9.992972337E+01  0.000000000E+00  0.00000E+00  9.000E+00
      25     1     1     2     0     0  5.077401133E+01  2.008860738E+01  4.573580299E+02  4.772660892E+02  1.250000000E+02  0.00000E+00  9.000E+00
      25     1     1     2     0     0 -1.180902565E+02 -5.949075503E+01  1.030916360E+01  1.822518517E+02  1.250000000E+02  0.00000E+00  9.000E+00
       2     1     1     2   501     0  6.731624513E+01  3.940214765E+01  3.758329903E+02  3.838416896E+02  7.629394531E-06  0.00000E+00  9.000E+00
#rwgt            1           1   4.7632944803781906E-002           7      370145           0
</event>
<event>
      5   9999  3.79277E-02  1.54125E+01 -1.00000E+00  1.76281E-01
      21    -1     0     0   502   501  0.000000000E+00  0.000000000E+00  3.479439012E+02  3.479439012E+02  0.000000000E+00  0.00000E+00  9.000E+00
      21    -1     0     0   501   511  0.000000000E+00  0.000000000E+00 -1.512099744E+02  1.512099744E+02  0.000000000E+00  0.00000E+00  9.000E+00
      25     1     1     2     0     0 -8.848629532E+01 -1.053858964E+02  2.304455814E+02  2.960847474E+02  1.250000000E+02  0.00000E+00  9.000E+00
      25     1     1     2     0     0  9.779982740E+01  9.310567856E+01 -2.599848826E+01  1.858343214E+02  1.250000000E+02  0.00000E+00  9.000E+00
      21     1     1     2   502   511 -9.313532081E+00  1.228021783E+01 -7.713166366E+00  1.723480679E+01  2.064765462E-07  0.00000E+00  9.000E+00
#rwgt            1           1   3.8393125696631815E-002           7      370288           0
</event>
<event>
      5   9999  3.79277E-02  4.49094E+01 -1.00000E+00  1.41790E-01
       1    -1     0     0   502     0  0.000000000E+00  0.000000000E+00  1.365740653E+03  1.365740653E+03  0.000000000E+00  0.00000E+00  9.000E+00
      21    -1     0     0   501   502  0.000000000E+00  0.000000000E+00 -1.241797276E+02  1.241797276E+02  0.000000000E+00  0.00000E+00  9.000E+00
      25     1     1     2     0     0 -3.090602552E+01 -9.503351452E+01  1.505261216E+02  2.197035835E+02  1.250000000E+02  0.00000E+00  9.000E+00
      25     1     1     2     0     0  7.190863195E+01  1.133538922E+02  5.247006064E+00  1.835006466E+02  1.250000000E+02  0.00000E+00  9.000E+00
       1     1     1     2   501     0 -4.100260643E+01 -1.832037769E+01  1.085787798E+03  1.086716150E+03  1.525878906E-05  0.00000E+00  9.000E+00
#rwgt            1           1   3.8191289609096776E-002           7      370590           0
</event>
<event>
      5   9999 -3.81918E-02  1.33819E+01 -1.00000E+00  1.82185E-01
      21    -1     0     0   502   501  0.000000000E+00  0.000000000E+00  1.249867399E+02  1.249867399E+02  0.000000000E+00  0.00000E+00  9.000E+00
      21    -1     0     0   501   511  0.000000000E+00  0.000000000E+00 -7.877992560E+02  7.877992560E+02  0.000000000E+00  0.00000E+00  9.000E+00
      25     1     1     2     0     0  7.793887361E+01 -1.783395464E+02 -4.555693712E+01  2.357538894E+02  1.250000000E+02  0.00000E+00  9.000E+00
      25     1     1     2     0     0 -6.679980468E+01  1.857554624E+02 -4.306788619E+02  4.899761094E+02  1.250000000E+02  0.00000E+00  9.000E+00
      21     1     1     2   502   511 -1.113906893E+01 -7.415915931E+00 -1.865767172E+02  1.870559971E+02  2.697398305E-06  0.00000E+00  9.000E+00
#rwgt            1           1 -0.37704221878031918                7      370755           0
</event>
<event>
      5   9999  3.79277E-02  1.67894E+01 -1.00000E+00  1.72894E-01
      21    -1     0     0   502   501  0.000000000E+00  0.000000000E+00  1.257348142E+03  1.257348142E+03  0.000000000E+00  0.00000E+00  9.000E+00
      21    -1     0     0   501   512  0.000000000E+00  0.000000000E+00 -2.313379804E+01  2.313379804E+01  0.000000000E+00  0.00000E+00  9.000E+00
      25     1     1     2     0     0  8.071037520E+01 -1.939260238E+01  5.944412005E+02  6.130869258E+02  1.250000000E+02  0.00000E+00  9.000E+00
      25     1     1     2     0     0 -9.703446510E+01  1.546746861E+01  6.253971277E+02  6.452917924E+02  1.250000000E+02  0.00000E+00  9.000E+00
      21     1     1     2   502   512  1.632408990E+01  3.925133772E+00  1.437601566E+01  2.210322176E+01  5.057621821E-07  0.00000E+00  9.000E+00
#rwgt            1           1   3.9855380588621869E-002           7      371053           0
</event>
<event>
      5   9999  3.79277E-02  6.62334E+01 -1.00000E+00  1.32449E-01
      21    -1     0     0   511   501  0.000000000E+00  0.000000000E+00  2.065396260E+02  2.065396260E+02  0.000000000E+00  0.00000E+00  9.000E+00
      21    -1     0     0   501   502  0.000000000E+00  0.000000000E+00 -8.475725984E+02  8.475725984E+02  0.000000000E+00  0.00000E+00  9.000E+00
      25     1     1     2     0     0  9.058297881E+01 -1.262809934E+01 -7.828512883E+02  7.980262430E+02  1.250000000E+02  0.00000E+00  9.000E+00
      25     1     1     2     0     0 -6.152028168E+01 -4.688851239E+01  9.755398760E+01  1.764229524E+02  1.250000000E+02  0.00000E+00  9.000E+00
      21     1     1     2   511   502 -2.906269713E+01  5.951661173E+01  4.426432818E+01  7.966302897E+01  1.261592536E-06  0.00000E+00  9.000E+00
#rwgt            1           1   4.3453684632578531E-002           7      371206           0
</event>
<event>
      5   9999 -3.79277E-02  2.28941E+01 -1.00000E+00  1.61668E-01
      21    -1     0     0   512   501  0.000000000E+00  0.000000000E+00  3.292585916E+02  3.292585916E+02  0.000000000E+00  0.00000E+00  9.000E+00
      21    -1     0     0   501   502  0.000000000E+00  0.000000000E+00 -9.230718566E+02  9.230718566E+02  0.000000000E+00  0.00000E+00  9.000E+00
      25     1     1     2     0     0 -1.993665673E+02 -8.992202872E+01 -6.333109829E+02  6.815723003E+02  1.250000000E+02  0.00000E+00  9.000E+00
      25     1     1     2     0     0  2.004506922E+02  1.127904603E+02 -2.004579200E+02  3.297128230E+02  1.250000000E+02  0.00000E+00  9.000E+00
      21     1     1     2   512   502 -1.084124966E+00 -2.286843157E+01  2.399556379E+02  2.410453249E+02  2.697398305E-06  0.00000E+00  9.000E+00
#rwgt            1           1 -0.22850907086249220                7      371291           0
</event>
<event>
      5   9999  3.79277E-02  7.98427E+00 -1.00000E+00  2.07782E-01
      21    -1     0     0   511   501  0.000000000E+00  0.000000000E+00  8.299406103E+02  8.299406103E+02  0.000000000E+00  0.00000E+00  9.000E+00
      21    -1     0     0   501   502  0.000000000E+00  0.000000000E+00 -7.323998551E+01  7.323998551E+01  0.000000000E+00  0.00000E+00  9.000E+00
      25     1     1     2     0     0 -7.112728143E+01  1.153683921E+02  5.514401993E+02  5.814466867E+02  1.250000000E+02  0.00000E+00  9.000E+00
      25     1     1     2     0     0  6.318986632E+01 -1.145046416E+02  8.270823267E+01  1.989219040E+02  1.250000000E+02  0.00000E+00  9.000E+00
      21     1     1     2   511   502  7.937415112E+00 -8.637505099E-01  1.225521928E+02  1.228120050E+02  1.348699152E-06  0.00000E+00  9.000E+00
#rwgt            1           1   4.9627449667607321E-002           7      371533           0
</event>
<event>
      5   9999  3.79277E-02  3.56143E+01 -1.00000E+00  1.48039E-01
      21    -1     0     0   502   501  0.000000000E+00  0.000000000E+00  1.133307173E+02  1.133307173E+02  0.000000000E+00  0.00000E+00  9.000E+00
      -2    -1     0     0     0   502  0.000000000E+00  0.000000000E+00 -1.013556411E+03  1.013556411E+03  0.000000000E+00  0.00000E+00  9.000E+00
      25     1     1     2     0     0 -1.480230151E+01  2.398131367E+02 -6.049508936E+02  6.628122150E+02  1.250000000E+02  0.00000E+00  9.000E+00
      25     1     1     2     0     0  1.062877412E+01 -2.044442074E+02 -9.072788436E+01  2.564506849E+02  1.250000000E+02  0.00000E+00  9.000E+00
      -2     1     1     2     0   501  4.173527387E+00 -3.536892933E+01 -2.045469158E+02  2.076242285E+02  3.814697266E-06  0.00000E+00  9.000E+00
#rwgt            1           1   3.5125537701384574E-002           7      371882           0
</event>
<event>
      5   9999  3.79277E-02  1.20266E+02 -1.00000E+00  1.20328E-01
      21    -1     0     0   502   501  0.000000000E+00  0.000000000E+00  2.783912793E+02  2.783912793E+02  0.000000000E+00  0.00000E+00  9.000E+00
      21    -1     0     0   511   502  0.000000000E+00  0.000000000E+00 -3.523137448E+02  3.523137448E+02  0.000000000E+00  0.00000E+00  9.000E+00
      25     1     1     2     0     0 -2.813501927E+01 -1.937738030E+02  1.090687711E+02  2.566337135E+02  1.250000000E+02  0.00000E+00  9.000E+00
      25     1     1     2     0     0  3.713700582E+01  7.384563291E+01  6.091939084E+00  1.499814869E+02  1.250000000E+02  0.00000E+00  9.000E+00
      21     1     1     2   511   501 -9.001986549E+00  1.199281701E+02 -1.890831757E+02  2.240898237E+02  2.697398305E-06  0.00000E+00  9.000E+00
#rwgt            1           1   4.0274795430086524E-002           7      372019           0
</event>
<event>
      5   9999  3.79277E-02  1.74884E+02 -1.00000E+00  1.13812E-01
      21    -1     0     0   502   501  0.000000000E+00  0.000000000E+00  7.057674805E+02  7.057674805E+02  0.000000000E+00  0.00000E+00  9.000E+00
       1    -1     0     0   501     0  0.000000000E+00  0.000000000E+00 -6.420808285E+02  6.420808285E+02  0.000000000E+00  0.00000E+00  9.000E+00
      25     1     1     2     0     0 -9.548741894E+01  5.039325983E+01 -7.583993427E+01  1.817526436E+02  1.250000000E+02  0.00000E+00  9.000E+00
      25     1     1     2     0     0  4.327954427E+01 -2.173022741E+02  6.117453032E+02  6.625335563E+02  1.250000000E+02  0.00000E+00  9.000E+00
       1     1     1     2   502     0  5.220787467E+01  1.669090142E+02 -4.722187169E+02  5.035621092E+02  5.394796609E-06  0.00000E+00  9.000E+00
#rwgt            1           1   1.6795732664131764E-002           7      372088           0
</event>
<event>
      5   9999  3.79277E-02  1.55017E+01 -1.00000E+00  1.76048E-01
      21    -1     0     0   502   501  0.000000000E+00  0.000000000E+00  1.622599964E+03  1.622599964E+03  0.000000000E+00  0.00000E+00  9.000E+00
      21    -1     0     0   501   511  0.000000000E+00  0.000000000E+00 -2.799173413E+01  2.799173413E+01  0.000000000E+00  0.00000E+00  9.000E+00
      25     1     1     2     0     0  1.385130594E+02 -9.024496198E+00  1.061298815E+03  1.077611936E+03  1.250000000E+02  0.00000E+00  9.000E+00
      25     1     1     2     0     0 -1.392839869E+02 -6.457998659E+00  5.194968279E+02  5.522170669E+02  1.250000000E+02  0.00000E+00  9.000E+00
      21     1     1     2   502   511  7.709274981E-01  1.548249486E+01  1.381258750E+01  2.076269611E+01  7.539457465E-07  0.00000E+00  9.000E+00
#rwgt            1           1   4.3000522766040730E-002           7      372155           0
</event>
<event>
      5   9999  3.79277E-02  5.64760E+01 -1.00000E+00  1.36123E-01
      21    -1     0     0   502   501  0.000000000E+00  0.000000000E+00  7.418287514E+01  7.418287514E+01  0.000000000E+00  0.00000E+00  9.000E+00
       4    -1     0     0   501     0  0.000000000E+00  0.000000000E+00 -7.122503385E+02  7.122503385E+02  0.000000000E+00  0.00000E+00  9.000E+00
      25     1     1     2     0     0 -8.720550849E+01 -7.438845606E+01 -1.103760819E+02  2.023519769E+02  1.250000000E+02  0.00000E+00  9.000E+00
      25     1     1     2     0     0  6.473306823E+01  1.262008793E+02 -3.523025114E+02  3.998238257E+02  1.250000000E+02  0.00000E+00  9.000E+00
       4     1     1     2   502     0  2.247244025E+01 -5.181242322E+01 -1.753888701E+02  1.842574110E+02  1.907348633E-06  0.00000E+00  9.000E+00
#rwgt            1           1   4.2522886139154267E-002           7      372413           0
</event>
<event>
      5   9999  3.79277E-02  2.47942E+01 -1.00000E+00  1.59020E-01
      21    -1     0     0   502   511  0.000000000E+00  0.000000000E+00  1.096327248E+02  1.096327248E+02  0.000000000E+00  0.00000E+00  9.000E+00
      21    -1     0     0   501   502  0.000000000E+00  0.000000000E+00 -4.626289597E+02  4.626289597E+02  0.000000000E+00  0.00000E+00  9.000E+00
      25     1     1     2     0     0  1.434387097E+02 -9.619581325E+01 -1.364016206E+02  2.530982024E+02  1.250000000E+02  0.00000E+00  9.000E+00
      25     1     1     2     0     0 -1.188262578E+02  9.919204066E+01 -2.169517132E+02  2.943667548E+02  1.250000000E+02  0.00000E+00  9.000E+00
      21     1     1     2   501   511 -2.461245188E+01 -2.996227412E+00  3.570988864E-01  2.479672732E+01  2.385349660E-07  0.00000E+00  9.000E+00
#rwgt            1           1   4.2987063562646859E-002           7      372525           0
</event>
<event>
      5   9999  3.79277E-02  1.40985E+01 -1.00000E+00  1.79958E-01
      21    -1     0     0   502   512  0.000000000E+00  0.000000000E+00  2.417369594E+02  2.417369594E+02  0.000000000E+00  0.00000E+00  9.000E+00
      21    -1     0     0   501   502  0.000000000E+00  0.000000000E+00 -2.622776236E+02  2.622776236E+02  0.000000000E+00  0.00000E+00  9.000E+00
      25     1     1     2     0     0 -8.128159699E+01 -1.670611659E+02  5.323971730E+01  2.301642863E+02  1.250000000E+02  0.00000E+00  9.000E+00
      25     1     1     2     0     0  6.868289399E+01  1.607335076E+02 -1.053138757E+02  2.393086141E+02  1.250000000E+02  0.00000E+00  9.000E+00
      21     1     1     2   501   512  1.259870300E+01  6.327658345E+00  3.153349426E+01  3.454168261E+01  3.371747881E-07  0.00000E+00  9.000E+00
#rwgt            1           1   4.2760928490750305E-002           7      372686           0
</event>
<event>
      5   9999  3.79277E-02  2.15327E+02 -1.00000E+00  1.10493E-01
      21    -1     0     0   502   501  0.000000000E+00  0.000000000E+00  1.941197787E+03  1.941197787E+03  0.000000000E+00  0.00000E+00  9.000E+00
      21    -1     0     0   501   511  0.000000000E+00  0.000000000E+00 -6.396228313E+01  6.396228313E+01  0.000000000E+00  0.00000E+00  9.000E+00
      25     1     1     2     0     0 -3.131573966E+01 -1.493365954E+02  1.346414157E+03  1.360785867E+03  1.250000000E+02  0.00000E+00  9.000E+00
      25     1     1     2     0     0 -6.973152299E+01 -4.080870942E+01  1.922638731E+02  2.431424129E+02  1.250000000E+02  0.00000E+00  9.000E+00
      21     1     1     2   502   511  1.010472626E+02  1.901453049E+02  3.385574739E+02  4.012317901E+02  5.394796609E-06  0.00000E+00  9.000E+00
#rwgt            1           1   4.9567800444365422E-002           7      372875           0
</event>
<event>
      5   9999  3.79277E-02  2.72739E+01 -1.00000E+00  1.55970E-01
      21    -1     0     0   502   501  0.000000000E+00  0.000000000E+00  1.433472502E+02  1.433472502E+02  0.000000000E+00  0.00000E+00  9.000E+00
      21    -1     0     0   512   502  0.000000000E+00  0.000000000E+00 -1.803500702E+03  1.803500702E+03  0.000000000E+00  0.00000E+00  9.000E+00
      25     1     1     2     0     0 -5.005436246E-01  6.396011140E+01  9.399293434E+01  1.689698733E+02  1.250000000E+02  0.00000E+00  9.000E+00
      25     1     1     2     0     0  2.730772954E+01 -6.898396664E+01 -4.388179721E+02  4.622669276E+02  1.250000000E+02  0.00000E+00  9.000E+00
      21     1     1     2   512   501 -2.680718592E+01  5.023855242E+00 -1.315328414E+03  1.315611151E+03  2.157918644E-05  0.00000E+00  9.000E+00
#rwgt            1           1   3.6128541415866647E-002           7      373114           0
</event>
<event>
      5   9999  3.79277E-02  6.55602E+01 -1.00000E+00  1.32678E-01
      21    -1     0     0   502   501  0.000000000E+00  0.000000000E+00  1.001049012E+02  1.001049012E+02  0.000000000E+00  0.00000E+00  9.000E+00
      21    -1     0     0   511   502  0.000000000E+00  0.000000000E+00 -4.220353598E+02  4.220353598E+02  0.000000000E+00  0.00000E+00  9.000E+00
      25     1     1     2     0     0 -1.308612463E+02 -2.789607579E+01 -1.000741596E+02  2.086688627E+02  1.250000000E+02  0.00000E+00  9.000E+00
      25     1     1     2     0     0  7.250812129E+01  5.778003029E+01 -1.630318010E+02  2.253892803E+02  1.250000000E+02  0.00000E+00  9.000E+00
      21     1     1     2   511   501  5.835312504E+01 -2.988395450E+01 -5.882449804E+01  8.808211798E+01  1.651812370E-06  0.00000E+00  9.000E+00
#rwgt            1           1   2.4075754302933156E-002           7      373341           0
</event>
<event>
      5   9999  3.79277E-02  3.69890E+01 -1.00000E+00  1.46980E-01
      21    -1     0     0   502   512  0.000000000E+00  0.000000000E+00  3.404724551E+02  3.404724551E+02  0.000000000E+00  0.00000E+00  9.000E+00
      21    -1     0     0   501   502  0.000000000E+00  0.000000000E+00 -3.228178864E+02  3.228178864E+02  0.000000000E+00  0.00000E+00  9.000E+00
      25     1     1     2     0     0 -3.665132616E+01 -1.275053816E+02  5.102695008E+01  1.892873257E+02  1.250000000E+02  0.00000E+00  9.000E+00
      25     1     1     2     0     0  3.690664328E+00  1.107189753E+02 -2.242264567E+02  2.795975972E+02  1.250000000E+02  0.00000E+00  9.000E+00
      21     1     1     2   501   512  3.296066183E+01  1.678640629E+01  1.908540754E+02  1.944054186E+02  0.000000000E+00  0.00000E+00  9.000E+00
#rwgt            1           1   3.9998814368739304E-002           7      373589           0
</event>
<event>
      5   9999  3.79277E-02  1.00046E+01 -1.00000E+00  1.95734E-01
      21    -1     0     0   502   511  0.000000000E+00  0.000000000E+00  1.061759730E+02  1.061759730E+02  0.000000000E+00  0.00000E+00  9.000E+00
      21    -1     0     0   501   502  0.000000000E+00  0.000000000E+00 -4.520599306E+02  4.520599306E+02  0.000000000E+00  0.00000E+00  9.000E+00
      25     1     1     2     0     0  3.427396306E+01 -1.026774125E+02 -4.729796335E+01  1.719867812E+02  1.250000000E+02  0.00000E+00  9.000E+00
      25     1     1     2     0     0 -2.443036590E+01  1.044649314E+02 -3.215014124E+02  3.612449624E+02  1.250000000E+02  0.00000E+00  9.000E+00
      21     1     1     2   501   511 -9.843597157E+00 -1.787518986E+00  2.291541811E+01  2.500415998E+01  0.000000000E+00  0.00000E+00  9.000E+00
#rwgt            1           1   4.1658899508901996E-002           7      373665           0
</event>
<event>
      5   9999  3.79277E-02  9.31604E+00 -1.00000E+00  1.99383E-01
      21    -1     0     0   502   501  0.000000000E+00  0.000000000E+00  1.166325235E+02  1.166325235E+02  0.000000000E+00  0.00000E+00  9.000E+00
      21    -1     0     0   501   512  0.000000000E+00  0.000000000E+00 -5.469840002E+02  5.469840002E+02  0.000000000E+00  0.00000E+00  9.000E+00
      25     1     1     2     0     0 -1.018528590E+02 -6.488547784E+01  2.415969118E+01  1.754788329E+02  1.250000000E+02  0.00000E+00  9.000E+00
      25     1     1     2     0     0  9.803406835E+01  5.638809900E+01 -4.349052792E+02  4.664310218E+02  1.250000000E+02  0.00000E+00  9.000E+00
      21     1     1     2   502   512  3.818790651E+00  8.497378837E+00 -1.960588863E+01  2.170666898E+01  4.129530925E-07  0.00000E+00  9.000E+00
#rwgt            1           1   4.5142293718564090E-002           7      373908           0
</event>
<event>
      5   9999  3.79277E-02  2.36536E+01 -1.00000E+00  1.60573E-01
      21    -1     0     0   502   501  0.000000000E+00  0.000000000E+00  3.494128933E+01  3.494128933E+01  0.000000000E+00  0.00000E+00  9.000E+00
      21    -1     0     0   501   511  0.000000000E+00  0.000000000E+00 -1.366056729E+03  1.366056729E+03  0.000000000E+00  0.00000E+00  9.000E+00
      25     1     1     2     0     0  9.534891837E+01  9.153290420E+01 -3.553620980E+02  3.992203771E+02  1.250000000E+02  0.00000E+00  9.000E+00
      25     1     1     2     0     0 -1.112708087E+02 -1.090253502E+02 -8.057171391E+02  8.301041067E+02  1.250000000E+02  0.00000E+00  9.000E+00
      21     1     1     2   502   511  1.592189034E+01  1.749244596E+01 -1.700362030E+02  1.716735349E+02  3.303624740E-06  0.00000E+00  9.000E+00
#rwgt            1           1   1.8759630924423985E-002           7      374272           0
</event>
<event>
      5   9999  3.79277E-02  3.38848E+01 -1.00000E+00  1.49455E-01
      21    -1     0     0   512   501  0.000000000E+00  0.000000000E+00  2.824043168E+01  2.824043168E+01  0.000000000E+00  0.00000E+00  9.000E+00
      21    -1     0     0   501   502  0.000000000E+00  0.000000000E+00 -1.828621420E+03  1.828621420E+03  0.000000000E+00  0.00000E+00  9.000E+00
      25     1     1     2     0     0 -2.378659917E+01  1.269801426E+02 -3.956249106E+02  4.345501453E+02  1.250000000E+02  0.00000E+00  9.000E+00
      25     1     1     2     0     0 -9.069424158E+00 -1.186941224E+02 -1.316609839E+03  1.327876883E+03  1.250000000E+02  0.00000E+00  9.000E+00
      21     1     1     2   512   502  3.285602333E+01 -8.286020180E+00 -8.814623880E+01  9.443482310E+01  1.348699152E-06  0.00000E+00  9.000E+00
#rwgt            1           1   3.3474599763822575E-002           7      374617           0
</event>
<event>
      5   9999  3.79277E-02  5.61668E+01 -1.00000E+00  1.36254E-01
      21    -1     0     0   502   511  0.000000000E+00  0.000000000E+00  5.454027226E+02  5.454027226E+02  0.000000000E+00  0.00000E+00  9.000E+00
      21    -1     0     0   501   502  0.000000000E+00  0.000000000E+00 -8.969395334E+01  8.969395334E+01  0.000000000E+00  0.00000E+00  9.000E+00
      25     1     1     2     0     0 -1.044266258E+02 -3.573061982E+01  2.963732570E+02  3.400642657E+02  1.250000000E+02  0.00000E+00  9.000E+00
      25     1     1     2     0     0  1.356322198E+02 -1.096974698E+01  8.919864613E+01  2.051775642E+02  1.250000000E+02  0.00000E+00  9.000E+00
      21     1     1     2   501   511 -3.120559399E+01  4.670036680E+01  7.013686615E+01  8.985484600E+01  9.536743164E-07  0.00000E+00  9.000E+00
#rwgt            1           1  0.20584927021776503                7      374991           0
</event>
<event>
      5   9999  3.79277E-02  1.18820E+02 -1.00000E+00  1.20551E-01
      21    -1     0     0   502   501  0.000000000E+00  0.000000000E+00  7.128228343E+02  7.128228343E+02  0.000000000E+00  0.00000E+00  9.000E+00
      21    -1     0     0   512   502  0.000000000E+00  0.000000000E+00 -1.766607826E+02  1.766607826E+02  0.000000000E+00  0.00000E+00  9.000E+00
      25     1     1     2     0     0  1.772734130E+02 -1.242870194E+02  4.729986921E+02  5.350008307E+02  1.250000000E+02  0.00000E+00  9.000E+00
      25     1     1     2     0     0 -6.187051933E+01  1.525757279E+02  1.006109489E+02  2.299018855E+02  1.250000000E+02  0.00000E+00  9.000E+00
      21     1     1     2   512   501 -1.154028936E+02 -2.828870847E+01 -3.744758925E+01  1.245809007E+02  2.861022949E-06  0.00000E+00  9.000E+00
#rwgt            1           1   3.4981450214284102E-002           7      375085           0
</event>
<event>
      5   9999  3.79277E-02  2.39919E+01 -1.00000E+00  1.60102E-01
      21    -1     0     0   502   511  0.000000000E+00  0.000000000E+00  1.637686853E+02  1.637686853E+02  0.000000000E+00  0.00000E+00  9.000E+00
      21    -1     0     0   501   502  0.000000000E+00  0.000000000E+00 -3.420702613E+02  3.420702613E+02  0.000000000E+00  0.00000E+00  9.000E+00
      25     1     1     2     0     0 -1.345036500E+01 -2.599569016E+01 -2.859781389E+02  3.134727805E+02  1.250000000E+02  0.00000E+00  9.000E+00
      25     1     1     2     0     0 -4.595204095E+00  4.180606579E+01  1.042875071E+02  1.681360972E+02  1.250000000E+02  0.00000E+00  9.000E+00
      21     1     1     2   501   511  1.804556909E+01 -1.581037563E+01  3.389055703E+00  2.423006892E+01  3.291774099E-07  0.00000E+00  9.000E+00
#rwgt            1           1   6.2566780888509664E-003           7      375139           0
</event>
<event>
      5   9999  3.79277E-02  2.08028E+02 -1.00000E+00  1.11029E-01
      21    -1     0     0   502   501  0.000000000E+00  0.000000000E+00  9.853822971E+02  9.853822971E+02  0.000000000E+00  0.00000E+00  9.000E+00
      21    -1     0     0   501   512  0.000000000E+00  0.000000000E+00 -4.222902635E+02  4.222902635E+02  0.000000000E+00  0.00000E+00  9.000E+00
      25     1     1     2     0     0  4.723674673E+01 -3.524641557E+02  4.652756327E+02  5.988060668E+02  1.250000000E+02  0.00000E+00  9.000E+00
      25     1     1     2     0     0 -2.538415410E+02  3.281723035E+02  2.934289467E+02  5.233145665E+02  1.250000000E+02  0.00000E+00  9.000E+00
      21     1     1     2   502   512  2.066047943E+02  2.429185222E+01 -1.956125458E+02  2.855519273E+02  0.000000000E+00  0.00000E+00  9.000E+00
#rwgt            2          11   2.9731044002180235E-003           7      375278           0
</event>
<event>
      5   9999  3.79277E-02  7.67111E+01 -1.00000E+00  1.29238E-01
      21    -1     0     0   502   501  0.000000000E+00  0.000000000E+00  2.136157375E+02  2.136157375E+02  0.000000000E+00  0.00000E+00  9.000E+00
      -4    -1     0     0     0   502  0.000000000E+00  0.000000000E+00 -4.186399256E+02  4.186399256E+02  0.000000000E+00  0.00000E+00  9.000E+00
      25     1     1     2     0     0  9.027692325E+01  1.451378498E+02  1.043616468E+02  2.360747163E+02  1.250000000E+02  0.00000E+00  9.000E+00
      25     1     1     2     0     0 -3.975897621E+01 -8.740979619E+01 -1.424261525E+02  2.124416569E+02  1.250000000E+02  0.00000E+00  9.000E+00
      -4     1     1     2     0   501 -5.051794704E+01 -5.772805364E+01 -1.669596824E+02  1.837392900E+02  1.907348633E-06  0.00000E+00  9.000E+00
#rwgt            1           1   4.0765987232223980E-002           7      375478           0
</event>
<event>
      5   9999  3.79277E-02  5.44495E+00 -1.00000E+00  2.32225E-01
      21    -1     0     0   502   511  0.000000000E+00  0.000000000E+00  3.189718394E+02  3.189718394E+02  0.000000000E+00  0.00000E+00  9.000E+00
      21    -1     0     0   501   502  0.000000000E+00  0.000000000E+00 -2.254705885E+02  2.254705885E+02  0.000000000E+00  0.00000E+00  9.000E+00
      25     1     1     2     0     0 -1.923308618E+02  3.953849296E+01  6.801037318E+01  2.424971416E+02  1.250000000E+02  0.00000E+00  9.000E+00
      25     1     1     2     0     0  1.956919308E+02 -4.382225921E+01 -3.702789256E+01  2.391898556E+02  1.250000000E+02  0.00000E+00  9.000E+00
      21     1     1     2   501   511 -3.361068997E+00  4.283766253E+00  6.251877034E+01  6.275543071E+01  6.743495762E-07  0.00000E+00  9.000E+00
#rwgt            1           1   3.5688408316767131E-002           7      375551           0
</event>
<event>
      5   9999  3.79277E-02  1.72729E+02 -1.00000E+00  1.14016E-01
      21    -1     0     0   512   501  0.000000000E+00  0.000000000E+00  5.951952009E+02  5.951952009E+02  0.000000000E+00  0.00000E+00  9.000E+00
      21    -1     0     0   501   502  0.000000000E+00  0.000000000E+00 -7.794461377E+02  7.794461377E+02  0.000000000E+00  0.00000E+00  9.000E+00
      25     1     1     2     0     0 -1.013925431E+00 -1.579994342E+02 -1.123372480E+02  2.306718590E+02  1.250000000E+02  0.00000E+00  9.000E+00
      25     1     1     2     0     0  1.375839806E+02  5.224466034E+01 -5.779043354E+02  6.093088520E+02  1.250000000E+02  0.00000E+00  9.000E+00
      21     1     1     2   512   502 -1.365700552E+02  1.057547739E+02  5.059906467E+02  5.346606276E+02  7.629394531E-06  0.00000E+00  9.000E+00
#rwgt            1           1   4.8417315216711623E-002           7      375972           0
</event>
<event>
      5   9999  3.79277E-02  1.04432E+02 -1.00000E+00  1.22987E-01
      21    -1     0     0   511   501  0.000000000E+00  0.000000000E+00  4.604194701E+02  4.604194701E+02  0.000000000E+00  0.00000E+00  9.000E+00
      21    -1     0     0   501   502  0.000000000E+00  0.000000000E+00 -1.318320587E+02  1.318320587E+02  0.000000000E+00  0.00000E+00  9.000E+00
      25     1     1     2     0     0 -7.312848491E+01 -7.521724060E+01  1.506785563E+02  2.221135654E+02  1.250000000E+02  0.00000E+00  9.000E+00
      25     1     1     2     0     0 -2.352481429E+01  3.566862313E+01 -3.179161708E+01  1.358726407E+02  1.250000000E+02  0.00000E+00  9.000E+00
      21     1     1     2   511   502  9.665329920E+01  3.954861747E+01  2.097004722E+02  2.342653227E+02  0.000000000E+00  0.00000E+00  9.000E+00
#rwgt            1           1   3.9526382417806857E-002           7      376030           0
</event>
<event>
      5   9999 -3.79277E-02  5.33431E+01 -1.00000E+00  1.37491E-01
      21    -1     0     0   502   501  0.000000000E+00  0.000000000E+00  1.698048591E+02  1.698048591E+02  0.000000000E+00  0.00000E+00  9.000E+00
       2    -1     0     0   501     0  0.000000000E+00  0.000000000E+00 -8.539231693E+02  8.539231693E+02  0.000000000E+00  0.00000E+00  9.000E+00
      25     1     1     2     0     0  1.157130224E+02  2.840893900E+02 -2.359801149E+02  4.067037001E+02  1.250000000E+02  0.00000E+00  9.000E+00
      25     1     1     2     0     0 -6.852437993E+01 -3.089634392E+02 -2.800951849E+02  4.407179484E+02  1.250000000E+02  0.00000E+00  9.000E+00
       2     1     1     2   502     0 -4.718864246E+01  2.487404920E+01 -1.680430103E+02  1.763063800E+02  0.000000000E+00  0.00000E+00  9.000E+00
#rwgt            1           1  -5.0754177676822124E-002           7      376156           0
</event>
<event>
      5   9999  3.79277E-02  7.40870E+01 -1.00000E+00  1.29985E-01
      21    -1     0     0   502   511  0.000000000E+00  0.000000000E+00  2.547643145E+02  2.547643145E+02  0.000000000E+00  0.00000E+00  9.000E+00
      21    -1     0     0   501   502  0.000000000E+00  0.000000000E+00 -3.991108361E+02  3.991108361E+02  0.000000000E+00  0.00000E+00  9.000E+00
      25     1     1     2     0     0 -1.501818427E+02  1.043432349E+02 -2.705568756E+02  3.496685852E+02  1.250000000E+02  0.00000E+00  9.000E+00
      25     1     1     2     0     0  1.012347554E+02 -4.872787524E+01  1.255900487E+01  1.685396396E+02  1.250000000E+02  0.00000E+00  9.000E+00
      21     1     1     2   501   511  4.894708733E+01 -5.561535963E+01  1.136513491E+02  1.356669257E+02  1.348699152E-06  0.00000E+00  9.000E+00
#rwgt            2          11   1.2943871991674563E-003           7      376234           0
</event>
<event>
      5   9999  3.79277E-02  5.17363E+01 -1.00000E+00  1.38235E-01
      21    -1     0     0   502   501  0.000000000E+00  0.000000000E+00  1.024795730E+02  1.024795730E+02  0.000000000E+00  0.00000E+00  9.000E+00
      21    -1     0     0   512   502  0.000000000E+00  0.000000000E+00 -5.656123155E+02  5.656123155E+02  0.000000000E+00  0.00000E+00  9.000E+00
      25     1     1     2     0     0  5.384630846E+01  6.279895933E+01  9.556875569E+00  1.501980962E+02  1.250000000E+02  0.00000E+00  9.000E+00
      25     1     1     2     0     0 -8.495647161E+01 -2.146124397E+01 -2.862704195E+02  3.244286365E+02  1.250000000E+02  0.00000E+00  9.000E+00
      21     1     1     2   512   501  3.111016315E+01 -4.133771535E+01 -1.864191985E+02  1.934651559E+02  0.000000000E+00  0.00000E+00  9.000E+00
#rwgt            1           1   3.2955334646940414E-002           7      376254           0
</event>
<event>
      5   9999  3.79277E-02  1.52717E+02 -1.00000E+00  1.16086E-01
      21    -1     0     0   502   511  0.000000000E+00  0.000000000E+00  9.416044608E+02  9.416044608E+02  0.000000000E+00  0.00000E+00  9.000E+00
      21    -1     0     0   501   502  0.000000000E+00  0.000000000E+00 -9.695074591E+02  9.695074591E+02  0.000000000E+00  0.00000E+00  9.000E+00
      25     1     1     2     0     0  1.268907970E+02 -4.234277137E+02 -5.857102758E+02  7.443613573E+02  1.250000000E+02  0.00000E+00  9.000E+00
      25     1     1     2     0     0  2.328031194E+01  3.956611597E+02 -1.506257471E+02  4.420439366E+02  1.250000000E+02  0.00000E+00  9.000E+00
      21     1     1     2   501   511 -1.501711089E+02  2.776655400E+01  7.084330245E+02  7.247066260E+02  1.078959322E-05  0.00000E+00  9.000E+00
#rwgt            1           1   5.6976644910557844E-002           7      376400           0
</event>
<event>
      5   9999  3.79277E-02  1.70495E+02 -1.00000E+00  1.14231E-01
      21    -1     0     0   502   501  0.000000000E+00  0.000000000E+00  2.789096353E+02  2.789096353E+02  0.000000000E+00  0.00000E+00  9.000E+00
      21    -1     0     0   501   512  0.000000000E+00  0.000000000E+00 -4.077834747E+02  4.077834747E+02  0.000000000E+00  0.00000E+00  9.000E+00
      25     1     1     2     0     0 -1.596845479E+02 -8.274838662E+01  1.374501121E+02  2.585807101E+02  1.250000000E+02  0.00000E+00  9.000E+00
      25     1     1     2     0     0  8.103087621E+01 -6.851950889E+01 -1.165030323E+02  2.011439349E+02  1.250000000E+02  0.00000E+00  9.000E+00
      21     1     1     2   502   512  7.865367167E+01  1.512678955E+02 -1.498209192E+02  2.269684650E+02  1.907348633E-06  0.00000E+00  9.000E+00
#rwgt            1           1   4.5988482379441725E-002           7      376506           0
</event>
<event>
      5   9999  3.79277E-02  4.42896E+01 -1.00000E+00  1.42149E-01
      21    -1     0     0   511   501  0.000000000E+00  0.000000000E+00  7.593874616E+01  7.593874616E+01  0.000000000E+00  0.00000E+00  9.000E+00
      21    -1     0     0   501   502  0.000000000E+00  0.000000000E+00 -7.803699980E+02  7.803699980E+02  0.000000000E+00  0.00000E+00  9.000E+00
      25     1     1     2     0     0  1.054616668E+02 -1.023739031E+02 -2.682131229E+02  3.304025704E+02  1.250000000E+02  0.00000E+00  9.000E+00
      25     1     1     2     0     0 -1.160642743E+02  1.453756524E+02 -4.245971015E+02  4.801173760E+02  1.250000000E+02  0.00000E+00  9.000E+00
      21     1     1     2   511   502  1.060260754E+01 -4.300174929E+01 -1.162102742E+01  4.578879783E+01  1.039242493E-06  0.00000E+00  9.000E+00
#rwgt            1           1   4.1486978511828997E-002           7      376589           0
</event>
<event>
      5   9999  3.79277E-02  1.76100E+02 -1.00000E+00  1.13698E-01
      21    -1     0     0   502   512  0.000000000E+00  0.000000000E+00  3.529126669E+02  3.529126669E+02  0.000000000E+00  0.00000E+00  9.000E+00
      21    -1     0     0   501   502  0.000000000E+00  0.000000000E+00 -3.157307323E+02  3.157307323E+02  0.000000000E+00  0.00000E+00  9.000E+00
      25     1     1     2     0     0 -4.893036187E+01 -5.020819186E+01  6.734797599E+01  1.583533792E+02  1.250000000E+02  0.00000E+00  9.000E+00
      25     1     1     2     0     0  1.971453276E+02  1.453063496E+02 -1.339781189E+02  3.058681935E+02  1.250000000E+02  0.00000E+00  9.000E+00
      21     1     1     2   501   512 -1.482149657E+02 -9.509815777E+01  1.038120775E+02  2.044218264E+02  1.348699152E-06  0.00000E+00  9.000E+00
#rwgt            2          11   1.9192408911934548E-003           7      376743           0
</event>
<event>
      5   9999  3.79277E-02  9.29445E+00 -1.00000E+00  1.99504E-01
      21    -1     0     0   502   501  0.000000000E+00  0.000000000E+00  2.113518081E+02  2.113518081E+02  0.000000000E+00  0.00000E+00  9.000E+00
      21    -1     0     0   511   502  0.000000000E+00  0.000000000E+00 -2.707143514E+02  2.707143514E+02  0.000000000E+00  0.00000E+00  9.000E+00
      25     1     1     2     0     0 -5.482437688E+01  5.775346048E+01  1.469162372E+02  2.086876979E+02  1.250000000E+02  0.00000E+00  9.000E+00
      25     1     1     2     0     0  5.528267155E+01 -6.703660636E+01 -1.411878207E+02  2.076272648E+02  1.250000000E+02  0.00000E+00  9.000E+00
      21     1     1     2   511   501 -4.582946740E-01  9.283145871E+00 -6.509095978E+01  6.575119676E+01  0.000000000E+00  0.00000E+00  9.000E+00
#rwgt            1           1   3.3183314661845230E-002           7      376763           0
</event>
<event>
      5   9999  3.79277E-02  4.75433E+01 -1.00000E+00  1.40336E-01
      21    -1     0     0   502   501  0.000000000E+00  0.000000000E+00  1.319406010E+02  1.319406010E+02  0.000000000E+00  0.00000E+00  9.000E+00
      -4    -1     0     0     0   502  0.000000000E+00  0.000000000E+00 -6.464831621E+02  6.464831621E+02  0.000000000E+00  0.00000E+00  9.000E+00
      25     1     1     2     0     0 -6.596639041E+01  1.569466113E+02 -3.683442776E+02  4.246013545E+02  1.250000000E+02  0.00000E+00  9.000E+00
      25     1     1     2     0     0  3.784508523E+01 -1.186118611E+02  2.313987777E+01  1.779367247E+02  1.250000000E+02  0.00000E+00  9.000E+00
      -4     1     1     2     0   501  2.812130519E+01 -3.833475021E+01 -1.693381613E+02  1.758856838E+02  1.907348633E-06  0.00000E+00  9.000E+00
#rwgt            1           1   4.6981171261596608E-002           7      377124           0
</event>
<event>
      5   9999  3.79277E-02  1.42572E+01 -1.00000E+00  1.79487E-01
      21    -1     0     0   502   501  0.000000000E+00  0.000000000E+00  4.204598054E+02  4.204598054E+02  0.000000000E+00  0.00000E+00  9.000E+00
      21    -1     0     0   501   511  0.000000000E+00  0.000000000E+00 -1.730559450E+02  1.730559450E+02  0.000000000E+00  0.00000E+00  9.000E+00
      25     1     1     2     0     0  3.449549038E+01 -8.100591932E+01 -1.100438942E+02  1.883787580E+02  1.250000000E+02  0.00000E+00  9.000E+00
      25     1     1     2     0     0 -2.071085499E+01  8.464626032E+01  3.597543364E+02  3.906943965E+02  1.250000000E+02  0.00000E+00  9.000E+00
      21     1     1     2   502   511 -1.378463539E+01 -3.640341001E+00 -2.306581731E+00  1.444259585E+01  2.457562462E-07  0.00000E+00  9.000E+00
#rwgt            1           1   4.2708837369907091E-002           7      377216           0
</event>
<event>
      5   9999  3.79277E-02  6.35186E+00 -1.00000E+00  2.21696E-01
      21    -1     0     0   502   501  0.000000000E+00  0.000000000E+00  9.781607046E+01  9.781607046E+01  0.000000000E+00  0.00000E+00  9.000E+00
      21    -1     0     0   512   502  0.000000000E+00  0.000000000E+00 -2.661999377E+02  2.661999377E+02  0.000000000E+00  0.00000E+00  9.000E+00
      25     1     1     2     0     0 -8.584736373E+01  3.035197764E+01 -9.734499970E+01  1.827349484E+02  1.250000000E+02  0.00000E+00  9.000E+00
      25     1     1     2     0     0  9.179777939E+01 -2.812966248E+01 -6.020786479E+01  1.687249158E+02  1.250000000E+02  0.00000E+00  9.000E+00
      21     1     1     2   512   501 -5.950415666E+00 -2.222315157E+00 -1.083100271E+01  1.255614396E+01  2.064765462E-07  0.00000E+00  9.000E+00
#rwgt            1           1   2.9825285835899711E-002           7      377406           0
</event>
<event>
      5   9999  3.79277E-02  6.70545E+01 -1.00000E+00  1.32173E-01
      21    -1     0     0   502   511  0.000000000E+00  0.000000000E+00  7.096630468E+02  7.096630468E+02  0.000000000E+00  0.00000E+00  9.000E+00
      21    -1     0     0   501   502  0.000000000E+00  0.000000000E+00 -3.261980255E+02  3.261980255E+02  0.000000000E+00  0.00000E+00  9.000E+00
      25     1     1     2     0     0  9.969726366E+01 -1.368655263E+02  8.151007177E+01  2.257002624E+02  1.250000000E+02  0.00000E+00  9.000E+00
      25     1     1     2     0     0 -1.451991084E+02  8.761220298E+01 -2.078599175E+02  2.959551056E+02  1.250000000E+02  0.00000E+00  9.000E+00
      21     1     1     2   501   511  4.550184473E+01  4.925332328E+01  5.098148670E+02  5.142057043E+02  0.000000000E+00  0.00000E+00  9.000E+00
#rwgt            1           1   3.3581663555496223E-002           7      377850           0
</event>
<event>
      5   9999  3.79277E-02  6.09224E+01 -1.00000E+00  1.34350E-01
      21    -1     0     0   502   501  0.000000000E+00  0.000000000E+00  3.536263994E+02  3.536263994E+02  0.000000000E+00  0.00000E+00  9.000E+00
      21    -1     0     0   501   512  0.000000000E+00  0.000000000E+00 -1.514028364E+02  1.514028364E+02  0.000000000E+00  0.00000E+00  9.000E+00
      25     1     1     2     0     0  1.014153876E+02  4.019493088E+01  1.670717873E+02  2.354542321E+02  1.250000000E+02  0.00000E+00  9.000E+00
      25     1     1     2     0     0 -1.287037245E+02 -9.466400719E+01  4.519469094E+01  2.078304190E+02  1.250000000E+02  0.00000E+00  9.000E+00
      21     1     1     2   502   512  2.728833691E+01  5.446907631E+01 -1.004291515E+01  6.174458479E+01  4.915124924E-07  0.00000E+00  9.000E+00
#rwgt            1           1   4.8617891566865003E-002           7      377957           0
</event>
<event>
      5   9999  3.79277E-02  3.84095E+01 -1.00000E+00  1.45942E-01
      21    -1     0     0   511   501  0.000000000E+00  0.000000000E+00  4.941670933E+02  4.941670933E+02  0.000000000E+00  0.00000E+00  9.000E+00
      21    -1     0     0   501   502  0.000000000E+00  0.000000000E+00 -2.390727237E+02  2.390727237E+02  0.000000000E+00  0.00000E+00  9.000E+00
      25     1     1     2     0     0 -5.091876615E+01 -1.331339785E+02 -4.628875885E+00  1.896412494E+02  1.250000000E+02  0.00000E+00  9.000E+00
      25     1     1     2     0     0  8.914417585E+01  1.293776176E+02 -6.925708633E+01  2.123836058E+02  1.250000000E+02  0.00000E+00  9.000E+00
      21     1     1     2   511   502 -3.822540970E+01  3.756360958E+00  3.289803318E+02  3.312149618E+02  3.814697266E-06  0.00000E+00  9.000E+00
#rwgt            1           1   3.2390315270247251E-002           7      378076           0
</event>
<event>
      5   9999  3.79277E-02  1.75765E+01 -1.00000E+00  1.71135E-01
      21    -1     0     0   502   501  0.000000000E+00  0.000000000E+00  4.591575863E+01  4.591575863E+01  0.000000000E+00  0.00000E+00  9.000E+00
      21    -1     0     0   501   512  0.000000000E+00  0.000000000E+00 -1.821812237E+03  1.821812237E+03  0.000000000E+00  0.00000E+00  9.000E+00
      25     1     1     2     0     0  1.771738935E+02  2.391637184E+01 -4.571536057E+02  5.065343034E+02  1.250000000E+02  0.00000E+00  9.000E+00
      25     1     1     2     0     0 -1.760421662E+02 -6.376300258E+00 -5.309582910E+02  5.732130566E+02  1.250000000E+02  0.00000E+00  9.000E+00
      21     1     1     2   502   512 -1.131727320E+00 -1.754007158E+01 -7.877845813E+02  7.879806352E+02  1.078959322E-05  0.00000E+00  9.000E+00
#rwgt            1           1   3.6780185715518977E-002           7      378165           0
</event>
<event>
      5   9999  3.79277E-02  1.65331E+01 -1.00000E+00  1.73493E-01
      21    -1     0     0   502   511  0.000000000E+00  0.000000000E+00  1.128813026E+03  1.128813026E+03  0.000000000E+00  0.00000E+00  9.000E+00
      21    -1     0     0   501   502  0.000000000E+00  0.000000000E+00 -4.834103789E+01  4.834103789E+01  0.000000000E+00  0.00000E+00  9.000E+00
      25     1     1     2     0     0 -1.822916582E+02 -3.864991354E+00  3.623275954E+02  4.244425441E+02  1.250000000E+02  0.00000E+00  9.000E+00
      25     1     1     2     0     0  1.669862185E+02  1.011691909E+01  6.714768715E+02  7.032019185E+02  1.250000000E+02  0.00000E+00  9.000E+00
      21     1     1     2   501   511  1.530543976E+01 -6.251927734E+00  4.666752100E+01  4.950960112E+01  9.536743164E-07  0.00000E+00  9.000E+00
#rwgt            1           1   3.6618485843534970E-002           7      378295           0
</event>
<event>
      5   9999  3.79277E-02  5.09789E+01 -1.00000E+00  1.38597E-01
      21    -1     0     0   502   501  0.000000000E+00  0.000000000E+00  3.174778113E+01  3.174778113E+01  0.000000000E+00  0.00000E+00  9.000E+00
      -3    -1     0     0     0   502  0.000000000E+00  0.000000000E+00 -1.431275360E+03  1.431275360E+03  0.000000000E+00  0.00000E+00  9.000E+00
      25     1     1     2     0     0  3.637387855E+01 -6.838432616E+01 -2.075683774E+02  2.543798467E+02  1.250000000E+02  0.00000E+00  9.000E+00
      25     1     1     2     0     0 -5.320874435E+01  2.026530953E+01 -6.536764590E+02  6.679519191E+02  1.250000000E+02  0.00000E+00  9.000E+00
      -3     1     1     2     0   501  1.683486581E+01  4.811901663E+01 -5.382827424E+02  5.406913752E+02  1.078959322E-05  0.00000E+00  9.000E+00
#rwgt            1           1   4.5524235678137001E-002           7      378516           0
</event>
<event>
      5   9999  3.79277E-02  7.99264E+00 -1.00000E+00  2.07723E-01
      21    -1     0     0   502   511  0.000000000E+00  0.000000000E+00  5.909336443E+01  5.909336443E+01  0.000000000E+00  0.00000E+00  9.000E+00
      21    -1     0     0   501   502  0.000000000E+00  0.000000000E+00 -8.089498771E+02  8.089498771E+02  0.000000000E+00  0.00000E+00  9.000E+00
      25     1     1     2     0     0 -3.443709316E+00 -8.772899400E+01 -6.645617681E+02  6.818911783E+02  1.250000000E+02  0.00000E+00  9.000E+00
      25     1     1     2     0     0  1.095102250E+01  9.047172245E+01 -7.197402440E+01  1.706174600E+02  1.250000000E+02  0.00000E+00  9.000E+00
      21     1     1     2   501   511 -7.507313180E+00 -2.742728451E+00 -1.332072024E+01  1.553460325E+01  1.685873940E-07  0.00000E+00  9.000E+00
#rwgt            1           1   3.1400621379907470E-002           7      378705           0
</event>
<event>
      5   9999  3.79277E-02  1.03168E+02 -1.00000E+00  1.23222E-01
      21    -1     0     0   512   501  0.000000000E+00  0.000000000E+00  2.293745422E+02  2.293745422E+02  0.000000000E+00  0.00000E+00  9.000E+00
      21    -1     0     0   501   502  0.000000000E+00  0.000000000E+00 -4.804516458E+02  4.804516458E+02  0.000000000E+00  0.00000E+00  9.000E+00
      25     1     1     2     0     0 -4.150861282E+01  1.320100890E+02 -3.888741256E+02  4.312745229E+02  1.250000000E+02  0.00000E+00  9.000E+00
      25     1     1     2     0     0  1.419504991E+01 -3.252373926E+01  1.135738637E+02  1.725784331E+02  1.250000000E+02  0.00000E+00  9.000E+00
      21     1     1     2   512   502  2.731356290E+01 -9.948634977E+01  2.422315832E+01  1.059732320E+02  1.066240300E-06  0.00000E+00  9.000E+00
#rwgt            1           1   3.8486890415824308E-002           7      379027           0
</event>
<event>
      5   9999  3.79277E-02  1.19648E+02 -1.00000E+00  1.20422E-01
      21    -1     0     0   502   501  0.000000000E+00  0.000000000E+00  3.141991466E+02  3.141991466E+02  0.000000000E+00  0.00000E+00  9.000E+00
       2    -1     0     0   501     0  0.000000000E+00  0.000000000E+00 -2.147784900E+03  2.147784900E+03  0.000000000E+00  0.00000E+00  9.000E+00
      25     1     1     2     0     0  6.716432215E+01 -6.447090515E+01  2.451251978E+02  2.904804751E+02  1.250000000E+02  0.00000E+00  9.000E+00
      25     1     1     2     0     0 -1.491038518E+02 -2.271662768E+01 -1.709491939E+02  2.599935205E+02  1.250000000E+02  0.00000E+00  9.000E+00
       2     1     1     2   502     0  8.193952967E+01  8.718753283E+01 -1.907761757E+03  1.911510051E+03  2.157918644E-05  0.00000E+00  9.000E+00
#rwgt            1           1   3.9511413824028369E-002           7      379191           0
</event>
<event>
      5   9999  3.79277E-02  1.86050E+01 -1.00000E+00  1.69002E-01
      21    -1     0     0   502   501  0.000000000E+00  0.000000000E+00  2.316581911E+02  2.316581911E+02  0.000000000E+00  0.00000E+00  9.000E+00
      21    -1     0     0   511   502  0.000000000E+00  0.000000000E+00 -4.223132404E+02  4.223132404E+02  0.000000000E+00  0.00000E+00  9.000E+00
      25     1     1     2     0     0  2.288760674E+02 -6.943688819E+01 -7.582800748E+01  2.803223544E+02  1.250000000E+02  0.00000E+00  9.000E+00
      25     1     1     2     0     0 -2.225729918E+02  8.694165251E+01 -1.283770126E+01  2.699766549E+02  1.250000000E+02  0.00000E+00  9.000E+00
      21     1     1     2   511   501 -6.303075557E+00 -1.750476432E+01 -1.019893405E+02  1.036724221E+02  1.348699152E-06  0.00000E+00  9.000E+00
#rwgt            1           1   9.9923040360805418E-002           7      379247           0
</event>
<event>
      5   9999  3.79277E-02  5.38309E+01 -1.00000E+00  1.37271E-01
      21    -1     0     0   512   501  0.000000000E+00  0.000000000E+00  5.666999020E+02  5.666999020E+02  0.000000000E+00  0.00000E+00  9.000E+00
      21    -1     0     0   501   502  0.000000000E+00  0.000000000E+00 -2.652982595E+02  2.652982595E+02  0.000000000E+00  0.00000E+00  9.000E+00
      25     1     1     2     0     0 -3.110413410E+02  9.021789337E+00  1.222642902E+02  3.569336986E+02  1.250000000E+02  0.00000E+00  9.000E+00
      25     1     1     2     0     0  3.530374555E+02 -4.269815267E+01  1.211219991E+02  3.959218558E+02  1.250000000E+02  0.00000E+00  9.000E+00
      21     1     1     2   512   502 -4.199611443E+01  3.367636333E+01  5.801535309E+01  7.914260717E+01  9.536743164E-07  0.00000E+00  9.000E+00
#rwgt            1           1   3.3080098795690537E-002           7      379524           0
</event>
<event>
      5   9999  3.79277E-02  1.02988E+01 -1.00000E+00  1.94291E-01
      21    -1     0     0   502   501  0.000000000E+00  0.000000000E+00  4.926173642E+01  4.926173642E+01  0.000000000E+00  0.00000E+00  9.000E+00
      21    -1     0     0   501   511  0.000000000E+00  0.000000000E+00 -1.179166250E+03  1.179166250E+03  0.000000000E+00  0.00000E+00  9.000E+00
      25     1     1     2     0     0  9.532781278E+01 -2.439090727E+01 -1.672874359E+02  2.308514554E+02  1.250000000E+02  0.00000E+00  9.000E+00
      25     1     1     2     0     0 -9.365201839E+01  1.422937813E+01 -3.352252549E+02  3.701001855E+02  1.250000000E+02  0.00000E+00  9.000E+00
      21     1     1     2   502   511 -1.675794387E+00  1.016152913E+01 -6.273918228E+02  6.274763456E+02  1.321449896E-05  0.00000E+00  9.000E+00
#rwgt            1           1   4.4443315707906272E-002           7      379643           0
</event>
<event>
      5   9999  3.79277E-02  7.39681E+01 -1.00000E+00  1.30019E-01
      21    -1     0     0   502   501  0.000000000E+00  0.000000000E+00  2.143695926E+02  2.143695926E+02  0.000000000E+00  0.00000E+00  9.000E+00
      21    -1     0     0   512   502  0.000000000E+00  0.000000000E+00 -5.469342103E+02  5.469342103E+02  0.000000000E+00  0.00000E+00  9.000E+00
      25     1     1     2     0     0 -6.325447487E+01 -1.025056048E+01  1.590734498E+02  2.122158454E+02  1.250000000E+02  0.00000E+00  9.000E+00
      25     1     1     2     0     0  6.774817105E+01 -6.358089135E+01 -2.343982807E+02  2.814247651E+02  1.250000000E+02  0.00000E+00  9.000E+00
      21     1     1     2   512   501 -4.493696173E+00  7.383145183E+01 -2.572397869E+02  2.676631924E+02  0.000000000E+00  0.00000E+00  9.000E+00
#rwgt            1           1   3.9217515795642928E-002           7      379839           0
</event>
<event>
      5   9999  3.79277E-02  7.24961E+01 -1.00000E+00  1.30455E-01
      21    -1     0     0   511   501  0.000000000E+00  0.000000000E+00  5.905039789E+02  5.905039789E+02  0.000000000E+00  0.00000E+00  9.000E+00
      21    -1     0     0   501   502  0.000000000E+00  0.000000000E+00 -1.858967454E+02  1.858967454E+02  0.000000000E+00  0.00000E+00  9.000E+00
      25     1     1     2     0     0 -3.445164635E+01 -8.700766134E+01  1.101976590E+02  1.911171712E+02  1.250000000E+02  0.00000E+00  9.000E+00
      25     1     1     2     0     0  1.059156958E+02  9.919666766E+01 -7.732304250E+01  2.065477339E+02  1.250000000E+02  0.00000E+00  9.000E+00
      21     1     1     2   511   502 -7.146404945E+01 -1.218900632E+01  3.717326170E+02  3.787358192E+02  5.394796609E-06  0.00000E+00  9.000E+00
#rwgt            1           1   2.4428987602657267E-002           7      380068           0
</event>
<event>
      5   9999  3.79277E-02  5.64925E+01 -1.00000E+00  1.36116E-01
      21    -1     0     0   502   501  0.000000000E+00  0.000000000E+00  9.302509790E+02  9.302509790E+02  0.000000000E+00  0.00000E+00  9.000E+00
      21    -1     0     0   501   512  0.000000000E+00  0.000000000E+00 -6.010061224E+01  6.010061224E+01  0.000000000E+00  0.00000E+00  9.000E+00
      25     1     1     2     0     0 -1.597166417E+02 -7.164497043E+01  3.980366212E+02  4.524384591E+02  1.250000000E+02  0.00000E+00  9.000E+00
      25     1     1     2     0     0  1.157875675E+02  1.071645855E+02  3.712815446E+02  4.223339846E+02  1.250000000E+02  0.00000E+00  9.000E+00
      21     1     1     2   502   512  4.392907418E+01 -3.551961505E+01  1.008322009E+02  1.155791475E+02  1.907348633E-06  0.00000E+00  9.000E+00
#rwgt            1           1   3.6416763013610506E-002           7      380110           0
</event>
<event>
      5   9999  3.79277E-02  9.98025E+00 -1.00000E+00  1.95856E-01
      21    -1     0     0   511   501  0.000000000E+00  0.000000000E+00  1.094231368E+03  1.094231368E+03  0.000000000E+00  0.00000E+00  9.000E+00
      21    -1     0     0   501   502  0.000000000E+00  0.000000000E+00 -5.879676627E+01  5.879676627E+01  0.000000000E+00  0.00000E+00  9.000E+00
      25     1     1     2     0     0 -1.914625617E+02  5.600976036E+01  4.772355390E+02  5.321407384E+02  1.250000000E+02  0.00000E+00  9.000E+00
      25     1     1     2     0     0  1.994562466E+02 -5.003428208E+01  4.337154515E+02  4.960043514E+02  1.250000000E+02  0.00000E+00  9.000E+00
      21     1     1     2   511   502 -7.993684841E+00 -5.975478281E+00  1.244836113E+02  1.248830445E+02  2.336015456E-06  0.00000E+00  9.000E+00
#rwgt            1           1   3.9671875078916452E-002           7      380335           0
</event>
<event>
      5   9999  3.79277E-02  1.53029E+02 -1.00000E+00  1.16051E-01
       2    -1     0     0   502     0  0.000000000E+00  0.000000000E+00  2.590228380E+03  2.590228380E+03  0.000000000E+00  0.00000E+00  9.000E+00
      21    -1     0     0   501   502  0.000000000E+00  0.000000000E+00 -3.081495776E+01  3.081495776E+01  0.000000000E+00  0.00000E+00  9.000E+00
      25     1     1     2     0     0  1.739230267E+01  1.588172094E+01  2.393582143E+02  2.710573297E+02  1.250000000E+02  0.00000E+00  9.000E+00
      25     1     1     2     0     0 -1.526588762E+02 -8.744154663E+01  1.162928562E+03  1.182784257E+03  1.250000000E+02  0.00000E+00  9.000E+00
       2     1     1     2   501     0  1.352665735E+02  7.155982569E+01  1.157126645E+03  1.167201751E+03  2.157918644E-05  0.00000E+00  9.000E+00
#rwgt            1           1   5.6557831517951102E-002           7      380601           0
</event>
<event>
      5   9999  3.79277E-02  2.04633E+01 -1.00000E+00  1.65553E-01
      21    -1     0     0   502   501  0.000000000E+00  0.000000000E+00  8.398766461E+02  8.398766461E+02  0.000000000E+00  0.00000E+00  9.000E+00
      21    -1     0     0   511   502  0.000000000E+00  0.000000000E+00 -3.781010986E+01  3.781010986E+01  0.000000000E+00  0.00000E+00  9.000E+00
      25     1     1     2     0     0  4.656018738E+01 -6.877151049E+01  2.222199478E+02  2.681493556E+02  1.250000000E+02  0.00000E+00  9.000E+00
      25     1     1     2     0     0 -4.979028549E+01  8.897822855E+01  5.512914993E+02  5.744070985E+02  1.250000000E+02  0.00000E+00  9.000E+00
      21     1     1     2   511   501  3.230098102E+00 -2.020671805E+01  2.855508913E+01  3.513030178E+01  4.768371582E-07  0.00000E+00  9.000E+00
#rwgt            1           1   3.3929422554885215E-002           7      380653           0
</event>
<event>
      5   9999  3.79277E-02  3.37458E+01 -1.00000E+00  1.49573E-01
      21    -1     0     0   502   501  0.000000000E+00  0.000000000E+00  2.510539975E+03  2.510539975E+03  0.000000000E+00  0.00000E+00  9.000E+00
      21    -1     0     0   512   502  0.000000000E+00  0.000000000E+00 -1.309758765E+02  1.309758765E+02  0.000000000E+00  0.00000E+00  9.000E+00
      25     1     1     2     0     0  5.550665244E+01  5.341074875E+01  4.189781254E+02  4.439609961E+02  1.250000000E+02  0.00000E+00  9.000E+00
      25     1     1     2     0     0 -3.582016372E+01 -2.600238811E+01  2.074506984E+03  2.078740829E+03  1.250000000E+02  0.00000E+00  9.000E+00
      21     1     1     2   512   501 -1.968648872E+01 -2.740836064E+01 -1.139210109E+02  1.188140261E+02  2.336015456E-06  0.00000E+00  9.000E+00
#rwgt            1           1   5.7156424361398159E-002           7      380771           0
</event>
<event>
      5   9999  3.79277E-02  5.47725E+00 -1.00000E+00  2.31801E-01
      21    -1     0     0   502   501  0.000000000E+00  0.000000000E+00  2.488219719E+01  2.488219719E+01  0.000000000E+00  0.00000E+00  9.000E+00
      21    -1     0     0   501   511  0.000000000E+00  0.000000000E+00 -1.423210841E+03  1.423210841E+03  0.000000000E+00  0.00000E+00  9.000E+00
      25     1     1     2     0     0  3.397921639E+01 -9.376243287E+01 -9.952979486E+02  1.008061996E+03  1.250000000E+02  0.00000E+00  9.000E+00
      25     1     1     2     0     0 -3.192513393E+01  9.883992864E+01 -3.408963707E+02  3.776557708E+02  1.250000000E+02  0.00000E+00  9.000E+00
      21     1     1     2   502   511 -2.054082462E+00 -5.077495760E+00 -6.213432468E+01  6.237527172E+01  9.536743164E-07  0.00000E+00  9.000E+00
#rwgt            1           1   4.2798130953139848E-002           7      380892           0
</event>
<event>
      5   9999  3.79277E-02  4.36144E+01 -1.00000E+00  1.42548E-01
      21    -1     0     0   502   501  0.000000000E+00  0.000000000E+00  1.254168629E+03  1.254168629E+03  0.000000000E+00  0.00000E+00  9.000E+00
      21    -1     0     0   512   502  0.000000000E+00  0.000000000E+00 -2.079580979E+02  2.079580979E+02  0.000000000E+00  0.00000E+00  9.000E+00
      25     1     1     2     0     0 -1.840030406E+02  2.134133580E+02 -1.250622009E+01  3.085186961E+02  1.250000000E+02  0.00000E+00  9.000E+00
      25     1     1     2     0     0  2.263320436E+02 -2.029028759E+02  1.060193216E+03  1.109968660E+03  1.250000000E+02  0.00000E+00  9.000E+00
      21     1     1     2   512   501 -4.232900306E+01 -1.051048207E+01 -1.476464828E+00  4.363937077E+01  9.173598273E-07  0.00000E+00  9.000E+00
#rwgt            1           1   8.6786442653364784E-002           7      381204           0
</event>
<event>
      5   9999  3.79277E-02  1.21144E+02 -1.00000E+00  1.20194E-01
       2    -1     0     0   502     0  0.000000000E+00  0.000000000E+00  1.904425019E+03  1.904425019E+03  0.000000000E+00  0.00000E+00  9.000E+00
      21    -1     0     0   501   502  0.000000000E+00  0.000000000E+00 -9.058375620E+01  9.058375620E+01  0.000000000E+00  0.00000E+00  9.000E+00
      25     1     1     2     0     0 -1.889223033E+02 -1.862949984E+02  5.506748998E+02  6.239112985E+02  1.250000000E+02  0.00000E+00  9.000E+00
      25     1     1     2     0     0  6.941436949E+01  1.664530722E+02  1.874922253E+02  2.886231357E+02  1.250000000E+02  0.00000E+00  9.000E+00
       2     1     1     2   501     0  1.195079338E+02  1.984192616E+01  1.075674137E+03  1.082474341E+03  2.642899792E-05  0.00000E+00  9.000E+00
#rwgt            1           1   3.2000982977156187E-002           7      381481           0
</event>
<event>
      5   9999  3.79277E-02  1.40909E+01 -1.00000E+00  1.79980E-01
      21    -1     0     0   502   511  0.000000000E+00  0.000000000E+00  1.776659310E+02  1.776659310E+02  0.000000000E+00  0.00000E+00  9.000E+00
      21    -1     0     0   501   502  0.000000000E+00  0.000000000E+00 -3.804766871E+02  3.804766871E+02  0.000000000E+00  0.00000E+00  9.000E+00
      25     1     1     2     0     0  6.483074004E+01  9.786978177E+01  6.446287372E+01  1.831992935E+02  1.250000000E+02  0.00000E+00  9.000E+00
      25     1     1     2     0     0 -7.595649245E+01 -1.065167826E+02 -2.937180571E+02  3.449790005E+02  1.250000000E+02  0.00000E+00  9.000E+00
      21     1     1     2   501   511  1.112575241E+01  8.647000849E+00  2.644442722E+01  2.996432415E+01  0.000000000E+00  0.00000E+00  9.000E+00
#rwgt            1           1   3.8057218454844950E-002           7      381596           0
</event>
<event>
      5   9999  3.79277E-02  1.53055E+01 -1.00000E+00  1.76563E-01
      21    -1     0     0   502   501  0.000000000E+00  0.000000000E+00  1.859111849E+02  1.859111849E+02  0.000000000E+00  0.00000E+00  9.000E+00
      21    -1     0     0   512   502  0.000000000E+00  0.000000000E+00 -2.196371453E+02  2.196371453E+02  0.000000000E+00  0.00000E+00  9.000E+00
      25     1     1     2     0     0 -5.304941919E+01  1.248285270E+02 -2.601177514E+01  1.862740306E+02  1.250000000E+02  0.00000E+00  9.000E+00
      25     1     1     2     0     0  6.213997124E+01 -1.371419279E+02  9.899855544E+00  1.959395099E+02  1.250000000E+02  0.00000E+00  9.000E+00
      21     1     1     2   512   501 -9.090552051E+00  1.231340096E+01 -1.761404076E+01  2.333478973E+01  0.000000000E+00  0.00000E+00  9.000E+00
#rwgt            1           1   2.3816126522608293E-002           7      381782           0
</event>
<event>
      5   9999  3.79277E-02  1.72127E+02 -1.00000E+00  1.14073E-01
      21    -1     0     0   502   511  0.000000000E+00  0.000000000E+00  1.331049859E+02  1.331049859E+02  0.000000000E+00  0.00000E+00  9.000E+00
      21    -1     0     0   501   502  0.000000000E+00  0.000000000E+00 -1.268824389E+03  1.268824389E+03  0.000000000E+00  0.00000E+00  9.000E+00
      25     1     1     2     0     0  1.177772906E+02 -7.556074916E+01 -2.403220490E+00  1.876477883E+02  1.250000000E+02  0.00000E+00  9.000E+00
      25     1     1     2     0     0 -9.860570636E+00 -5.853558092E+01 -9.603302399E+02  9.702488417E+02  1.250000000E+02  0.00000E+00  9.000E+00
      21     1     1     2   501   511 -1.079167199E+02  1.340963301E+02 -1.729859427E+02  2.440327449E+02  2.697398305E-06  0.00000E+00  9.000E+00
#rwgt            1           1   3.2933671899112137E-002           7      381966           0
</event>
<event>
      5   9999  3.79277E-02  5.51058E+01 -1.00000E+00  1.36708E-01
       2    -1     0     0   502     0  0.000000000E+00  0.000000000E+00  6.787138579E+02  6.787138579E+02  0.000000000E+00  0.00000E+00  9.000E+00
      21    -1     0     0   501   502  0.000000000E+00  0.000000000E+00 -5.416163878E+02  5.416163878E+02  0.000000000E+00  0.00000E+00  9.000E+00
      25     1     1     2     0     0  8.516767269E+01  4.992065359E+01 -4.473096989E+02  4.748226731E+02  1.250000000E+02  0.00000E+00  9.000E+00
      25     1     1     2     0     0 -1.103005767E+02 -8.800282304E-01  8.453262589E+00  1.669234834E+02  1.250000000E+02  0.00000E+00  9.000E+00
       2     1     1     2   501     0  2.513290399E+01 -4.904062536E+01  5.759539064E+02  5.785840891E+02  1.078959322E-05  0.00000E+00  9.000E+00
#rwgt            1           1   4.9726306797242666E-002           7      382101           0
</event>
<event>
      5   9999  3.79277E-02  1.26545E+01 -1.00000E+00  1.84635E-01
      21    -1     0     0   502   511  0.000000000E+00  0.000000000E+00  2.647213377E+03  2.647213377E+03  0.000000000E+00  0.00000E+00  9.000E+00
      21    -1     0     0   501   502  0.000000000E+00  0.000000000E+00 -5.911166917E+02  5.911166917E+02  0.000000000E+00  0.00000E+00  9.000E+00
      25     1     1     2     0     0  1.300346448E+02 -1.432504441E+02 -1.539028288E+02  2.770212614E+02  1.250000000E+02  0.00000E+00  9.000E+00
      25     1     1     2     0     0 -1.256102000E+02  1.551062720E+02 -3.387279110E+02  4.125499674E+02  1.250000000E+02  0.00000E+00  9.000E+00
      21     1     1     2   501   511 -4.424444821E+00 -1.185582785E+01  2.548727425E+03  2.548758840E+03  3.051757812E-05  0.00000E+00  9.000E+00
#rwgt            1           1   4.2926436875363329E-002           7      382311           0
</event>
<event>
      5   9999  3.79277E-02  3.52206E+01 -1.00000E+00  1.48353E-01
      21    -1     0     0   502   512  0.000000000E+00  0.000000000E+00  8.187613098E+02  8.187613098E+02  0.000000000E+00  0.00000E+00  9.000E+00
      21    -1     0     0   501   502  0.000000000E+00  0.000000000E+00 -3.025833666E+02  3.025833666E+02  0.000000000E+00  0.00000E+00  9.000E+00
      25     1     1     2     0     0 -3.427825260E+01  3.992158805E+02  1.026482981E+02  4.320995151E+02  1.250000000E+02  0.00000E+00  9.000E+00
      25     1     1     2     0     0  6.599953724E+01 -3.839105129E+02  1.697359172E+02  4.429204245E+02  1.250000000E+02  0.00000E+00  9.000E+00
      21     1     1     2   501   512 -3.172128465E+01 -1.530536760E+01  2.437937279E+02  2.463247368E+02  4.672030912E-06  0.00000E+00  9.000E+00
#rwgt            1           1   3.6864101068872210E-002           7      382567           0
</event>
<event>
      5   9999  3.79277E-02  2.33697E+01 -1.00000E+00  1.60976E-01
      21    -1     0     0   502   501  0.000000000E+00  0.000000000E+00  1.154256466E+02  1.154256466E+02  0.000000000E+00  0.00000E+00  9.000E+00
      21    -1     0     0   501   511  0.000000000E+00  0.000000000E+00 -6.302829071E+02  6.302829071E+02  0.000000000E+00  0.00000E+00  9.000E+00
      25     1     1     2     0     0 -3.815572518E+01  1.509825188E+02 -3.341770345E+02  3.892953515E+02  1.250000000E+02  0.00000E+00  9.000E+00
      25     1     1     2     0     0  5.290699242E+01 -1.691083092E+02 -4.852569083E+01  2.222082644E+02  1.250000000E+02  0.00000E+00  9.000E+00
      21     1     1     2   502   511 -1.475126724E+01  1.812579042E+01 -1.321545352E+02  1.342049378E+02  1.907348633E-06  0.00000E+00  9.000E+00
#rwgt            1           1   3.7679663790686505E-002           7      382728           0
</event>
<event>
      5   9999  3.79277E-02  5.97047E+01 -1.00000E+00  1.34818E-01
      21    -1     0     0   502   501  0.000000000E+00  0.000000000E+00  3.147189795E+02  3.147189795E+02  0.000000000E+00  0.00000E+00  9.000E+00
      21    -1     0     0   501   512  0.000000000E+00  0.000000000E+00 -3.222275603E+02  3.222275603E+02  0.000000000E+00  0.00000E+00  9.000E+00
      25     1     1     2     0     0  6.916445609E+01 -1.070371249E+02 -1.060479072E+02  2.076338766E+02  1.250000000E+02  0.00000E+00  9.000E+00
      25     1     1     2     0     0 -4.522626849E+01  1.617327653E+02  2.139727005E+02  2.993530011E+02  1.250000000E+02  0.00000E+00  9.000E+00
      21     1     1     2   502   512 -2.393818760E+01 -5.469564041E+01 -1.154333742E+02  1.299596621E+02  1.348699152E-06  0.00000E+00  9.000E+00
#rwgt            1           1   4.6131137728158716E-002           7      382875           0
</event>
<event>
      5   9999  3.79277E-02  9.92497E+01 -1.00000E+00  1.23975E-01
      21    -1     0     0   502   501  0.000000000E+00  0.000000000E+00  3.075917547E+02  3.075917547E+02  0.000000000E+00  0.00000E+00  9.000E+00
      21    -1     0     0   511   502  0.000000000E+00  0.000000000E+00 -3.097975644E+02  3.097975644E+02  0.000000000E+00  0.00000E+00  9.000E+00
      25     1     1     2     0     0 -1.546528368E+02  1.241706237E+02  1.029661352E+00  2.344395528E+02  1.250000000E+02  0.00000E+00  9.000E+00
      25     1     1     2     0     0  1.187006655E+02 -2.166798124E+02  2.947450866E+01  2.784488028E+02  1.250000000E+02  0.00000E+00  9.000E+00
      21     1     1     2   511   501  3.595217122E+01  9.250918870E+01 -3.270997971E+01  1.045009635E+02  1.348699152E-06  0.00000E+00  9.000E+00
#rwgt            1           1   3.3821047832222714E-002           7      382968           0
</event>
<event>
      5   9999  3.79277E-02  1.45039E+02 -1.00000E+00  1.16975E-01
      21    -1     0     0   502   501  0.000000000E+00  0.000000000E+00  9.627600976E+02  9.627600976E+02  0.000000000E+00  0.00000E+00  9.000E+00
      21    -1     0     0   501   512  0.000000000E+00  0.000000000E+00 -8.448338779E+02  8.448338779E+02  0.000000000E+00  0.00000E+00  9.000E+00
      25     1     1     2     0     0 -1.666523185E+01  2.349821774E+01  1.089595896E+02  1.683065309E+02  1.250000000E+02  0.00000E+00  9.000E+00
      25     1     1     2     0     0 -1.233710240E+02 -6.126258105E+01  8.070112102E+02  8.281700350E+02  1.250000000E+02  0.00000E+00  9.000E+00
      21     1     1     2   502   512  1.400362559E+02  3.776436331E+01 -7.980445801E+02  8.111174095E+02  1.525878906E-05  0.00000E+00  9.000E+00
#rwgt            1           1   4.1968825430452231E-002           7      383093           0
</event>
<event>
      5   9999  3.79277E-02  2.18273E+01 -1.00000E+00  1.63296E-01
      21    -1     0     0   511   501  0.000000000E+00  0.000000000E+00  3.367677837E+02  3.367677837E+02  0.000000000E+00  0.00000E+00  9.000E+00
      21    -1     0     0   501   502  0.000000000E+00  0.000000000E+00 -2.707740050E+02  2.707740050E+02  0.000000000E+00  0.00000E+00  9.000E+00
      25     1     1     2     0     0 -4.778587663E+00 -3.638908047E+01 -2.323387669E+02  2.663706115E+02  1.250000000E+02  0.00000E+00  9.000E+00
      25     1     1     2     0     0 -1.645148722E+01  4.146021323E+01  2.878155987E+02  3.169422969E+02  1.250000000E+02  0.00000E+00  9.000E+00
      21     1     1     2   511   502  2.123007488E+01 -5.071132755E+00  1.051694684E+01  2.422888024E+01  5.717076687E-07  0.00000E+00  9.000E+00
#rwgt            1           1   3.3260455186579690E-002           7      383195           0
</event>
<event>
      5   9999  3.79277E-02  3.64679E+01 -1.00000E+00  1.47375E-01
      21    -1     0     0   502   501  0.000000000E+00  0.000000000E+00  5.332586648E+02  5.332586648E+02  0.000000000E+00  0.00000E+00  9.000E+00
      21    -1     0     0   501   512  0.000000000E+00  0.000000000E+00 -2.069958369E+02  2.069958369E+02  0.000000000E+00  0.00000E+00  9.000E+00
      25     1     1     2     0     0  1.753276103E+02 -1.401926515E+02  2.130917162E+02  3.338065757E+02  1.250000000E+02  0.00000E+00  9.000E+00
      25     1     1     2     0     0 -1.787370307E+02  1.765007998E+02  1.778494412E+02  3.321970533E+02  1.250000000E+02  0.00000E+00  9.000E+00
      21     1     1     2   502   512  3.409420313E+00 -3.630814833E+01 -6.467832959E+01  7.425087273E+01  1.348699152E-06  0.00000E+00  9.000E+00
#rwgt            1           1   1.7120144025610594E-002           7      383434           0
</event>
<event>
      5   9999  3.79277E-02  1.57471E+02 -1.00000E+00  1.15563E-01
      21    -1     0     0   502   501  0.000000000E+00  0.000000000E+00  1.494823058E+03  1.494823058E+03  0.000000000E+00  0.00000E+00  9.000E+00
      21    -1     0     0   511   502  0.000000000E+00  0.000000000E+00 -4.786297469E+01  4.786297469E+01  0.000000000E+00  0.00000E+00  9.000E+00
      25     1     1     2     0     0  1.233870360E+02 -2.106787707E+01  3.285130686E+02  3.731139938E+02  1.250000000E+02  0.00000E+00  9.000E+00
      25     1     1     2     0     0  1.637132094E+01  9.362709223E+01  7.883579330E+02  8.038453104E+02  1.250000000E+02  0.00000E+00  9.000E+00
      21     1     1     2   511   501 -1.397583570E+02 -7.255921516E+01  3.300890812E+02  3.657267280E+02  3.814697266E-06  0.00000E+00  9.000E+00
#rwgt            1           1   4.4593959708267822E-002           7      383622           0
</event>
<event>
      5   9999  3.79277E-02  6.07485E+00 -1.00000E+00  2.24639E-01
      21    -1     0     0   502   501  0.000000000E+00  0.000000000E+00  3.967267007E+02  3.967267007E+02  0.000000000E+00  0.00000E+00  9.000E+00
      21    -1     0     0   512   502  0.000000000E+00  0.000000000E+00 -1.475556716E+02  1.475556716E+02  0.000000000E+00  0.00000E+00  9.000E+00
      25     1     1     2     0     0  1.181430938E+02 -2.642521596E+01 -5.724184925E+01  1.831876414E+02  1.250000000E+02  0.00000E+00  9.000E+00
      25     1     1     2     0     0 -1.122691564E+02  2.797461392E+01  3.102349115E+02  3.539175650E+02  1.250000000E+02  0.00000E+00  9.000E+00
      21     1     1     2   512   501 -5.873937376E+00 -1.549397960E+00 -3.822033102E+00  7.177165971E+00  1.737759082E-07  0.00000E+00  9.000E+00
#rwgt            1           1   4.3454448821308563E-002           7      383891           0
</event>
<event>
      5   9999  3.79277E-02  4.61816E+01 -1.00000E+00  1.41073E-01
      21    -1     0     0   502   501  0.000000000E+00  0.000000000E+00  4.960733870E+02  4.960733870E+02  0.000000000E+00  0.00000E+00  9.000E+00
      21    -1     0     0   511   502  0.000000000E+00  0.000000000E+00 -9.406302670E+01  9.406302670E+01  0.000000000E+00  0.00000E+00  9.000E+00
      25     1     1     2     0     0 -5.565768004E+01  8.236709749E+01  2.221325195E+02  2.735872298E+02  1.250000000E+02  0.00000E+00  9.000E+00
      25     1     1     2     0     0  8.075038438E+01 -4.359734142E+01  2.102688638E+02  2.612648997E+02  1.250000000E+02  0.00000E+00  9.000E+00
      21     1     1     2   511   501 -2.509270433E+01 -3.876975607E+01 -3.039102298E+01  5.528428415E+01  1.011524364E-06  0.00000E+00  9.000E+00
#rwgt            2          11   7.6469643493138879E-004           7      384649           0
</event>
<event>
      5   9999  3.79277E-02  3.58027E+01 -1.00000E+00  1.47891E-01
      21    -1     0     0   502   512  0.000000000E+00  0.000000000E+00  1.691002264E+03  1.691002264E+03  0.000000000E+00  0.00000E+00  9.000E+00
      21    -1     0     0   501   502  0.000000000E+00  0.000000000E+00 -1.437073651E+02  1.437073651E+02  0.000000000E+00  0.00000E+00  9.000E+00
      25     1     1     2     0     0  5.110154971E+01  1.676455825E+02  1.507796534E+03  1.523086274E+03  1.250000000E+02  0.00000E+00  9.000E+00
      25     1     1     2     0     0 -1.939784938E+01 -1.510110448E+02 -5.996209832E+01  2.059151900E+02  1.250000000E+02  0.00000E+00  9.000E+00
      21     1     1     2   501   512 -3.170370033E+01 -1.663453767E+01  9.946046258E+01  1.057081647E+02  1.348699152E-06  0.00000E+00  9.000E+00
#rwgt            1           1  0.16761418868897307                7      384744           0
</event>
<event>
      5   9999  3.87577E-02  4.95715E+01 -1.00000E+00  1.39289E-01
       2    -1     0     0   502     0  0.000000000E+00  0.000000000E+00  2.336882450E+03  2.336882450E+03  0.000000000E+00  0.00000E+00  9.000E+00
      21    -1     0     0   501   502  0.000000000E+00  0.000000000E+00 -1.312832389E+02  1.312832389E+02  0.000000000E+00  0.00000E+00  9.000E+00
      25     1     1     2     0     0  3.204054329E+02 -1.562178519E+02  3.823566887E+02  5.374805076E+02  1.250000000E+02  0.00000E+00  9.000E+00
      25     1     1     2     0     0 -3.083924468E+02  1.081239169E+02  5.215048000E+02  6.280039324E+02  1.250000000E+02  0.00000E+00  9.000E+00
       2     1     1     2   501     0 -1.201298613E+01  4.809393495E+01  1.301737722E+03  1.302681249E+03  0.000000000E+00  0.00000E+00  9.000E+00
#rwgt            1           1  0.48935195404156540                7      384952           0
</event>
<event>
      5   9999  3.79277E-02  2.92817E+01 -1.00000E+00  1.53774E-01
      21    -1     0     0   502   501  0.000000000E+00  0.000000000E+00  3.097655074E+02  3.097655074E+02  0.000000000E+00  0.00000E+00  9.000E+00
      21    -1     0     0   511   502  0.000000000E+00  0.000000000E+00 -2.813208216E+02  2.813208216E+02  0.000000000E+00  0.00000E+00  9.000E+00
      25     1     1     2     0     0 -5.715941727E+01 -5.758696700E+01  2.521882749E+02  2.929289739E+02  1.250000000E+02  0.00000E+00  9.000E+00
      25     1     1     2     0     0  8.408230570E+01  6.910125274E+01 -1.730643749E+02  2.396269916E+02  1.250000000E+02  0.00000E+00  9.000E+00
      21     1     1     2   511   501 -2.692288843E+01 -1.151428574E+01 -5.067921426E+01  5.853036354E+01  0.000000000E+00  0.00000E+00  9.000E+00
#rwgt            1           1   3.2502849497305052E-002           7      385097           0
</event>
<event>
      5   9999  3.79277E-02  1.36482E+02 -1.00000E+00  1.18043E-01
      21    -1     0     0   502   501  0.000000000E+00  0.000000000E+00  2.140201049E+02  2.140201049E+02  0.000000000E+00  0.00000E+00  9.000E+00
      21    -1     0     0   501   512  0.000000000E+00  0.000000000E+00 -2.986486750E+02  2.986486750E+02  0.000000000E+00  0.00000E+00  9.000E+00
      25     1     1     2     0     0 -3.796647001E+01 -1.213637434E+01  1.566781492E+01  1.321333601E+02  1.250000000E+02  0.00000E+00  9.000E+00
      25     1     1     2     0     0 -6.651189299E+00  1.411196167E+02  3.098173995E+01  1.911644652E+02  1.250000000E+02  0.00000E+00  9.000E+00
      21     1     1     2   502   512  4.461765931E+01 -1.289832424E+02 -1.312781250E+02  1.893709546E+02  2.697398305E-06  0.00000E+00  9.000E+00
#rwgt            1           1   9.3228539378993239E-002           7      385338           0
</event>
<event>
      5   9999  3.79277E-02  1.46281E+02 -1.00000E+00  1.16827E-01
       2    -1     0     0   502     0  0.000000000E+00  0.000000000E+00  2.431118441E+03  2.431118441E+03  0.000000000E+00  0.00000E+00  9.000E+00
      21    -1     0     0   501   502  0.000000000E+00  0.000000000E+00 -6.095724955E+01  6.095724955E+01  0.000000000E+00  0.00000E+00  9.000E+00
      25     1     1     2     0     0 -1.620595235E+02 -5.871364308E+01  1.057731154E+03  1.078948921E+03  1.250000000E+02  0.00000E+00  9.000E+00
      25     1     1     2     0     0  1.735160880E+01  8.010684278E+01  7.528744100E+01  1.673660161E+02  1.250000000E+02  0.00000E+00  9.000E+00
       2     1     1     2   501     0  1.447079147E+02 -2.139319969E+01  1.237142597E+03  1.245760753E+03  0.000000000E+00  0.00000E+00  9.000E+00
#rwgt            2          18   6.5723648384669313E-004           7      385368           0
</event>
<event>
      5   9999  3.79277E-02  9.40162E+01 -1.00000E+00  1.25045E-01
      21    -1     0     0   511   501  0.000000000E+00  0.000000000E+00  1.182207672E+03  1.182207672E+03  0.000000000E+00  0.00000E+00  9.000E+00
      21    -1     0     0   501   502  0.000000000E+00  0.000000000E+00 -1.590017478E+02  1.590017478E+02  0.000000000E+00  0.00000E+00  9.000E+00
      25     1     1     2     0     0  2.043930624E+02  1.236723480E+02  4.644607261E+01  2.735938802E+02  1.250000000E+02  0.00000E+00  9.000E+00
      25     1     1     2     0     0 -1.605940777E+02 -2.068630615E+02  4.711916326E+02  5.533799225E+02  1.250000000E+02  0.00000E+00  9.000E+00
      21     1     1     2   511   502 -4.379898471E+01  8.319071348E+01  5.055682191E+02  5.142356172E+02  0.000000000E+00  0.00000E+00  9.000E+00
#rwgt            1           1   3.2848581826336189E-002           7      385402           0
</event>
<event>
      5   9999  3.79277E-02  2.21360E+01 -1.00000E+00  1.62813E-01
      21    -1     0     0   502   512  0.000000000E+00  0.000000000E+00  9.969301752E+02  9.969301752E+02  0.000000000E+00  0.00000E+00  9.000E+00
      21    -1     0     0   501   502  0.000000000E+00  0.000000000E+00 -5.584711151E+01  5.584711151E+01  0.000000000E+00  0.00000E+00  9.000E+00
      25     1     1     2     0     0 -1.690430740E+02 -4.675670070E+01  3.565514729E+02  4.165521609E+02  1.250000000E+02  0.00000E+00  9.000E+00
      25     1     1     2     0     0  1.870228351E+02  3.384430085E+01  5.090799376E+02  5.575933648E+02  1.250000000E+02  0.00000E+00  9.000E+00
      21     1     1     2   501   512 -1.797976113E+01  1.291239985E+01  7.545165319E+01  7.863176107E+01  9.536743164E-07  0.00000E+00  9.000E+00
#rwgt            1           1   4.4017029797469166E-002           7      385504           0
</event>
<event>
      5   9999  3.79277E-02  1.51241E+01 -1.00000E+00  1.77047E-01
      21    -1     0     0   511   501  0.000000000E+00  0.000000000E+00  2.113898571E+02  2.113898571E+02  0.000000000E+00  0.00000E+00  9.000E+00
      21    -1     0     0   501   502  0.000000000E+00  0.000000000E+00 -1.930752862E+02  1.930752862E+02  0.000000000E+00  0.00000E+00  9.000E+00
      25     1     1     2     0     0 -1.101636621E+02 -7.939513166E+01  4.408922945E+01  1.897590038E+02  1.250000000E+02  0.00000E+00  9.000E+00
      25     1     1     2     0     0  1.157766944E+02  9.343907399E+01 -3.433172135E+01  1.973290921E+02  1.250000000E+02  0.00000E+00  9.000E+00
      21     1     1     2   511   502 -5.613032249E+00 -1.404394233E+01  8.557062828E+00  1.737704726E+01  1.685873940E-07  0.00000E+00  9.000E+00
#rwgt            1           1   4.3034586643438622E-002           7      385650           0
</event>
<event>
      5   9999  3.79277E-02  1.59959E+01 -1.00000E+00  1.74793E-01
      21    -1     0     0   502   501  0.000000000E+00  0.000000000E+00  1.232408086E+03  1.232408086E+03  0.000000000E+00  0.00000E+00  9.000E+00
      21    -1     0     0   512   502  0.000000000E+00  0.000000000E+00 -5.125911384E+01  5.125911384E+01  0.000000000E+00  0.00000E+00  9.000E+00
      25     1     1     2     0     0  2.068164661E+02  4.013384737E+01  5.474889705E+02  5.997940890E+02  1.250000000E+02  0.00000E+00  9.000E+00
      25     1     1     2     0     0 -2.047697251E+02 -2.426940541E+01  5.982600825E+02  6.450269534E+02  1.250000000E+02  0.00000E+00  9.000E+00
      21     1     1     2   512   501 -2.046741033E+00 -1.586444196E+01  3.539991892E+01  3.884615717E+01  6.743495762E-07  0.00000E+00  9.000E+00
#rwgt            1           1   2.5255435907213946E-002           7      385858           0
</event>
<event>
      5   9999  3.79277E-02  6.36466E+01 -1.00000E+00  1.33348E-01
      21    -1     0     0   511   501  0.000000000E+00  0.000000000E+00  3.619385091E+01  3.619385091E+01  0.000000000E+00  0.00000E+00  9.000E+00
      21    -1     0     0   501   502  0.000000000E+00  0.000000000E+00 -2.472589649E+03  2.472589649E+03  0.000000000E+00  0.00000E+00  9.000E+00
      25     1     1     2     0     0 -6.535282792E+01  5.068611494E+01 -1.964920958E+02  2.471319851E+02  1.250000000E+02  0.00000E+00  9.000E+00
      25     1     1     2     0     0  1.287930638E+02 -4.556550872E+01 -2.097666125E+03  2.105823364E+03  1.250000000E+02  0.00000E+00  9.000E+00
      21     1     1     2   511   502 -6.344023591E+01 -5.120606226E+00 -1.422375772E+02  1.558281506E+02  0.000000000E+00  0.00000E+00  9.000E+00
#rwgt            1           1   8.5981159444966690E-002           7      386086           0
</event>
<event>
      5   9999  3.79277E-02  1.35563E+02 -1.00000E+00  1.18162E-01
      21    -1     0     0   502   501  0.000000000E+00  0.000000000E+00  2.248368024E+02  2.248368024E+02  0.000000000E+00  0.00000E+00  9.000E+00
      21    -1     0     0   501   512  0.000000000E+00  0.000000000E+00 -4.844902012E+02  4.844902012E+02  0.000000000E+00  0.00000E+00  9.000E+00
      25     1     1     2     0     0  1.733392731E+02 -1.148994264E+02 -2.569628382E+01  2.439952475E+02  1.250000000E+02  0.00000E+00  9.000E+00
      25     1     1     2     0     0 -3.936655901E+01  9.419693436E+01  3.409013222E+01  1.649543135E+02  1.250000000E+02  0.00000E+00  9.000E+00
      21     1     1     2   502   512 -1.339727141E+02  2.070249207E+01 -2.680472473E+02  3.003774427E+02  5.394796609E-06  0.00000E+00  9.000E+00
#rwgt            1           1   3.1289000716983137E-002           7      386163           0
</event>
<event>
      5   9999  3.79277E-02  7.31928E+01 -1.00000E+00  1.30247E-01
      21    -1     0     0   502   511  0.000000000E+00  0.000000000E+00  4.421849662E+02  4.421849662E+02  0.000000000E+00  0.00000E+00  9.000E+00
      21    -1     0     0   501   502  0.000000000E+00  0.000000000E+00 -1.883105716E+02  1.883105716E+02  0.000000000E+00  0.00000E+00  9.000E+00
      25     1     1     2     0     0  1.559098484E+02 -3.575070569E+00 -3.597681001E+01  2.030763227E+02  1.250000000E+02  0.00000E+00  9.000E+00
      25     1     1     2     0     0 -1.975951941E+02 -5.658737742E+01  2.133199355E+02  3.215219851E+02  1.250000000E+02  0.00000E+00  9.000E+00
      21     1     1     2   501   511  4.168534564E+01  6.016244799E+01  7.653126912E+01  1.058972301E+02  1.651812370E-06  0.00000E+00  9.000E+00
#rwgt            1           1   2.2029790609123023E-002           7      386316           0
</event>
<event>
      5   9999  3.79277E-02  3.74828E+01 -1.00000E+00  1.46613E-01
      21    -1     0     0   502   512  0.000000000E+00  0.000000000E+00  3.506123743E+02  3.506123743E+02  0.000000000E+00  0.00000E+00  9.000E+00
      21    -1     0     0   501   502  0.000000000E+00  0.000000000E+00 -2.791376006E+02  2.791376006E+02  0.000000000E+00  0.00000E+00  9.000E+00
      25     1     1     2     0     0  1.463977060E+02 -3.731811815E+01 -1.874683393E+02  2.712827096E+02  1.250000000E+02  0.00000E+00  9.000E+00
      25     1     1     2     0     0 -1.365545303E+02  7.348538085E+01  2.505180914E+02  3.200493010E+02  1.250000000E+02  0.00000E+00  9.000E+00
      21     1     1     2   501   512 -9.843175631E+00 -3.616726269E+01  8.425021601E+00  3.841796437E+01  5.196212463E-07  0.00000E+00  9.000E+00
#rwgt            1           1   4.1126303767432371E-002           7      386426           0
</event>
<event>
      5   9999  3.79277E-02  2.65700E+01 -1.00000E+00  1.56795E-01
      21    -1     0     0   502   501  0.000000000E+00  0.000000000E+00  8.705671207E+01  8.705671207E+01  0.000000000E+00  0.00000E+00  9.000E+00
      21    -1     0     0   501   511  0.000000000E+00  0.000000000E+00 -1.062201735E+03  1.062201735E+03  0.000000000E+00  0.00000E+00  9.000E+00
      25     1     1     2     0     0 -1.668003748E+02 -1.633816386E+02 -2.345436555E+02  3.537677927E+02  1.250000000E+02  0.00000E+00  9.000E+00
      25     1     1     2     0     0  1.407583965E+02  1.686521490E+02 -5.795962961E+02  6.323079471E+02  1.250000000E+02  0.00000E+00  9.000E+00
      21     1     1     2   502   511  2.604197834E+01 -5.270510460E+00 -1.610050717E+02  1.631827076E+02  1.907348633E-06  0.00000E+00  9.000E+00
#rwgt            1           1   3.9119028725273529E-002           7      386596           0
</event>
<event>
      5   9999  3.79277E-02  6.09593E+01 -1.00000E+00  1.34336E-01
      21    -1     0     0   502   501  0.000000000E+00  0.000000000E+00  7.731948780E+02  7.731948780E+02  0.000000000E+00  0.00000E+00  9.000E+00
      21    -1     0     0   512   502  0.000000000E+00  0.000000000E+00 -1.024332691E+02  1.024332691E+02  0.000000000E+00  0.00000E+00  9.000E+00
      25     1     1     2     0     0  2.930943681E+01  1.080479729E+02  2.284716907E+02  2.834743745E+02  1.250000000E+02  0.00000E+00  9.000E+00
      25     1     1     2     0     0 -7.053441149E+01 -1.529538578E+02  4.776546308E+02  5.216789550E+02  1.250000000E+02  0.00000E+00  9.000E+00
      21     1     1     2   512   501  4.122497467E+01  4.490588486E+01 -3.536471249E+01  7.047481764E+01  1.348699152E-06  0.00000E+00  9.000E+00
#rwgt            1           1   3.5982693721287470E-002           7      386851           0
</event>
<event>
      5   9999  3.79277E-02  5.35146E+01 -1.00000E+00  1.37413E-01
      21    -1     0     0   502   511  0.000000000E+00  0.000000000E+00  9.465295500E+01  9.465295500E+01  0.000000000E+00  0.00000E+00  9.000E+00
      21    -1     0     0   501   502  0.000000000E+00  0.000000000E+00 -1.019787755E+03  1.019787755E+03  0.000000000E+00  0.00000E+00  9.000E+00
      25     1     1     2     0     0 -1.471022138E+02 -6.977185755E+01 -2.643550387E+02  3.346875556E+02  1.250000000E+02  0.00000E+00  9.000E+00
      25     1     1     2     0     0  1.241804510E+02  1.181288651E+02 -6.878240773E+02  7.197931470E+02  1.250000000E+02  0.00000E+00  9.000E+00
      21     1     1     2   501   511  2.292176283E+01 -4.835700753E+01  2.704431636E+01  5.996000697E+01  1.469710828E-06  0.00000E+00  9.000E+00
#rwgt            1           1  0.14645755867592394                7      386911           0
</event>
<event>
      5   9999  3.79277E-02  6.56922E+01 -1.00000E+00  1.32633E-01
      21    -1     0     0   502   501  0.000000000E+00  0.000000000E+00  9.631350551E+02  9.631350551E+02  0.000000000E+00  0.00000E+00  9.000E+00
       1    -1     0     0   501     0  0.000000000E+00  0.000000000E+00 -2.004830121E+02  2.004830121E+02  0.000000000E+00  0.00000E+00  9.000E+00
      25     1     1     2     0     0 -2.079751615E+02  1.699256788E+02  5.199729791E+02  5.984357134E+02  1.250000000E+02  0.00000E+00  9.000E+00
      25     1     1     2     0     0  2.736266509E+02 -1.722371170E+02  3.143564315E+02  4.679552699E+02  1.250000000E+02  0.00000E+00  9.000E+00
       1     1     1     2   502     0 -6.565148933E+01  2.311438274E+00 -7.167736767E+01  9.722708385E+01  1.651812370E-06  0.00000E+00  9.000E+00
#rwgt            1           1   2.8928457061482924E-002           7      387045           0
</event>
<event>
      5   9999  3.79277E-02  3.76792E+01 -1.00000E+00  1.46469E-01
       2    -1     0     0   502     0  0.000000000E+00  0.000000000E+00  5.326660752E+02  5.326660752E+02  0.000000000E+00  0.00000E+00  9.000E+00
      21    -1     0     0   501   502  0.000000000E+00  0.000000000E+00 -7.304228658E+02  7.304228658E+02  0.000000000E+00  0.00000E+00  9.000E+00
      25     1     1     2     0     0 -4.371178575E+01 -2.350519021E+02 -3.037610925E+02  4.062707450E+02  1.250000000E+02  0.00000E+00  9.000E+00
      25     1     1     2     0     0  7.988783533E+01  2.455881220E+02 -3.196319865E+02  4.295174021E+02  1.250000000E+02  0.00000E+00  9.000E+00
       2     1     1     2   501     0 -3.617604958E+01 -1.053621987E+01  4.256362884E+02  4.273007940E+02  5.394796609E-06  0.00000E+00  9.000E+00
#rwgt            1           1   3.6423505222005402E-002           7      387168           0
</event>
<event>
      5   9999  3.79277E-02  6.30979E+00 -1.00000E+00  2.22129E-01
      21    -1     0     0   502   501  0.000000000E+00  0.000000000E+00  2.691410056E+02  2.691410056E+02  0.000000000E+00  0.00000E+00  9.000E+00
      21    -1     0     0   501   511  0.000000000E+00  0.000000000E+00 -1.954308276E+02  1.954308276E+02  0.000000000E+00  0.00000E+00  9.000E+00
      25     1     1     2     0     0  1.229584319E+02 -5.290610846E+01  1.649829192E+02  2.464998903E+02  1.250000000E+02  0.00000E+00  9.000E+00
      25     1     1     2     0     0 -1.282335421E+02  4.944393306E+01 -7.451385522E+01  2.001645784E+02  1.250000000E+02  0.00000E+00  9.000E+00
      21     1     1     2   502   511  5.275110155E+00  3.462175403E+00 -1.675888600E+01  1.790736456E+01  0.000000000E+00  0.00000E+00  9.000E+00
#rwgt            1           1   4.2762499092867209E-002           7      387366           0
</event>
<event>
      5   9999  3.79277E-02  3.16870E+01 -1.00000E+00  1.51408E-01
      21    -1     0     0   512   501  0.000000000E+00  0.000000000E+00  2.033136303E+02  2.033136303E+02  0.000000000E+00  0.00000E+00  9.000E+00
      21    -1     0     0   501   502  0.000000000E+00  0.000000000E+00 -3.247567566E+02  3.247567566E+02  0.000000000E+00  0.00000E+00  9.000E+00
      25     1     1     2     0     0  1.205487503E+01 -1.697917959E+02  3.674876747E+01  2.143596181E+02  1.250000000E+02  0.00000E+00  9.000E+00
      25     1     1     2     0     0  1.723812291E+00  1.983261864E+02 -1.567051973E+02  2.819889477E+02  1.250000000E+02  0.00000E+00  9.000E+00
      21     1     1     2   512   502 -1.377868732E+01 -2.853439052E+01 -1.486696522E+00  3.172182109E+01  5.079525873E-07  0.00000E+00  9.000E+00
#rwgt            1           1   3.9978250053995662E-002           7      387674           0
</event>
<event>
      5   9999  3.79277E-02  1.15605E+01 -1.00000E+00  1.88748E-01
      21    -1     0     0   511   501  0.000000000E+00  0.000000000E+00  3.975205482E+01  3.975205482E+01  0.000000000E+00  0.00000E+00  9.000E+00
      21    -1     0     0   501   502  0.000000000E+00  0.000000000E+00 -1.188197392E+03  1.188197392E+03  0.000000000E+00  0.00000E+00  9.000E+00
      25     1     1     2     0     0  5.442763636E+01  2.035999820E+01 -1.014135617E+03  1.023461258E+03  1.250000000E+02  0.00000E+00  9.000E+00
      25     1     1     2     0     0 -4.380026113E+01 -2.491020170E+01 -1.374583459E+02  1.925065658E+02  1.250000000E+02  0.00000E+00  9.000E+00
      21     1     1     2   511   502 -1.062737523E+01  4.550203497E+00  3.148625317E+00  1.198162332E+01  6.063875541E-07  0.00000E+00  9.000E+00
#rwgt            1           1   4.5819860059690257E-002           7      387848           0
</event>
<event>
      5   9999  3.79277E-02  6.32397E+01 -1.00000E+00  1.33494E-01
      21    -1     0     0   512   501  0.000000000E+00  0.000000000E+00  1.471310631E+02  1.471310631E+02  0.000000000E+00  0.00000E+00  9.000E+00
      21    -1     0     0   501   502  0.000000000E+00  0.000000000E+00 -4.991422697E+02  4.991422697E+02  0.000000000E+00  0.00000E+00  9.000E+00
      25     1     1     2     0     0  1.422160377E+02  9.734162794E+01 -3.489237403E+02  4.087463400E+02  1.250000000E+02  0.00000E+00  9.000E+00
      25     1     1     2     0     0 -9.793068507E+01 -5.219668700E+01  2.374456875E+01  1.688304408E+02  1.250000000E+02  0.00000E+00  9.000E+00
      21     1     1     2   512   502 -4.428535267E+01 -4.514494094E+01 -2.683203506E+01  6.869655202E+01  9.536743164E-07  0.00000E+00  9.000E+00
#rwgt            1           1   3.0726104188510624E-002           7      388038           0
</event>
<event>
      5   9999  3.79277E-02  3.38866E+01 -1.00000E+00  1.49454E-01
      21    -1     0     0   502   501  0.000000000E+00  0.000000000E+00  3.398595559E+02  3.398595559E+02  0.000000000E+00  0.00000E+00  9.000E+00
      21    -1     0     0   501   511  0.000000000E+00  0.000000000E+00 -5.331592957E+02  5.331592957E+02  0.000000000E+00  0.00000E+00  9.000E+00
      25     1     1     2     0     0  1.543857641E+02  2.783637778E+02  1.256369758E+02  3.643226683E+02  1.250000000E+02  0.00000E+00  9.000E+00
      25     1     1     2     0     0 -1.401323022E+02 -3.091068775E+02 -2.998257859E+02  4.697921091E+02  1.250000000E+02  0.00000E+00  9.000E+00
      21     1     1     2   502   511 -1.425346185E+01  3.074309976E+01 -1.911092974E+01  3.890407425E+01  1.039242493E-06  0.00000E+00  9.000E+00
#rwgt            1           1   3.7593476009015761E-002           7      388218           0
</event>
<event>
      5   9999  3.79277E-02  7.94293E+01 -1.00000E+00  1.28500E-01
      21    -1     0     0   512   501  0.000000000E+00  0.000000000E+00  7.373010102E+02  7.373010102E+02  0.000000000E+00  0.00000E+00  9.000E+00
      21    -1     0     0   501   502  0.000000000E+00  0.000000000E+00 -1.960691057E+03  1.960691057E+03  0.000000000E+00  0.00000E+00  9.000E+00
      25     1     1     2     0     0  1.070302123E+02  6.581217586E+01 -1.433028222E+03  1.443946534E+03  1.250000000E+02  0.00000E+00  9.000E+00
      25     1     1     2     0     0 -2.820831363E+01 -7.561651258E+01 -5.093734892E+02  5.306598887E+02  1.250000000E+02  0.00000E+00  9.000E+00
      21     1     1     2   512   502 -7.882189865E+01  9.804336720E+00  7.190116644E+02  7.233856443E+02  0.000000000E+00  0.00000E+00  9.000E+00
#rwgt            1           1  0.12376261783120299                7      388509           0
</event>
<event>
      5   9999  3.79277E-02  4.24543E+01 -1.00000E+00  1.43254E-01
      21    -1     0     0   502   511  0.000000000E+00  0.000000000E+00  3.465382725E+02  3.465382725E+02  0.000000000E+00  0.00000E+00  9.000E+00
      21    -1     0     0   501   502  0.000000000E+00  0.000000000E+00 -2.530746637E+02  2.530746637E+02  0.000000000E+00  0.00000E+00  9.000E+00
      25     1     1     2     0     0  9.996074137E+01  9.361689810E+01 -6.326266148E+01  1.959169155E+02  1.250000000E+02  0.00000E+00  9.000E+00
      25     1     1     2     0     0 -8.248500481E+01 -1.323075080E+02 -3.884015292E+01  2.035745813E+02  1.250000000E+02  0.00000E+00  9.000E+00
      21     1     1     2   501   511 -1.747573655E+01  3.869060985E+01  1.955664231E+02  2.001214394E+02  2.697398305E-06  0.00000E+00  9.000E+00
#rwgt            1           1   2.9307242858026203E-002           7      388620           0
</event>
<event>
      5   9999  3.79277E-02  2.31530E+02 -1.00000E+00  1.09382E-01
      -5    -1     0     0     0   501  0.000000000E+00  0.000000000E+00  1.526320259E+02  1.526320259E+02  0.000000000E+00  0.00000E+00  9.000E+00
      21    -1     0     0   501   502  0.000000000E+00  0.000000000E+00 -1.008834470E+03  1.008834470E+03  0.000000000E+00  0.00000E+00  9.000E+00
      25     1     1     2     0     0 -2.672025330E+02  3.822080008E+01 -2.646838237E+02  3.981715079E+02  1.250000000E+02  0.00000E+00  9.000E+00
      25     1     1     2     0     0  1.454899591E+02  1.587363519E+02 -3.403090124E+02  4.216631138E+02  1.250000000E+02  0.00000E+00  9.000E+00
      -5     1     1     2     0   502  1.217125739E+02 -1.969571520E+02 -2.512096084E+02  3.416318746E+02  6.031565972E-06  0.00000E+00  9.000E+00
#rwgt            2           1   3.4220321264469021E-006           7      388729           0
</event>
<event>
      5   9999  3.79277E-02  1.83515E+01 -1.00000E+00  1.69512E-01
      21    -1     0     0   502   501  0.000000000E+00  0.000000000E+00  2.816513587E+02  2.816513587E+02  0.000000000E+00  0.00000E+00  9.000E+00
      21    -1     0     0   501   511  0.000000000E+00  0.000000000E+00 -1.955005652E+02  1.955005652E+02  0.000000000E+00  0.00000E+00  9.000E+00
      25     1     1     2     0     0  1.416933890E+02  1.160378336E+01  1.565970709E+02  2.456813116E+02  1.250000000E+02  0.00000E+00  9.000E+00
      25     1     1     2     0     0 -1.559132452E+02 -2.320431099E+01 -5.826752886E+01  2.094456612E+02  1.250000000E+02  0.00000E+00  9.000E+00
      21     1     1     2   502   511  1.421985624E+01  1.160052763E+01 -1.217874862E+01  2.202495109E+01  5.331201500E-07  0.00000E+00  9.000E+00
#rwgt            1           1   3.6711676013259774E-002           7      388763           0
</event>
<event>
      5   9999  3.79277E-02  2.87015E+02 -1.00000E+00  1.06220E-01
       1    -1     0     0   502     0  0.000000000E+00  0.000000000E+00  4.432117107E+02  4.432117107E+02  0.000000000E+00  0.00000E+00  9.000E+00
      21    -1     0     0   501   502  0.000000000E+00  0.000000000E+00 -5.297338127E+02  5.297338127E+02  0.000000000E+00  0.00000E+00  9.000E+00
      25     1     1     2     0     0 -8.051178798E+01  2.441858357E+01 -1.590262796E+02  2.190725287E+02  1.250000000E+02  0.00000E+00  9.000E+00
      25     1     1     2     0     0  3.648402698E+02 -6.359687422E+01 -1.192986795E+02  4.086687653E+02  1.250000000E+02  0.00000E+00  9.000E+00
       1     1     1     2   501     0 -2.843284818E+02  3.917829065E+01  1.918028571E+02  3.452042294E+02  2.697398305E-06  0.00000E+00  9.000E+00
#rwgt            2          17   6.0013491648656265E-005           7      388997           0
</event>
<event>
      5   9999  3.79277E-02  1.72506E+01 -1.00000E+00  1.71849E-01
      21    -1     0     0   502   511  0.000000000E+00  0.000000000E+00  3.268146501E+02  3.268146501E+02  0.000000000E+00  0.00000E+00  9.000E+00
      21    -1     0     0   501   502  0.000000000E+00  0.000000000E+00 -3.613535856E+02  3.613535856E+02  0.000000000E+00  0.00000E+00  9.000E+00
      25     1     1     2     0     0 -2.212893380E+01 -9.242907781E+01 -2.059890052E+02  2.590160119E+02  1.250000000E+02  0.00000E+00  9.000E+00
      25     1     1     2     0     0  1.829780516E+01  1.092488882E+02 -7.429860549E+01  1.827988294E+02  1.250000000E+02  0.00000E+00  9.000E+00
      21     1     1     2   501   511  3.831128639E+00 -1.681981042E+01  2.457486752E+02  2.463533944E+02  0.000000000E+00  0.00000E+00  9.000E+00
#rwgt            1           1   3.8367130489018630E-002           7      389121           0
</event>
<event>
      5   9999  3.79277E-02  4.69815E+01 -1.00000E+00  1.40636E-01
      21    -1     0     0   502   512  0.000000000E+00  0.000000000E+00  4.778503077E+02  4.778503077E+02  0.000000000E+00  0.00000E+00  9.000E+00
      21    -1     0     0   501   502  0.000000000E+00  0.000000000E+00 -1.157978788E+02  1.157978788E+02  0.000000000E+00  0.00000E+00  9.000E+00
      25     1     1     2     0     0  1.225256056E+02  7.408996116E+01  2.437397681E+01  1.916270782E+02  1.250000000E+02  0.00000E+00  9.000E+00
      25     1     1     2     0     0 -1.132652016E+02 -2.803017303E+01  2.715149526E+02  3.208739098E+02  1.250000000E+02  0.00000E+00  9.000E+00
      21     1     1     2   501   512 -9.260403968E+00 -4.605978813E+01  6.616349943E+01  8.114719848E+01  0.000000000E+00  0.00000E+00  9.000E+00
#rwgt            1           1   4.0834940718063713E-002           7      389338           0
</event>
<event>
      5   9999  3.79277E-02  1.76615E+01 -1.00000E+00  1.70952E-01
      21    -1     0     0   502   501  0.000000000E+00  0.000000000E+00  7.820340724E+01  7.820340724E+01  0.000000000E+00  0.00000E+00  9.000E+00
       2    -1     0     0   501     0  0.000000000E+00  0.000000000E+00 -8.997983965E+02  8.997983965E+02  0.000000000E+00  0.00000E+00  9.000E+00
      25     1     1     2     0     0 -3.537537456E+01 -9.947094510E+01 -8.511043188E+01  1.844306690E+02  1.250000000E+02  0.00000E+00  9.000E+00
      25     1     1     2     0     0  5.240791651E+01  1.041421746E+02 -2.288970914E+02  2.856764966E+02  1.250000000E+02  0.00000E+00  9.000E+00
       2     1     1     2   502     0 -1.703254194E+01 -4.671229520E+00 -5.075874660E+02  5.078946382E+02  0.000000000E+00  0.00000E+00  9.000E+00
#rwgt            1           1   3.4173043892585804E-002           7      389461           0
</event>
<event>
      5   9999  3.79277E-02  9.21121E+01 -1.00000E+00  1.25454E-01
      21    -1     0     0   502   501  0.000000000E+00  0.000000000E+00  1.748127598E+02  1.748127598E+02  0.000000000E+00  0.00000E+00  9.000E+00
      21    -1     0     0   501   511  0.000000000E+00  0.000000000E+00 -4.319756793E+02  4.319756793E+02  0.000000000E+00  0.00000E+00  9.000E+00
      25     1     1     2     0     0 -7.273092570E+01 -4.698954709E+01 -2.423231305E+02  2.860826885E+02  1.250000000E+02  0.00000E+00  9.000E+00
      25     1     1     2     0     0  1.621313533E+02  2.480399628E+01  4.472234743E+01  2.110139860E+02  1.250000000E+02  0.00000E+00  9.000E+00
      21     1     1     2   502   511 -8.940042755E+01  2.218555082E+01 -5.956213645E+01  1.096917645E+02  1.168007728E-06  0.00000E+00  9.000E+00
#rwgt            1           1   6.4507576873185216E-002           7      389702           0
</event>
<event>
      5   9999  3.79277E-02  1.33744E+01 -1.00000E+00  1.82209E-01
      21    -1     0     0   502   501  0.000000000E+00  0.000000000E+00  1.472989311E+02  1.472989311E+02  0.000000000E+00  0.00000E+00  9.000E+00
      21    -1     0     0   501   512  0.000000000E+00  0.000000000E+00 -2.367921567E+02  2.367921567E+02  0.000000000E+00  0.00000E+00  9.000E+00
      25     1     1     2     0     0 -1.006542630E+02 -5.043986723E+01 -8.547208874E+01  1.886953598E+02  1.250000000E+02  0.00000E+00  9.000E+00
      25     1     1     2     0     0  1.139640086E+02  5.175287511E+01  8.469560303E+00  1.770957052E+02  1.250000000E+02  0.00000E+00  9.000E+00
      21     1     1     2   502   512 -1.330974561E+01 -1.313007885E+00 -1.249069718E+01  1.830002279E+01  1.685873940E-07  0.00000E+00  9.000E+00
#rwgt            1           1   4.4589092136667410E-002           7      389831           0
</event>
<event>
      5   9999  3.79277E-02  2.22427E+02 -1.00000E+00  1.09993E-01
      21    -1     0     0   502   501  0.000000000E+00  0.000000000E+00  4.137172073E+02  4.137172073E+02  0.000000000E+00  0.00000E+00  9.000E+00
      21    -1     0     0   511   502  0.000000000E+00  0.000000000E+00 -3.888110284E+02  3.888110284E+02  0.000000000E+00  0.00000E+00  9.000E+00
      25     1     1     2     0     0  1.982663725E+02 -8.111229417E+01  1.733516550E+02  3.025963566E+02  1.250000000E+02  0.00000E+00  9.000E+00
      25     1     1     2     0     0  1.156613054E+01  1.548969188E+02  4.586265926E+01  2.045854695E+02  1.250000000E+02  0.00000E+00  9.000E+00
      21     1     1     2   511   501 -2.098325030E+02 -7.378462465E+01 -1.943081353E+02  2.953464095E+02  6.607249480E-06  0.00000E+00  9.000E+00
#rwgt            2          11   2.1891016445502983E-003           7      390545           0
</event>
<event>
      5   9999  3.79277E-02  3.40119E+01 -1.00000E+00  1.49348E-01
      21    -1     0     0   502   501  0.000000000E+00  0.000000000E+00  1.086834097E+03  1.086834097E+03  0.000000000E+00  0.00000E+00  9.000E+00
      21    -1     0     0   501   512  0.000000000E+00  0.000000000E+00 -6.041128661E+01  6.041128661E+01  0.000000000E+00  0.00000E+00  9.000E+00
      25     1     1     2     0     0 -8.141254480E-01  4.757021546E+01  4.820901201E+01  1.421713650E+02  1.250000000E+02  0.00000E+00  9.000E+00
      25     1     1     2     0     0  3.054588990E+01 -6.408791981E+01  9.501941202E+02  9.610068569E+02  1.250000000E+02  0.00000E+00  9.000E+00
      21     1     1     2   502   512 -2.973176446E+01  1.651770435E+01  2.801967811E+01  4.406716165E+01  7.539457465E-07  0.00000E+00  9.000E+00
#rwgt            1           1   4.5458320048487662E-002           7      390565           0
</event>
<event>
      5   9999  3.79277E-02  1.16281E+02 -1.00000E+00  1.20951E-01
      21    -1     0     0   502   501  0.000000000E+00  0.000000000E+00  1.551602756E+02  1.551602756E+02  0.000000000E+00  0.00000E+00  9.000E+00
      21    -1     0     0   501   511  0.000000000E+00  0.000000000E+00 -6.928267720E+02  6.928267720E+02  0.000000000E+00  0.00000E+00  9.000E+00
      25     1     1     2     0     0  5.150877155E+01 -1.081828246E+02  1.687920116E+01  1.739729419E+02  1.250000000E+02  0.00000E+00  9.000E+00
      25     1     1     2     0     0 -1.166194690E+02  2.045257385E+02 -3.975247131E+02  4.786248800E+02  1.250000000E+02  0.00000E+00  9.000E+00
      21     1     1     2   502   511  6.511069742E+01 -9.634291390E+01 -1.570209844E+02  1.953892257E+02  1.907348633E-06  0.00000E+00  9.000E+00
#rwgt            1           1   2.3669809460028470E-002           7      390748           0
</event>
<event>
      5   9999  3.79277E-02  1.16570E+01 -1.00000E+00  1.88362E-01
      21    -1     0     0   502   512  0.000000000E+00  0.000000000E+00  8.235943398E+02  8.235943398E+02  0.000000000E+00  0.00000E+00  9.000E+00
      21    -1     0     0   501   502  0.000000000E+00  0.000000000E+00 -5.819173661E+01  5.819173661E+01  0.000000000E+00  0.00000E+00  9.000E+00
      25     1     1     2     0     0  1.139600795E+01  1.884451559E+01  3.854575304E+02  4.058170677E+02  1.250000000E+02  0.00000E+00  9.000E+00
      25     1     1     2     0     0 -1.157208129E+01 -3.050018776E+01  3.916956591E+01  1.349941829E+02  1.250000000E+02  0.00000E+00  9.000E+00
      21     1     1     2   501   512  1.760733398E-01  1.165567217E+01  3.407755070E+02  3.409748258E+02  3.814697266E-06  0.00000E+00  9.000E+00
#rwgt            1           1   3.2607376914857343E-002           7      390838           0
</event>
<event>
      5   9999  3.79277E-02  5.16689E+01 -1.00000E+00  1.38267E-01
      21    -1     0     0   511   501  0.000000000E+00  0.000000000E+00  9.268287454E+01  9.268287454E+01  0.000000000E+00  0.00000E+00  9.000E+00
      21    -1     0     0   501   502  0.000000000E+00  0.000000000E+00 -1.072061074E+03  1.072061074E+03  0.000000000E+00  0.00000E+00  9.000E+00
      25     1     1     2     0     0  1.950464881E+02  9.711132760E+01 -5.309804828E+02  5.874002175E+02  1.250000000E+02  0.00000E+00  9.000E+00
      25     1     1     2     0     0 -1.449191757E+02 -1.096383114E+02 -4.716578999E+02  5.206806136E+02  1.250000000E+02  0.00000E+00  9.000E+00
      21     1     1     2   511   502 -5.012731235E+01  1.252698381E+01  2.326018312E+01  5.666311751E+01  1.168007728E-06  0.00000E+00  9.000E+00
#rwgt            1           1   7.7082813043454587E-002           7      391185           0
</event>
<event>
      5   9999  3.79277E-02  1.83899E+01 -1.00000E+00  1.69434E-01
      21    -1     0     0   512   501  0.000000000E+00  0.000000000E+00  5.602382004E+02  5.602382004E+02  0.000000000E+00  0.00000E+00  9.000E+00
      21    -1     0     0   501   502  0.000000000E+00  0.000000000E+00 -2.044323293E+02  2.044323293E+02  0.000000000E+00  0.00000E+00  9.000E+00
      25     1     1     2     0     0 -1.555685934E+02 -2.317312109E+02  1.345179106E+02  3.340973056E+02  1.250000000E+02  0.00000E+00  9.000E+00
      25     1     1     2     0     0  1.541124238E+02  2.133990355E+02  1.002763486E+02  3.081722467E+02  1.250000000E+02  0.00000E+00  9.000E+00
      21     1     1     2   512   502  1.456169597E+00  1.833217532E+01  1.210116118E+02  1.224009775E+02  1.907348633E-06  0.00000E+00  9.000E+00
#rwgt            1           1   2.4147268094260977E-002           7      391336           0
</event>
<event>
      5   9999  3.79277E-02  1.75833E+02 -1.00000E+00  1.13723E-01
      21    -1     0     0   502   501  0.000000000E+00  0.000000000E+00  4.941034165E+01  4.941034165E+01  0.000000000E+00  0.00000E+00  9.000E+00
      21    -1     0     0   501   511  0.000000000E+00  0.000000000E+00 -2.185819233E+03  2.185819233E+03  0.000000000E+00  0.00000E+00  9.000E+00
      25     1     1     2     0     0  2.757785006E+01  1.005342028E+02 -5.520952485E+02  5.755882444E+02  1.250000000E+02  0.00000E+00  9.000E+00
      25     1     1     2     0     0 -1.649648883E+02 -2.102699995E+02 -7.290389467E+02  7.864792895E+02  1.250000000E+02  0.00000E+00  9.000E+00
      21     1     1     2   502   511  1.373870383E+02  1.097357967E+02 -8.552746963E+02  8.731620408E+02  1.078959322E-05  0.00000E+00  9.000E+00
#rwgt            2          11   7.8944931422562827E-004           7      391474           0
</event>
<event>
      5   9999  3.79277E-02  6.17839E+01 -1.00000E+00  1.34027E-01
      21    -1     0     0   502   501  0.000000000E+00  0.000000000E+00  7.320206927E+02  7.320206927E+02  0.000000000E+00  0.00000E+00  9.000E+00
      21    -1     0     0   501   512  0.000000000E+00  0.000000000E+00 -1.565353718E+02  1.565353718E+02  0.000000000E+00  0.00000E+00  9.000E+00
      25     1     1     2     0     0 -1.125988365E+02  1.415823035E+02  4.539560186E+02  5.044057032E+02  1.250000000E+02  0.00000E+00  9.000E+00
      25     1     1     2     0     0  1.715384258E+02 -1.230517535E+02  1.758735587E+02  3.018669810E+02  1.250000000E+02  0.00000E+00  9.000E+00
      21     1     1     2   502   512 -5.893958930E+01 -1.853055006E+01 -5.434425639E+01  8.228338031E+01  2.023048729E-06  0.00000E+00  9.000E+00
#rwgt            1           1   2.3048817291293044E-002           7      391554           0
</event>
<event>
      5   9999  3.79277E-02  1.90661E+01 -1.00000E+00  1.68101E-01
      21    -1     0     0   502   501  0.000000000E+00  0.000000000E+00  1.028396071E+02  1.028396071E+02  0.000000000E+00  0.00000E+00  9.000E+00
       1    -1     0     0   501     0  0.000000000E+00  0.000000000E+00 -5.008097490E+02  5.008097490E+02  0.000000000E+00  0.00000E+00  9.000E+00
      25     1     1     2     0     0 -6.607057166E+01 -1.442476001E+02 -2.197820725E+02  2.984993299E+02  1.250000000E+02  0.00000E+00  9.000E+00
      25     1     1     2     0     0  4.715445461E+01  1.418605445E+02 -8.950225744E+01  2.144378949E+02  1.250000000E+02  0.00000E+00  9.000E+00
       1     1     1     2   502     0  1.891611704E+01  2.387055547E+00 -8.868581203E+01  9.071213135E+01  1.348699152E-06  0.00000E+00  9.000E+00
#rwgt            1           1   3.3864501506545207E-002           7      391672           0
</event>
<event>
      5   9999  3.79277E-02  2.87745E+01 -1.00000E+00  1.54309E-01
      21    -1     0     0   502   501  0.000000000E+00  0.000000000E+00  2.067403982E+02  2.067403982E+02  0.000000000E+00  0.00000E+00  9.000E+00
      21    -1     0     0   511   502  0.000000000E+00  0.000000000E+00 -9.829866512E+02  9.829866512E+02  0.000000000E+00  0.00000E+00  9.000E+00
      25     1     1     2     0     0 -2.199493827E+02  7.320816508E+01 -4.899595286E+01  2.678857401E+02  1.250000000E+02  0.00000E+00  9.000E+00
      25     1     1     2     0     0  1.968562608E+02 -9.037434299E+01 -6.424227961E+01  2.582091784E+02  1.250000000E+02  0.00000E+00  9.000E+00
      21     1     1     2   511   501  2.309312183E+01  1.716617792E+01 -6.630080205E+02  6.636321309E+02  1.078959322E-05  0.00000E+00  9.000E+00
#rwgt            1           1   3.6955087414182394E-002           7      391888           0
</event>
<event>
      5   9999  3.79277E-02  4.60236E+01 -1.00000E+00  1.41161E-01
      21    -1     0     0   502   512  0.000000000E+00  0.000000000E+00  8.067185100E+02  8.067185100E+02  0.000000000E+00  0.00000E+00  9.000E+00
      21    -1     0     0   501   502  0.000000000E+00  0.000000000E+00 -9.772128102E+01  9.772128102E+01  0.000000000E+00  0.00000E+00  9.000E+00
      25     1     1     2     0     0  1.779262567E+02  1.087535645E+02  2.889679021E+02  3.776407540E+02  1.250000000E+02  0.00000E+00  9.000E+00
      25     1     1     2     0     0 -2.105680920E+02 -7.630845910E+01  2.815113185E+02  3.808352987E+02  1.250000000E+02  0.00000E+00  9.000E+00
      21     1     1     2   501   512  3.264183528E+01 -3.244510538E+01  1.385180083E+02  1.459637383E+02  0.000000000E+00  0.00000E+00  9.000E+00
#rwgt            1           1   3.6275394333943965E-002           7      392049           0
</event>
<event>
      5   9999  3.79277E-02  2.38747E+01 -1.00000E+00  1.60264E-01
      21    -1     0     0   502   501  0.000000000E+00  0.000000000E+00  4.217506619E+01  4.217506619E+01  0.000000000E+00  0.00000E+00  9.000E+00
      21    -1     0     0   511   502  0.000000000E+00  0.000000000E+00 -1.673641891E+03  1.673641891E+03  0.000000000E+00  0.00000E+00  9.000E+00
      25     1     1     2     0     0 -8.734722033E+01  4.102065152E+01 -1.403487753E+02  2.112699919E+02  1.250000000E+02  0.00000E+00  9.000E+00
      25     1     1     2     0     0  1.051462137E+02 -5.693277199E+01 -1.193140543E+03  1.205614541E+03  1.250000000E+02  0.00000E+00  9.000E+00
      21     1     1     2   511   501 -1.779899341E+01  1.591212047E+01 -2.979775064E+02  2.989324240E+02  0.000000000E+00  0.00000E+00  9.000E+00
#rwgt            1           1   1.0155124356649180E-002           7      392203           0
</event>
<event>
      5   9999  3.79277E-02  4.50582E+02 -1.00000E+00  1.00153E-01
       2    -1     0     0   502     0  0.000000000E+00  0.000000000E+00  1.972271378E+03  1.972271378E+03  0.000000000E+00  0.00000E+00  9.000E+00
      21    -1     0     0   501   502  0.000000000E+00  0.000000000E+00 -1.119295239E+03  1.119295239E+03  0.000000000E+00  0.00000E+00  9.000E+00
      25     1     1     2     0     0  3.360681660E+02 -3.041399732E+02 -7.353068330E+02  8.727795106E+02  1.250000000E+02  0.00000E+00  9.000E+00
      25     1     1     2     0     0  9.834010465E+01  1.844991167E+02 -2.363117194E+02  3.393802130E+02  1.250000000E+02  0.00000E+00  9.000E+00
       2     1     1     2   501     0 -4.344082707E+02  1.196408565E+02  1.824594692E+03  1.879406893E+03  0.000000000E+00  0.00000E+00  9.000E+00
#rwgt            2          18   6.2347898275492549E-003           7      392308           0
</event>
<event>
      5   9999  3.79277E-02  3.63888E+01 -1.00000E+00  1.47436E-01
      21    -1     0     0   502   511  0.000000000E+00  0.000000000E+00  3.676592347E+03  3.676592347E+03  0.000000000E+00  0.00000E+00  9.000E+00
      21    -1     0     0   501   502  0.000000000E+00  0.000000000E+00 -1.177783086E+01  1.177783086E+01  0.000000000E+00  0.00000E+00  9.000E+00
      25     1     1     2     0     0 -8.152940218E+01 -2.938274293E+01  1.518171358E+03  1.525771825E+03  1.250000000E+02  0.00000E+00  9.000E+00
      25     1     1     2     0     0  5.396663693E+01  5.314063923E+01  6.811683840E+02  6.966718689E+02  1.250000000E+02  0.00000E+00  9.000E+00
      21     1     1     2   501   511  2.756276525E+01 -2.375789630E+01  1.465474774E+03  1.465926484E+03  3.051757812E-05  0.00000E+00  9.000E+00
#rwgt            1           1  0.11054026289581338                7      392357           0
</event>
<event>
      5   9999  3.79277E-02  1.54171E+01 -1.00000E+00  1.76269E-01
      -4    -1     0     0     0   501  0.000000000E+00  0.000000000E+00  8.649216587E+02  8.649216587E+02  0.000000000E+00  0.00000E+00  9.000E+00
      21    -1     0     0   501   502  0.000000000E+00  0.000000000E+00 -3.153130692E+02  3.153130692E+02  0.000000000E+00  0.00000E+00  9.000E+00
      25     1     1     2     0     0 -1.111286985E+02  1.415003938E+02 -2.274688292E+01  2.202597779E+02  1.250000000E+02  0.00000E+00  9.000E+00
      25     1     1     2     0     0  9.692424080E+01 -1.355071258E+02 -1.377430374E+02  2.497090987E+02  1.250000000E+02  0.00000E+00  9.000E+00
      -4     1     1     2     0   502  1.420445774E+01 -5.993268057E+00  7.100985098E+02  7.102658513E+02  0.000000000E+00  0.00000E+00  9.000E+00
#rwgt            1           1   3.4514456996208059E-002           7      392609           0
</event>
<event>
      5   9999  3.79277E-02  2.96507E+01 -1.00000E+00  1.53394E-01
      21    -1     0     0   511   501  0.000000000E+00  0.000000000E+00  4.271891959E+02  4.271891959E+02  0.000000000E+00  0.00000E+00  9.000E+00
      21    -1     0     0   501   502  0.000000000E+00  0.000000000E+00 -8.957612150E+01  8.957612150E+01  0.000000000E+00  0.00000E+00  9.000E+00
      25     1     1     2     0     0 -1.126386159E+02 -3.325346145E+01  2.593237247E+02  3.109132430E+02  1.250000000E+02  0.00000E+00  9.000E+00
      25     1     1     2     0     0  8.543009920E+01  4.503731812E+01  5.221443334E+01  1.663670909E+02  1.250000000E+02  0.00000E+00  9.000E+00
      21     1     1     2   511   502  2.720851674E+01 -1.178385666E+01  2.607491643E+01  3.948498357E+01  4.768371582E-07  0.00000E+00  9.000E+00
#rwgt            1           1   3.8860440068382941E-002           7      392814           0
</event>
<event>
      5   9999  3.79277E-02  2.12936E+02 -1.00000E+00  1.10666E-01
      21    -1     0     0   502   512  0.000000000E+00  0.000000000E+00  1.015278818E+03  1.015278818E+03  0.000000000E+00  0.00000E+00  9.000E+00
      21    -1     0     0   501   502  0.000000000E+00  0.000000000E+00 -7.602584531E+02  7.602584531E+02  0.000000000E+00  0.00000E+00  9.000E+00
      25     1     1     2     0     0  1.257410115E+02  6.583844708E+02 -8.295665076E+01  6.868680508E+02  1.250000000E+02  0.00000E+00  9.000E+00
      25     1     1     2     0     0 -3.233538357E+02 -7.377010632E+02  2.158421342E+02  8.431923794E+02  1.250000000E+02  0.00000E+00  9.000E+00
      21     1     1     2   501   512  1.976128242E+02  7.931659244E+01  1.221348814E+02  2.454768408E+02  3.015782986E-06  0.00000E+00  9.000E+00
#rwgt            1           1   3.4488793216436678E-002           7      392951           0
</event>
<event>
      5   9999  3.79277E-02  2.87362E+01 -1.00000E+00  1.54350E-01
      21    -1     0     0   511   501  0.000000000E+00  0.000000000E+00  6.937160343E+02  6.937160343E+02  0.000000000E+00  0.00000E+00  9.000E+00
      21    -1     0     0   501   502  0.000000000E+00  0.000000000E+00 -1.368892442E+02  1.368892442E+02  0.000000000E+00  0.00000E+00  9.000E+00
      25     1     1     2     0     0 -9.354945949E+01 -6.232788248E+01  5.151446166E+02  5.418812069E+02  1.250000000E+02  0.00000E+00  9.000E+00
      25     1     1     2     0     0  1.200443513E+02  7.345387920E+01 -4.824599151E+01  1.943162226E+02  1.250000000E+02  0.00000E+00  9.000E+00
      21     1     1     2   511   502 -2.649489185E+01 -1.112599672E+01  8.992816505E+01  9.440784907E+01  1.348699152E-06  0.00000E+00  9.000E+00
#rwgt            1           1   4.4746853172272068E-002           7      393083           0
</event>
<event>
      5   9999  3.79277E-02  3.82705E+01 -1.00000E+00  1.46041E-01
      21    -1     0     0   502   501  0.000000000E+00  0.000000000E+00  1.482417170E+02  1.482417170E+02  0.000000000E+00  0.00000E+00  9.000E+00
      21    -1     0     0   512   502  0.000000000E+00  0.000000000E+00 -1.039897708E+03  1.039897708E+03  0.000000000E+00  0.00000E+00  9.000E+00
      25     1     1     2     0     0 -2.491233516E+02  4.197037888E+01 -6.859922989E+02  7.416430349E+02  1.250000000E+02  0.00000E+00  9.000E+00
      25     1     1     2     0     0  2.583248920E+02 -4.822573327E+00 -5.653338737E+01  2.925338116E+02  1.250000000E+02  0.00000E+00  9.000E+00
      21     1     1     2   512   501 -9.201540315E+00 -3.714780555E+01 -1.491303049E+02  1.539625787E+02  1.907348633E-06  0.00000E+00  9.000E+00
#rwgt            1           1   8.3355560855128283E-002           7      393376           0
</event>
<event>
      5   9999  3.79277E-02  5.84179E+01 -1.00000E+00  1.35326E-01
      21    -1     0     0   511   501  0.000000000E+00  0.000000000E+00  7.750465265E+02  7.750465265E+02  0.000000000E+00  0.00000E+00  9.000E+00
      21    -1     0     0   501   502  0.000000000E+00  0.000000000E+00 -9.876570787E+02  9.876570787E+02  0.000000000E+00  0.00000E+00  9.000E+00
      25     1     1     2     0     0 -1.153312265E+02  1.592084181E+01 -1.028931554E+02  1.994160636E+02  1.250000000E+02  0.00000E+00  9.000E+00
      25     1     1     2     0     0  9.020431631E+01 -6.865881382E+01 -8.267921607E+02  8.438371456E+02  1.250000000E+02  0.00000E+00  9.000E+00
      21     1     1     2   511   502  2.512691014E+01  5.273797202E+01  7.170747638E+02  7.194503959E+02  0.000000000E+00  0.00000E+00  9.000E+00
#rwgt            1           1   4.4653217981554243E-002           7      393504           0
</event>
<event>
      5   9999  3.79277E-02  3.70232E+01 -1.00000E+00  1.46954E-01
      21    -1     0     0   502   501  0.000000000E+00  0.000000000E+00  4.428155965E+02  4.428155965E+02  0.000000000E+00  0.00000E+00  9.000E+00
      21    -1     0     0   501   512  0.000000000E+00  0.000000000E+00 -2.104606486E+02  2.104606486E+02  0.000000000E+00  0.00000E+00  9.000E+00
      25     1     1     2     0     0 -5.136671646E-01  1.728288180E+02  2.961006993E+02  3.649255929E+02  1.250000000E+02  0.00000E+00  9.000E+00
      25     1     1     2     0     0 -2.884297463E+00 -1.359619111E+02  3.038962482E+01  1.871963935E+02  1.250000000E+02  0.00000E+00  9.000E+00
      21     1     1     2   502   512  3.397964628E+00 -3.686690690E+01 -9.413537631E+01  1.011542587E+02  2.336015456E-06  0.00000E+00  9.000E+00
#rwgt            1           1   4.6793991049731115E-002           7      393560           0
</event>
<event>
      5   9999  3.79277E-02  8.85108E+00 -1.00000E+00  2.02091E-01
      21    -1     0     0   502   501  0.000000000E+00  0.000000000E+00  2.434543033E+02  2.434543033E+02  0.000000000E+00  0.00000E+00  9.000E+00
      21    -1     0     0   511   502  0.000000000E+00  0.000000000E+00 -2.400590746E+02  2.400590746E+02  0.000000000E+00  0.00000E+00  9.000E+00
      25     1     1     2     0     0 -1.262568261E+02  5.063852621E+01 -9.229526768E+01  2.065150428E+02  1.250000000E+02  0.00000E+00  9.000E+00
      25     1     1     2     0     0  1.236823860E+02 -4.217012224E+01  1.419546344E+02  2.298951283E+02  1.250000000E+02  0.00000E+00  9.000E+00
      21     1     1     2   511   501  2.574440177E+00 -8.468403969E+00 -4.626413805E+01  4.710320665E+01  6.743495762E-07  0.00000E+00  9.000E+00
#rwgt            1           1   4.4241851392199452E-002           7      393676           0
</event>
<event>
      5   9999  3.79277E-02  1.96572E+02 -1.00000E+00  1.11922E-01
      21    -1     0     0   502   501  0.000000000E+00  0.000000000E+00  3.556057770E+02  3.556057770E+02  0.000000000E+00  0.00000E+00  9.000E+00
       2    -1     0     0   501     0  0.000000000E+00  0.000000000E+00 -1.203298472E+03  1.203298472E+03  0.000000000E+00  0.00000E+00  9.000E+00
      25     1     1     2     0     0  2.152486627E+02 -6.634130989E+01  1.321486577E+02  2.895192980E+02  1.250000000E+02  0.00000E+00  9.000E+00
      25     1     1     2     0     0 -1.227625020E+02 -1.071141011E+02  5.776636482E+01  2.133213901E+02  1.250000000E+02  0.00000E+00  9.000E+00
       2     1     1     2   502     0 -9.248616063E+01  1.734554110E+02 -1.037607718E+03  1.056063561E+03  1.525878906E-05  0.00000E+00  9.000E+00
#rwgt            2          13   2.4055951822500609E-003           7      393996           0
</event>
<event>
      5   9999  3.79277E-02  1.30506E+01 -1.00000E+00  1.83276E-01
      21    -1     0     0   511   501  0.000000000E+00  0.000000000E+00  2.150413707E+03  2.150413707E+03  0.000000000E+00  0.00000E+00  9.000E+00
      21    -1     0     0   501   502  0.000000000E+00  0.000000000E+00 -2.906529266E+01  2.906529266E+01  0.000000000E+00  0.00000E+00  9.000E+00
      25     1     1     2     0     0 -1.409680545E+02 -1.308837149E+02  1.068925547E+03  1.093265459E+03  1.250000000E+02  0.00000E+00  9.000E+00
      25     1     1     2     0     0  1.435601718E+02  1.436742941E+02  8.347549295E+02  8.681547201E+02  1.250000000E+02  0.00000E+00  9.000E+00
      21     1     1     2   511   502 -2.592117300E+00 -1.279057921E+01  2.176679375E+02  2.180588201E+02  2.697398305E-06  0.00000E+00  9.000E+00
#rwgt            1           1  0.14960012530793651                7      394240           0
</event>
<event>
      5   9999  3.79277E-02  3.52240E+01 -1.00000E+00  1.48350E-01
      21    -1     0     0   502   512  0.000000000E+00  0.000000000E+00  3.799474401E+01  3.799474401E+01  0.000000000E+00  0.00000E+00  9.000E+00
      21    -1     0     0   501   502  0.000000000E+00  0.000000000E+00 -1.866205039E+03  1.866205039E+03  0.000000000E+00  0.00000E+00  9.000E+00
      25     1     1     2     0     0 -1.064670508E+02  1.078870921E+02 -3.010494737E+02  3.594866384E+02  1.250000000E+02  0.00000E+00  9.000E+00
      25     1     1     2     0     0  7.225587972E+01 -1.162729536E+02 -1.416569853E+03  1.428648123E+03  1.250000000E+02  0.00000E+00  9.000E+00
      21     1     1     2   501   512  3.421117113E+01  8.385861511E+00 -1.105909689E+02  1.160650219E+02  1.348699152E-06  0.00000E+00  9.000E+00
#rwgt            1           1   4.1653015788572466E-002           7      394464           0
</event>
<event>
      5   9999  3.79277E-02  7.15192E+01 -1.00000E+00  1.30750E-01
      21    -1     0     0   502   501  0.000000000E+00  0.000000000E+00  8.354449139E+01  8.354449139E+01  0.000000000E+00  0.00000E+00  9.000E+00
      21    -1     0     0   501   511  0.000000000E+00  0.000000000E+00 -1.844918189E+03  1.844918189E+03  0.000000000E+00  0.00000E+00  9.000E+00
      25     1     1     2     0     0  1.343888095E+02 -7.951559670E+01 -6.181284057E+01  2.093535514E+02  1.250000000E+02  0.00000E+00  9.000E+00
      25     1     1     2     0     0 -6.893858187E+01  1.083473374E+02 -1.002829961E+03  1.018717137E+03  1.250000000E+02  0.00000E+00  9.000E+00
      21     1     1     2   502   511 -6.545022761E+01 -2.883174071E+01 -6.967308962E+02  7.003919926E+02  1.078959322E-05  0.00000E+00  9.000E+00
#rwgt            1           1   3.3878132962248703E-002           7      394615           0
</event>
<event>
      5   9999  3.79277E-02  4.06722E+01 -1.00000E+00  1.44393E-01
      21    -1     0     0   512   501  0.000000000E+00  0.000000000E+00  1.310435911E+03  1.310435911E+03  0.000000000E+00  0.00000E+00  9.000E+00
      21    -1     0     0   501   502  0.000000000E+00  0.000000000E+00 -2.967231471E+01  2.967231471E+01  0.000000000E+00  0.00000E+00  9.000E+00
      25     1     1     2     0     0  1.027584721E+02 -1.002371194E+01  4.086448649E+02  4.396309862E+02  1.250000000E+02  0.00000E+00  9.000E+00
      25     1     1     2     0     0 -1.332452189E+02 -1.689807842E+01  7.061436712E+02  7.295914732E+02  1.250000000E+02  0.00000E+00  9.000E+00
      21     1     1     2   512   502  3.048674684E+01  2.692179036E+01  1.659750601E+02  1.708857662E+02  0.000000000E+00  0.00000E+00  9.000E+00
#rwgt            1           1   3.9345881864285143E-002           7      394753           0
</event>
<event>
      5   9999 -3.79277E-02  6.60915E+01 -1.00000E+00  1.32497E-01
      21    -1     0     0   502   511  0.000000000E+00  0.000000000E+00  9.060324265E+02  9.060324265E+02  0.000000000E+00  0.00000E+00  9.000E+00
      21    -1     0     0   501   502  0.000000000E+00  0.000000000E+00 -1.809307744E+02  1.809307744E+02  0.000000000E+00  0.00000E+00  9.000E+00
      25     1     1     2     0     0  1.612450081E+02 -3.665459075E+01 -9.259452486E+01  2.270292001E+02  1.250000000E+02  0.00000E+00  9.000E+00
      25     1     1     2     0     0 -9.536087643E+01  3.142332453E+01  3.205197331E+02  3.583839022E+02  1.250000000E+02  0.00000E+00  9.000E+00
      21     1     1     2   501   511 -6.588413166E+01  5.231266222E+00  4.971764439E+02  5.015500985E+02  9.344061824E-06  0.00000E+00  9.000E+00
#rwgt            1           1  -7.3698108906077465E-003           7      394835           0
</event>
<event>
      5   9999  3.79277E-02  1.48478E+01 -1.00000E+00  1.77802E-01
      21    -1     0     0   512   501  0.000000000E+00  0.000000000E+00  3.494802781E+02  3.494802781E+02  0.000000000E+00  0.00000E+00  9.000E+00
      21    -1     0     0   501   502  0.000000000E+00  0.000000000E+00 -5.881902665E+02  5.881902665E+02  0.000000000E+00  0.00000E+00  9.000E+00
      25     1     1     2     0     0  4.140597415E+02  7.029366443E+01 -2.189066761E+02  4.898283389E+02  1.250000000E+02  0.00000E+00  9.000E+00
      25     1     1     2     0     0 -4.000906153E+02 -7.532562205E+01 -3.408703549E+01  4.272392488E+02  1.250000000E+02  0.00000E+00  9.000E+00
      21     1     1     2   512   502 -1.396912620E+01  5.031957622E+00  1.428372320E+01  2.060295689E+01  3.371747881E-07  0.00000E+00  9.000E+00
#rwgt            1           1   2.3044237519367811E-002           7      394935           0
</event>
<event>
      5   9999  3.79277E-02  1.04081E+02 -1.00000E+00  1.23052E-01
       2    -1     0     0   502     0  0.000000000E+00  0.000000000E+00  2.275647538E+02  2.275647538E+02  0.000000000E+00  0.00000E+00  9.000E+00
      21    -1     0     0   501   502  0.000000000E+00  0.000000000E+00 -4.043579200E+02  4.043579200E+02  0.000000000E+00  0.00000E+00  9.000E+00
      25     1     1     2     0     0 -1.820796378E+02  6.976306154E+01 -6.518488058E+01  2.406116121E+02  1.250000000E+02  0.00000E+00  9.000E+00
      25     1     1     2     0     0  1.609043491E+02 -1.716676545E+02 -1.070440569E+02  2.871296280E+02  1.250000000E+02  0.00000E+00  9.000E+00
       2     1     1     2   501     0  2.117528863E+01  1.019045930E+02 -4.564228654E+00  1.041814336E+02  1.268613139E-06  0.00000E+00  9.000E+00
#rwgt            1           1   2.5389712444860973E-002           7      395267           0
</event>
<event>
      5   9999  3.79277E-02  8.54249E+01 -1.00000E+00  1.26985E-01
      21    -1     0     0   502   501  0.000000000E+00  0.000000000E+00  7.272278939E+02  7.272278939E+02  0.000000000E+00  0.00000E+00  9.000E+00
      21    -1     0     0   511   502  0.000000000E+00  0.000000000E+00 -2.758120833E+02  2.758120833E+02  0.000000000E+00  0.00000E+00  9.000E+00
      25     1     1     2     0     0  4.788772279E+01 -2.012104737E+02  3.553579849E+02  4.297478169E+02  1.250000000E+02  0.00000E+00  9.000E+00
      25     1     1     2     0     0 -5.889769514E+01  1.164980532E+02  3.010929047E+02  3.511732794E+02  1.250000000E+02  0.00000E+00  9.000E+00
      21     1     1     2   511   501  1.100997236E+01  8.471242050E+01 -2.050350790E+02  2.221188810E+02  2.697398305E-06  0.00000E+00  9.000E+00
#rwgt            1           1   3.6559642338346909E-002           7      395407           0
</event>
<event>
      5   9999 -3.79277E-02  1.46657E+01 -1.00000E+00  1.78311E-01
      21    -1     0     0   502   512  0.000000000E+00  0.000000000E+00  6.749796851E+02  6.749796851E+02  0.000000000E+00  0.00000E+00  9.000E+00
      21    -1     0     0   501   502  0.000000000E+00  0.000000000E+00 -7.319580051E+01  7.319580051E+01  0.000000000E+00  0.00000E+00  9.000E+00
      25     1     1     2     0     0 -1.471952210E+02  6.351944179E+01  1.981223092E+02  2.838637032E+02  1.250000000E+02  0.00000E+00  9.000E+00
      25     1     1     2     0     0  1.537264198E+02 -7.665056443E+01  3.573084850E+02  4.156939675E+02  1.250000000E+02  0.00000E+00  9.000E+00
      21     1     1     2   501   512 -6.531198789E+00  1.313112264E+01  4.635309035E+01  4.861781489E+01  9.536743164E-07  0.00000E+00  9.000E+00
#rwgt            1           1  -4.6471051733908614E-002           7      395457           0
</event>
<event>
      5   9999  3.79277E-02  1.54322E+02 -1.00000E+00  1.15907E-01
      21    -1     0     0   502   501  0.000000000E+00  0.000000000E+00  5.357774264E+02  5.357774264E+02  0.000000000E+00  0.00000E+00  9.000E+00
      21    -1     0     0   501   511  0.000000000E+00  0.000000000E+00 -2.149730714E+02  2.149730714E+02  0.000000000E+00  0.00000E+00  9.000E+00
      25     1     1     2     0     0 -1.015001474E+02 -3.352399124E+01  1.173868914E+02  2.020663756E+02  1.250000000E+02  0.00000E+00  9.000E+00
      25     1     1     2     0     0  2.547245876E+02  5.189999392E+01  2.559818765E+02  3.856552165E+02  1.250000000E+02  0.00000E+00  9.000E+00
      21     1     1     2   502   511 -1.532244402E+02 -1.837600268E+01 -5.256441290E+01  1.630289056E+02  2.523185073E-06  0.00000E+00  9.000E+00
#rwgt            1           1   4.1235069262303414E-002           7      395636           0
</event>
<event>
      5   9999  3.79277E-02  9.61860E+01 -1.00000E+00  1.24592E-01
      21    -1     0     0   502   501  0.000000000E+00  0.000000000E+00  4.568832654E+02  4.568832654E+02  0.000000000E+00  0.00000E+00  9.000E+00
       2    -1     0     0   501     0  0.000000000E+00  0.000000000E+00 -9.038293235E+02  9.038293235E+02  0.000000000E+00  0.00000E+00  9.000E+00
      25     1     1     2     0     0  7.598382275E+01  1.867401929E+01 -7.222800150E+01  1.642076262E+02  1.250000000E+02  0.00000E+00  9.000E+00
      25     1     1     2     0     0 -1.591161300E+02 -6.705553535E+01  3.799874996E+02  4.356947182E+02  1.250000000E+02  0.00000E+00  9.000E+00
       2     1     1     2   502     0  8.313230725E+01  4.838151606E+01 -7.547055561E+02  7.608102444E+02  1.078959322E-05  0.00000E+00  9.000E+00
#rwgt            2          13   1.2373070686038849E-003           7      395947           0
</event>
<event>
      5   9999  3.79277E-02  3.11463E+01 -1.00000E+00  1.51917E-01
      21    -1     0     0   511   501  0.000000000E+00  0.000000000E+00  1.880674506E+02  1.880674506E+02  0.000000000E+00  0.00000E+00  9.000E+00
      21    -1     0     0   501   502  0.000000000E+00  0.000000000E+00 -7.812945934E+02  7.812945934E+02  0.000000000E+00  0.00000E+00  9.000E+00
      25     1     1     2     0     0 -7.314278172E+01  2.114402959E+02 -3.207153727E+02  4.105364972E+02  1.250000000E+02  0.00000E+00  9.000E+00
      25     1     1     2     0     0  4.599308735E+01 -2.267041055E+02 -3.714539381E+02  4.550968508E+02  1.250000000E+02  0.00000E+00  9.000E+00
      21     1     1     2   511   502  2.714969438E+01  1.526380966E+01  9.894216794E+01  1.037286961E+02  1.348699152E-06  0.00000E+00  9.000E+00
#rwgt            1           1   3.6866655175489718E-002           7      395981           0
</event>
<event>
      5   9999  3.79277E-02  8.00239E+01 -1.00000E+00  1.28343E-01
       1    -1     0     0   502     0  0.000000000E+00  0.000000000E+00  1.294583510E+03  1.294583510E+03  0.000000000E+00  0.00000E+00  9.000E+00
      21    -1     0     0   501   502  0.000000000E+00  0.000000000E+00 -7.527632602E+01  7.527632602E+01  0.000000000E+00  0.00000E+00  9.000E+00
      25     1     1     2     0     0 -1.005364651E+02 -3.943735926E+01  6.781525969E+01  1.785687418E+02  1.250000000E+02  0.00000E+00  9.000E+00
      25     1     1     2     0     0  1.787236087E+02  5.648403516E+01  8.416545763E+02  8.712864055E+02  1.250000000E+02  0.00000E+00  9.000E+00
       1     1     1     2   501     0 -7.818714361E+01 -1.704667589E+01  3.098373476E+02  3.200046883E+02  3.814697266E-06  0.00000E+00  9.000E+00
#rwgt            1           1   4.2602920205214993E-002           7      396148           0
</event>
<event>
      5   9999  3.79277E-02  1.66936E+01 -1.00000E+00  1.73116E-01
      21    -1     0     0   502   501  0.000000000E+00  0.000000000E+00  7.563133269E+01  7.563133269E+01  0.000000000E+00  0.00000E+00  9.000E+00
      21    -1     0     0   501   511  0.000000000E+00  0.000000000E+00 -4.102871148E+03  4.102871148E+03  0.000000000E+00  0.00000E+00  9.000E+00
      25     1     1     2     0     0 -1.092604695E+01  1.091665839E+02 -3.889737592E+02  4.230393680E+02  1.250000000E+02  0.00000E+00  9.000E+00
      25     1     1     2     0     0  2.513806270E+01 -1.179241934E+02 -7.014902290E+01  1.873070287E+02  1.250000000E+02  0.00000E+00  9.000E+00
      21     1     1     2   502   511 -1.421201575E+01  8.757609462E+00 -3.568117033E+03  3.568156084E+03  6.103515625E-05  0.00000E+00  9.000E+00
#rwgt            1           1   4.6811255520934375E-002           7      396187           0
</event>
<event>
      5   9999  3.79277E-02  3.19657E+02 -1.00000E+00  1.04704E-01
      21    -1     0     0   502   512  0.000000000E+00  0.000000000E+00  6.024812797E+02  6.024812797E+02  0.000000000E+00  0.00000E+00  9.000E+00
      21    -1     0     0   501   502  0.000000000E+00  0.000000000E+00 -2.501976687E+02  2.501976687E+02  0.000000000E+00  0.00000E+00  9.000E+00
      25     1     1     2     0     0 -1.331076209E+02 -1.620697114E+02  8.923109770E-01  2.441516461E+02  1.250000000E+02  0.00000E+00  9.000E+00
      25     1     1     2     0     0 -4.172310165E+01 -1.055401567E+02  1.761144822E+02  2.439689586E+02  1.250000000E+02  0.00000E+00  9.000E+00
      21     1     1     2   501   512  1.748307226E+02  2.676098681E+02  1.752768178E+02  3.645583437E+02  7.387129490E-06  0.00000E+00  9.000E+00
#rwgt            2          11   3.8488334292616526E-004           7      396629           0
</event>
<event>
      5   9999  3.79277E-02  1.84400E+01 -1.00000E+00  1.69333E-01
      21    -1     0     0   502   501  0.000000000E+00  0.000000000E+00  2.697014800E+02  2.697014800E+02  0.000000000E+00  0.00000E+00  9.000E+00
      21    -1     0     0   511   502  0.000000000E+00  0.000000000E+00 -3.694629910E+02  3.694629910E+02  0.000000000E+00  0.00000E+00  9.000E+00
      25     1     1     2     0     0  5.853813355E+01  2.332911381E+02 -1.144989156E+02  2.942557899E+02  1.250000000E+02  0.00000E+00  9.000E+00
      25     1     1     2     0     0 -6.703561085E+01 -2.169257177E+02  8.461035467E+01  2.726434526E+02  1.250000000E+02  0.00000E+00  9.000E+00
      21     1     1     2   511   501  8.497477307E+00 -1.636542045E+01 -6.987295010E+01  7.226522859E+01  9.536743164E-07  0.00000E+00  9.000E+00
#rwgt            1           1   4.1679191897481427E-002           7      396679           0
</event>
<event>
      5   9999  3.79277E-02  4.14181E+01 -1.00000E+00  1.43908E-01
       2    -1     0     0   502     0  0.000000000E+00  0.000000000E+00  1.658715851E+03  1.658715851E+03  0.000000000E+00  0.00000E+00  9.000E+00
      21    -1     0     0   501   502  0.000000000E+00  0.000000000E+00 -4.809228065E+01  4.809228065E+01  0.000000000E+00  0.00000E+00  9.000E+00
      25     1     1     2     0     0 -1.004486861E+02  4.747583771E+00  1.291767461E+02  2.059711383E+02  1.250000000E+02  0.00000E+00  9.000E+00
      25     1     1     2     0     0  6.455043290E+01  1.591087971E+01  5.329117897E+02  5.513981230E+02  1.250000000E+02  0.00000E+00  9.000E+00
       2     1     1     2   501     0  3.589825317E+01 -2.065846348E+01  9.485350341E+02  9.494388699E+02  1.078959322E-05  0.00000E+00  9.000E+00
#rwgt            1           1   4.6054127200389712E-002           7      396902           0
</event>
<event>
      5   9999  3.79277E-02  1.55138E+01 -1.00000E+00  1.76017E-01
      21    -1     0     0   502   511  0.000000000E+00  0.000000000E+00  1.858031610E+02  1.858031610E+02  0.000000000E+00  0.00000E+00  9.000E+00
      21    -1     0     0   501   502  0.000000000E+00  0.000000000E+00 -2.002352827E+02  2.002352827E+02  0.000000000E+00  0.00000E+00  9.000E+00
      25     1     1     2     0     0 -1.050189276E+01 -6.695782263E+00 -1.439271397E+02  1.910370247E+02  1.250000000E+02  0.00000E+00  9.000E+00
      25     1     1     2     0     0  2.578362653E+01  4.022370238E+00  1.253635431E+02  1.789468994E+02  1.250000000E+02  0.00000E+00  9.000E+00
      21     1     1     2   501   511 -1.528173377E+01  2.673412025E+00  4.131474933E+00  1.605451974E+01  3.953724850E-07  0.00000E+00  9.000E+00
#rwgt            1           1   3.5363955674411127E-002           7      397149           0
</event>
<event>
      5   9999  3.79277E-02  7.17930E+01 -1.00000E+00  1.30667E-01
      21    -1     0     0   502   512  0.000000000E+00  0.000000000E+00  4.251222188E+02  4.251222188E+02  0.000000000E+00  0.00000E+00  9.000E+00
      21    -1     0     0   501   502  0.000000000E+00  0.000000000E+00 -7.755216694E+02  7.755216694E+02  0.000000000E+00  0.00000E+00  9.000E+00
      25     1     1     2     0     0 -1.414983224E+02  1.177931336E+02 -5.131457215E+02  5.593214899E+02  1.250000000E+02  0.00000E+00  9.000E+00
      25     1     1     2     0     0  2.123029902E+02 -1.059218723E+02 -1.589311582E+02  3.117308386E+02  1.250000000E+02  0.00000E+00  9.000E+00
      21     1     1     2   501   512 -7.080466783E+01 -1.187126124E+01  3.216774291E+02  3.295915597E+02  3.814697266E-06  0.00000E+00  9.000E+00
#rwgt            1           1   3.8474308274361525E-002           7      397510           0
</event>
<event>
      5   9999  3.79277E-02  1.62492E+01 -1.00000E+00  1.74172E-01
      21    -1     0     0   502   511  0.000000000E+00  0.000000000E+00  3.564659456E+01  3.564659456E+01  0.000000000E+00  0.00000E+00  9.000E+00
      21    -1     0     0   501   502  0.000000000E+00  0.000000000E+00 -2.291417051E+03  2.291417051E+03  0.000000000E+00  0.00000E+00  9.000E+00
      25     1     1     2     0     0  3.655391076E+01  7.043077989E+01 -2.068424631E+03  2.073716986E+03  1.250000000E+02  0.00000E+00  9.000E+00
      25     1     1     2     0     0 -2.527764044E+01 -8.213049615E+01 -1.803384435E+02  2.356508683E+02  1.250000000E+02  0.00000E+00  9.000E+00
      21     1     1     2   501   511 -1.127627032E+01  1.169971626E+01 -7.007381847E+00  1.769579140E+01  6.743495762E-07  0.00000E+00  9.000E+00
#rwgt            1           1  0.10151670445336390                7      397592           0
</event>
<event>
      5   9999  3.79277E-02  1.14718E+02 -1.00000E+00  1.21204E-01
      21    -1     0     0   502   501  0.000000000E+00  0.000000000E+00  4.973806031E+02  4.973806031E+02  0.000000000E+00  0.00000E+00  9.000E+00
      21    -1     0     0   501   512  0.000000000E+00  0.000000000E+00 -1.814748383E+02  1.814748383E+02  0.000000000E+00  0.00000E+00  9.000E+00
      25     1     1     2     0     0  2.515787326E+02  4.806035180E+01  1.788137761E+02  3.364535965E+02  1.250000000E+02  0.00000E+00  9.000E+00
      25     1     1     2     0     0 -1.537901363E+02  1.191890658E+01  9.614643473E+01  2.205960183E+02  1.250000000E+02  0.00000E+00  9.000E+00
      21     1     1     2   502   512 -9.778859630E+01 -5.997925838E+01  4.094555404E+01  1.218058266E+02  8.259061849E-07  0.00000E+00  9.000E+00
#rwgt            1           1   3.1261425597544551E-002           7      397831           0
</event>
<event>
      5   9999  3.79277E-02  7.08113E+01 -1.00000E+00  1.30968E-01
      21    -1     0     0   502   501  0.000000000E+00  0.000000000E+00  1.881683129E+02  1.881683129E+02  0.000000000E+00  0.00000E+00  9.000E+00
      21    -1     0     0   511   502  0.000000000E+00  0.000000000E+00 -1.134853901E+03  1.134853901E+03  0.000000000E+00  0.00000E+00  9.000E+00
      25     1     1     2     0     0  2.489277963E+02  1.130120503E+02 -2.933303153E+02  4.200052918E+02  1.250000000E+02  0.00000E+00  9.000E+00
      25     1     1     2     0     0 -1.980432496E+02 -1.622563978E+02 -4.248887540E+01  2.880600144E+02  1.250000000E+02  0.00000E+00  9.000E+00
      21     1     1     2   511   501 -5.088454672E+01  4.924434752E+01 -6.108663976E+02  6.149569079E+02  1.078959322E-05  0.00000E+00  9.000E+00
#rwgt            1           1   3.7873613702377094E-002           7      397897           0
</event>
<event>
      5   9999  3.79277E-02  3.19101E+01 -1.00000E+00  1.51201E-01
      21    -1     0     0   502   512  0.000000000E+00  0.000000000E+00  8.576959433E+02  8.576959433E+02  0.000000000E+00  0.00000E+00  9.000E+00
      21    -1     0     0   501   502  0.000000000E+00  0.000000000E+00 -1.103176612E+02  1.103176612E+02  0.000000000E+00  0.00000E+00  9.000E+00
      25     1     1     2     0     0  1.763274885E+02  2.788885261E+01  2.968849391E+02  3.682863538E+02  1.250000000E+02  0.00000E+00  9.000E+00
      25     1     1     2     0     0 -1.849282178E+02 -5.861806957E+01  1.063470707E+02  2.541047486E+02  1.250000000E+02  0.00000E+00  9.000E+00
      21     1     1     2   501   512  8.600729284E+00  3.072921696E+01  3.441462722E+02  3.456225022E+02  5.394796609E-06  0.00000E+00  9.000E+00
#rwgt            1           1  0.13657249531044952                7      398000           0
</event>
<event>
      5   9999  3.79277E-02  3.86225E+01 -1.00000E+00  1.45790E-01
      21    -1     0     0   502   501  0.000000000E+00  0.000000000E+00  7.618362825E+02  7.618362825E+02  0.000000000E+00  0.00000E+00  9.000E+00
       2    -1     0     0   501     0  0.000000000E+00  0.000000000E+00 -5.213160630E+02  5.213160630E+02  0.000000000E+00  0.00000E+00  9.000E+00
      25     1     1     2     0     0 -1.561384154E+02  2.990902420E+01 -1.477411807E+01  2.027733441E+02  1.250000000E+02  0.00000E+00  9.000E+00
      25     1     1     2     0     0  1.295467063E+02 -5.791940358E+01  6.534963261E+02  6.803083526E+02  1.250000000E+02  0.00000E+00  9.000E+00
       2     1     1     2   502     0  2.659170916E+01  2.801037938E+01 -3.982019885E+02  4.000706488E+02  7.629394531E-06  0.00000E+00  9.000E+00
#rwgt            1           1   2.0152572564411036E-002           7      398204           0
</event>
<event>
      5   9999  3.79277E-02  2.24952E+01 -1.00000E+00  1.62263E-01
      21    -1     0     0   502   501  0.000000000E+00  0.000000000E+00  1.160385154E+03  1.160385154E+03  0.000000000E+00  0.00000E+00  9.000E+00
      -4    -1     0     0     0   502  0.000000000E+00  0.000000000E+00 -2.930807064E+02  2.930807064E+02  0.000000000E+00  0.00000E+00  9.000E+00
      25     1     1     2     0     0 -1.301856308E+02  2.197621336E+02  4.752319282E+02  5.538177312E+02  1.250000000E+02  0.00000E+00  9.000E+00
      25     1     1     2     0     0  1.484317122E+02 -2.066047738E+02  6.141657495E+02  6.764185639E+02  1.250000000E+02  0.00000E+00  9.000E+00
      -4     1     1     2     0   501 -1.824608145E+01 -1.315735978E+01 -2.220932305E+02  2.232295649E+02  4.672030912E-06  0.00000E+00  9.000E+00
#rwgt            1           1   4.2751157557012233E-002           7      398337           0
</event>
<event>
      5   9999  3.79277E-02  2.17418E+02 -1.00000E+00  1.10344E-01
      21    -1     0     0   502   501  0.000000000E+00  0.000000000E+00  6.152953165E+02  6.152953165E+02  0.000000000E+00  0.00000E+00  9.000E+00
       2    -1     0     0   501     0  0.000000000E+00  0.000000000E+00 -7.943910752E+02  7.943910752E+02  0.000000000E+00  0.00000E+00  9.000E+00
      25     1     1     2     0     0  2.094722216E+02 -2.393860620E+01  2.742731831E+02  3.678348100E+02  1.250000000E+02  0.00000E+00  9.000E+00
      25     1     1     2     0     0 -1.063038958E+02 -1.674431364E+02  2.277625072E+02  3.268615638E+02  1.250000000E+02  0.00000E+00  9.000E+00
       2     1     1     2   502     0 -1.031683258E+02  1.913817426E+02 -6.811314490E+02  7.149900179E+02  1.078959322E-05  0.00000E+00  9.000E+00
#rwgt            2          13   1.9294278551560680E-003           7      398659           0
</event>
<event>
      5   9999  3.79277E-02  2.12350E+02 -1.00000E+00  1.10709E-01
      21    -1     0     0   511   501  0.000000000E+00  0.000000000E+00  5.984785601E+01  5.984785601E+01  0.000000000E+00  0.00000E+00  9.000E+00
      21    -1     0     0   501   502  0.000000000E+00  0.000000000E+00 -1.829889837E+03  1.829889837E+03  0.000000000E+00  0.00000E+00  9.000E+00
      25     1     1     2     0     0 -1.351810237E+02  8.932399620E+01 -3.162499621E+02  3.766851789E+02  1.250000000E+02  0.00000E+00  9.000E+00
      25     1     1     2     0     0 -7.540375040E+01 -1.166496415E+02 -9.157755243E+02  9.346457486E+02  1.250000000E+02  0.00000E+00  9.000E+00
      21     1     1     2   511   502  2.105847741E+02  2.732564533E+01 -5.380164947E+02  5.784067657E+02  1.078959322E-05  0.00000E+00  9.000E+00
#rwgt            1           1   4.2491983202360556E-002           7      398678           0
</event>
<event>
      5   9999  3.79277E-02  5.17299E+01 -1.00000E+00  1.38238E-01
      21    -1     0     0   502   501  0.000000000E+00  0.000000000E+00  7.758076012E+01  7.758076012E+01  0.000000000E+00  0.00000E+00  9.000E+00
      21    -1     0     0   501   512  0.000000000E+00  0.000000000E+00 -1.537327667E+03  1.537327667E+03  0.000000000E+00  0.00000E+00  9.000E+00
      25     1     1     2     0     0 -2.073997536E+02 -2.741315886E+01 -2.342030133E+02  3.379973232E+02  1.250000000E+02  0.00000E+00  9.000E+00
      25     1     1     2     0     0  2.564795885E+02  1.106829252E+01 -8.244423231E+02  8.724874959E+02  1.250000000E+02  0.00000E+00  9.000E+00
      21     1     1     2   502   512 -4.907983490E+01  1.634486634E+01 -4.011015707E+02  4.044236082E+02  0.000000000E+00  0.00000E+00  9.000E+00
#rwgt            1           1   4.0761275424594359E-002           7      398766           0
</event>
<event>
      5   9999  3.79277E-02  2.98078E+01 -1.00000E+00  1.53234E-01
      21    -1     0     0   502   511  0.000000000E+00  0.000000000E+00  3.269747600E+02  3.269747600E+02  0.000000000E+00  0.00000E+00  9.000E+00
      21    -1     0     0   501   502  0.000000000E+00  0.000000000E+00 -2.851530185E+03  2.851530185E+03  0.000000000E+00  0.00000E+00  9.000E+00
      25     1     1     2     0     0 -1.254750732E+02  9.557458185E+01 -1.378831778E+03  1.393441986E+03  1.250000000E+02  0.00000E+00  9.000E+00
      25     1     1     2     0     0  1.005519239E+02 -1.119252347E+02 -1.458153025E+03  1.471214869E+03  1.250000000E+02  0.00000E+00  9.000E+00
      21     1     1     2   501   511  2.492314931E+01  1.635065280E+01  3.124293783E+02  3.138480900E+02  1.206313194E-05  0.00000E+00  9.000E+00
#rwgt            1           1   2.8119524393890542E-002           7      398851           0
</event>
<event>
      5   9999  3.79277E-02  2.21246E+01 -1.00000E+00  1.62831E-01
      21    -1     0     0   502   501  0.000000000E+00  0.000000000E+00  2.319536664E+01  2.319536664E+01  0.000000000E+00  0.00000E+00  9.000E+00
      21    -1     0     0   512   502  0.000000000E+00  0.000000000E+00 -1.087609840E+03  1.087609840E+03  0.000000000E+00  0.00000E+00  9.000E+00
      25     1     1     2     0     0 -5.570551980E+01  3.856161216E+01 -4.826882486E+02  5.031928539E+02  1.250000000E+02  0.00000E+00  9.000E+00
      25     1     1     2     0     0  6.716195415E+01 -5.748900110E+01 -4.972319077E+02  5.202694335E+02  1.250000000E+02  0.00000E+00  9.000E+00
      21     1     1     2   512   501 -1.145643435E+01  1.892738894E+01 -8.449431731E+01  8.734291956E+01  1.348699152E-06  0.00000E+00  9.000E+00
#rwgt            1           1   8.3276927419900851E-002           7      399065           0
</event>
<event>
      5   9999  3.79277E-02  1.61636E+01 -1.00000E+00  1.74380E-01
      21    -1     0     0   502   501  0.000000000E+00  0.000000000E+00  3.468843775E+02  3.468843775E+02  0.000000000E+00  0.00000E+00  9.000E+00
      21    -1     0     0   501   511  0.000000000E+00  0.000000000E+00 -2.565514653E+03  2.565514653E+03  0.000000000E+00  0.00000E+00  9.000E+00
      25     1     1     2     0     0 -1.656082288E+02 -1.500645154E+02 -9.813097994E+01  2.742264273E+02  1.250000000E+02  0.00000E+00  9.000E+00
      25     1     1     2     0     0  1.666600256E+02  1.661938639E+02  1.902045788E+02  3.274121964E+02  1.250000000E+02  0.00000E+00  9.000E+00
      21     1     1     2   502   511 -1.051796810E+00 -1.612934849E+01 -2.310703874E+03  2.310760407E+03  3.051757812E-05  0.00000E+00  9.000E+00
#rwgt            1           1   4.0181492439237194E-002           7      399256           0
</event>
<event>
      5   9999  3.79277E-02  3.76307E+01 -1.00000E+00  1.46504E-01
      21    -1     0     0   502   512  0.000000000E+00  0.000000000E+00  1.528247718E+02  1.528247718E+02  0.000000000E+00  0.00000E+00  9.000E+00
      21    -1     0     0   501   502  0.000000000E+00  0.000000000E+00 -2.699544589E+02  2.699544589E+02  0.000000000E+00  0.00000E+00  9.000E+00
      25     1     1     2     0     0 -1.249976754E+02 -3.658314118E+01 -1.310196045E+02  2.230557819E+02  1.250000000E+02  0.00000E+00  9.000E+00
      25     1     1     2     0     0  1.021818073E+02  6.658108954E+00  1.010724282E+01  1.619030837E+02  1.250000000E+02  0.00000E+00  9.000E+00
      21     1     1     2   501   512  2.281586810E+01  2.992503223E+01  3.782674511E+00  3.782036511E+01  4.786961795E-07  0.00000E+00  9.000E+00
#rwgt            1           1   3.8541844682281771E-002           7      399518           0
</event>
<event>
      5   9999  3.79277E-02  4.79372E+01 -1.00000E+00  1.40128E-01
      21    -1     0     0   511   501  0.000000000E+00  0.000000000E+00  5.863643365E+02  5.863643365E+02  0.000000000E+00  0.00000E+00  9.000E+00
      21    -1     0     0   501   502  0.000000000E+00  0.000000000E+00 -1.596991532E+02  1.596991532E+02  0.000000000E+00  0.00000E+00  9.000E+00
      25     1     1     2     0     0  1.041514902E+02 -3.762153300E+01  2.934550424E+02  3.376444499E+02  1.250000000E+02  0.00000E+00  9.000E+00
      25     1     1     2     0     0 -1.244833808E+02 -5.790348782E+00 -7.717534334E+01  1.926413088E+02  1.250000000E+02  0.00000E+00  9.000E+00
      21     1     1     2   511   502  2.033189061E+01  4.341188178E+01  2.103854842E+02  2.157777311E+02  0.000000000E+00  0.00000E+00  9.000E+00
#rwgt            1           1   4.3630395118657607E-002           7      399641           0
</event>
<event>
      5   9999  3.79277E-02  1.37625E+02 -1.00000E+00  1.17895E-01
       2    -1     0     0   502     0  0.000000000E+00  0.000000000E+00  1.688539848E+03  1.688539848E+03  0.000000000E+00  0.00000E+00  9.000E+00
      21    -1     0     0   501   502  0.000000000E+00  0.000000000E+00 -2.843534915E+02  2.843534915E+02  0.000000000E+00  0.00000E+00  9.000E+00
      25     1     1     2     0     0 -3.608752849E+02  2.502985969E+02  3.350223482E+02  5.663438290E+02  1.250000000E+02  0.00000E+00  9.000E+00
      25     1     1     2     0     0  2.233000869E+02 -2.466126392E+02  2.818344134E+01  3.565109101E+02  1.250000000E+02  0.00000E+00  9.000E+00
       2     1     1     2   501     0  1.375751980E+02 -3.685957718E+00  1.040980567E+03  1.050038600E+03  2.157918644E-05  0.00000E+00  9.000E+00
#rwgt            1           1   3.6470263072502722E-002           7      399836           0
</event>
<event>
      5   9999  3.79277E-02  5.61140E+01 -1.00000E+00  1.36276E-01
      21    -1     0     0   502   501  0.000000000E+00  0.000000000E+00  3.698941115E+02  3.698941115E+02  0.000000000E+00  0.00000E+00  9.000E+00
      21    -1     0     0   511   502  0.000000000E+00  0.000000000E+00 -6.269144845E+02  6.269144845E+02  0.000000000E+00  0.00000E+00  9.000E+00
      25     1     1     2     0     0  1.531253131E+02  3.112863471E+01  2.847344753E+02  3.480159117E+02  1.250000000E+02  0.00000E+00  9.000E+00
      25     1     1     2     0     0 -1.557090145E+02  2.492587052E+01 -1.448424676E+02  2.479333310E+02  1.250000000E+02  0.00000E+00  9.000E+00
      21     1     1     2   511   501  2.583701444E+00 -5.605450523E+01 -3.969123807E+02  4.008593532E+02  7.629394531E-06  0.00000E+00  9.000E+00
#rwgt            1           1   3.7679190598570861E-002           7      399993           0
</event>
<event>
      5   9999  3.79277E-02  3.43959E+01 -1.00000E+00  1.49026E-01
      21    -1     0     0   512   501  0.000000000E+00  0.000000000E+00  1.288069327E+02  1.288069327E+02  0.000000000E+00  0.00000E+00  9.000E+00
      21    -1     0     0   501   502  0.000000000E+00  0.000000000E+00 -6.032357350E+02  6.032357350E+02  0.000000000E+00  0.00000E+00  9.000E+00
      25     1     1     2     0     0 -1.553805828E+02 -1.276939301E+02 -8.693950143E+01  2.522545187E+02  1.250000000E+02  0.00000E+00  9.000E+00
      25     1     1     2     0     0  1.325476988E+02  1.534182052E+02 -3.727881367E+02  4.423822250E+02  1.250000000E+02  0.00000E+00  9.000E+00
      21     1     1     2   512   502  2.283288399E+01 -2.572427508E+01 -1.470116425E+01  3.740592400E+01  3.371747881E-07  0.00000E+00  9.000E+00
#rwgt            1           1   3.3931646437650446E-002           7      400180           0
</event>
<event>
      5   9999  3.79277E-02  2.21823E+01 -1.00000E+00  1.62742E-01
      21    -1     0     0   502   511  0.000000000E+00  0.000000000E+00  4.666906940E+01  4.666906940E+01  0.000000000E+00  0.00000E+00  9.000E+00
      21    -1     0     0   501   502  0.000000000E+00  0.000000000E+00 -9.817418944E+02  9.817418944E+02  0.000000000E+00  0.00000E+00  9.000E+00
      25     1     1     2     0     0  4.527705971E+01  3.433601312E+01 -7.816445333E+02  7.936133507E+02  1.250000000E+02  0.00000E+00  9.000E+00
      25     1     1     2     0     0 -3.599674218E+01 -5.448367011E+01 -1.583799246E+02  2.120694138E+02  1.250000000E+02  0.00000E+00  9.000E+00
      21     1     1     2   501   511 -9.280317525E+00  2.014765699E+01  4.951632905E+00  2.272819931E+01  8.554875907E-07  0.00000E+00  9.000E+00
#rwgt            1           1   4.6862039363227054E-002           7      400438           0
</event>
<event>
      5   9999  3.79277E-02  1.69593E+01 -1.00000E+00  1.72504E-01
      21    -1     0     0   502   501  0.000000000E+00  0.000000000E+00  4.279110178E+02  4.279110178E+02  0.000000000E+00  0.00000E+00  9.000E+00
      21    -1     0     0   512   502  0.000000000E+00  0.000000000E+00 -9.718095745E+01  9.718095745E+01  0.000000000E+00  0.00000E+00  9.000E+00
      25     1     1     2     0     0  1.170861681E+02  5.037612884E+01  7.512089609E+01  1.936880847E+02  1.250000000E+02  0.00000E+00  9.000E+00
      25     1     1     2     0     0 -1.172592426E+02 -6.733451459E+01  2.548656689E+02  3.144283321E+02  1.250000000E+02  0.00000E+00  9.000E+00
      21     1     1     2   512   501  1.730745626E-01  1.695838575E+01  7.434953817E-01  1.697555854E+01  1.974052384E-07  0.00000E+00  9.000E+00
#rwgt            1           1   1.5863017454431919E-002           7      400688           0
</event>
<event>
      5   9999  3.79277E-02  6.94952E+01 -1.00000E+00  1.31380E-01
      21    -1     0     0   502   511  0.000000000E+00  0.000000000E+00  1.429205054E+02  1.429205054E+02  0.000000000E+00  0.00000E+00  9.000E+00
      21    -1     0     0   501   502  0.000000000E+00  0.000000000E+00 -9.502592787E+02  9.502592787E+02  0.000000000E+00  0.00000E+00  9.000E+00
      25     1     1     2     0     0  1.282828501E+01 -1.702600644E+01 -7.980182926E+02  8.080301016E+02  1.250000000E+02  0.00000E+00  9.000E+00
      25     1     1     2     0     0 -8.226155200E+01  1.995937443E+01 -9.227493114E+01  1.769321974E+02  1.250000000E+02  0.00000E+00  9.000E+00
      21     1     1     2   501   511  6.943326700E+01 -2.933367989E+00  8.295445047E+01  1.082174850E+02  3.693564745E-06  0.00000E+00  9.000E+00
#rwgt            1           1   4.5283106973735186E-002           7      401019           0
</event>
<event>
      5   9999  3.79277E-02  5.44805E+01 -1.00000E+00  1.36982E-01
      21    -1     0     0   512   501  0.000000000E+00  0.000000000E+00  1.073753415E+03  1.073753415E+03  0.000000000E+00  0.00000E+00  9.000E+00
      21    -1     0     0   501   502  0.000000000E+00  0.000000000E+00 -7.167594327E+01  7.167594327E+01  0.000000000E+00  0.00000E+00  9.000E+00
      25     1     1     2     0     0  1.418320524E+01  1.737931483E+02  2.449121490E+02  3.255951204E+02  1.250000000E+02  0.00000E+00  9.000E+00
      25     1     1     2     0     0  1.468042522E+01 -2.199994298E+02  5.494219312E+02  6.050658828E+02  1.250000000E+02  0.00000E+00  9.000E+00
      21     1     1     2   512   502 -2.886363046E+01  4.620628148E+01  2.077433917E+02  2.147683552E+02  3.814697266E-06  0.00000E+00  9.000E+00
#rwgt            1           1   3.4725382226067115E-002           7      401165           0
</event>
<event>
      5   9999  3.79277E-02  7.21304E+01 -1.00000E+00  1.30565E-01
      21    -1     0     0   511   501  0.000000000E+00  0.000000000E+00  9.810858641E+02  9.810858641E+02  0.000000000E+00  0.00000E+00  9.000E+00
      21    -1     0     0   501   502  0.000000000E+00  0.000000000E+00 -1.174000835E+02  1.174000835E+02  0.000000000E+00  0.00000E+00  9.000E+00
      25     1     1     2     0     0 -1.476832986E+02 -7.119880233E+01  1.876616375E+02  2.787857893E+02  1.250000000E+02  0.00000E+00  9.000E+00
      25     1     1     2     0     0  8.989336240E+01  1.143626346E+02  6.216279644E+01  2.016155799E+02  1.250000000E+02  0.00000E+00  9.000E+00
      21     1     1     2   511   502  5.778993616E+01 -4.316383231E+01  6.138613467E+02  6.180845784E+02  1.078959322E-05  0.00000E+00  9.000E+00
#rwgt            1           1   2.6429236416384463E-002           7      401281           0
</event>
<event>
      5   9999  3.79277E-02  7.03901E+01 -1.00000E+00  1.31099E-01
      21    -1     0     0   502   501  0.000000000E+00  0.000000000E+00  8.045844144E+02  8.045844144E+02  0.000000000E+00  0.00000E+00  9.000E+00
      21    -1     0     0   512   502  0.000000000E+00  0.000000000E+00 -4.740181845E+02  4.740181845E+02  0.000000000E+00  0.00000E+00  9.000E+00
      25     1     1     2     0     0 -2.854508917E+01  3.767754874E+02  4.305593591E+02  5.863283651E+02  1.250000000E+02  0.00000E+00  9.000E+00
      25     1     1     2     0     0 -1.480613658E+01 -4.322321321E+02  1.161736299E+02  4.649356407E+02  1.250000000E+02  0.00000E+00  9.000E+00
      21     1     1     2   512   501  4.335122575E+01  5.545664466E+01 -2.161667591E+02  2.273385931E+02  3.814697266E-06  0.00000E+00  9.000E+00
#rwgt            1           1  0.12279191239573761                7      401494           0
</event>
<event>
      5   9999  3.79277E-02  6.58528E+01 -1.00000E+00  1.32578E-01
       2    -1     0     0   502     0  0.000000000E+00  0.000000000E+00  7.726407647E+02  7.726407647E+02  0.000000000E+00  0.00000E+00  9.000E+00
      21    -1     0     0   501   502  0.000000000E+00  0.000000000E+00 -2.346937376E+02  2.346937376E+02  0.000000000E+00  0.00000E+00  9.000E+00
      25     1     1     2     0     0  2.519316766E+02 -1.290910631E+02  5.625428711E+01  3.145212506E+02  1.250000000E+02  0.00000E+00  9.000E+00
      25     1     1     2     0     0 -1.909722402E+02  1.540016380E+02  8.137161967E+01  2.871118972E+02  1.250000000E+02  0.00000E+00  9.000E+00
       2     1     1     2   501     0 -6.095943639E+01 -2.491057488E+01  4.003211203E+02  4.057013545E+02  7.629394531E-06  0.00000E+00  9.000E+00
#rwgt            1           1   3.2057858689310277E-002           7      401635           0
</event>
<event>
      5   9999  3.79277E-02  5.86172E+01 -1.00000E+00  1.35247E-01
      21    -1     0     0   502   501  0.000000000E+00  0.000000000E+00  3.360092618E+02  3.360092618E+02  0.000000000E+00  0.00000E+00  9.000E+00
      21    -1     0     0   511   502  0.000000000E+00  0.000000000E+00 -4.871817533E+02  4.871817533E+02  0.000000000E+00  0.00000E+00  9.000E+00
      25     1     1     2     0     0 -2.003663467E+02  1.266062562E+02 -2.662041947E+02  3.777108553E+02  1.250000000E+02  0.00000E+00  9.000E+00
      25     1     1     2     0     0  2.426698987E+02 -8.603053307E+01  1.950042145E+02  3.463258236E+02  1.250000000E+02  0.00000E+00  9.000E+00
      21     1     1     2   511   501 -4.230355207E+01 -4.057572310E+01 -7.997251132E+01  9.915433621E+01  1.348699152E-06  0.00000E+00  9.000E+00
#rwgt            1           1   5.1081712344548669E-002           7      401731           0
</event>
<event>
      5   9999  3.79277E-02  9.17523E+01 -1.00000E+00  1.25533E-01
      21    -1     0     0   512   501  0.000000000E+00  0.000000000E+00  1.817774603E+02  1.817774603E+02  0.000000000E+00  0.00000E+00  9.000E+00
      21    -1     0     0   501   502  0.000000000E+00  0.000000000E+00 -6.344358726E+02  6.344358726E+02  0.000000000E+00  0.00000E+00  9.000E+00
      25     1     1     2     0     0 -2.840979491E+02  7.119277021E+01 -2.655709012E+02  4.146479938E+02  1.250000000E+02  0.00000E+00  9.000E+00
      25     1     1     2     0     0  1.939411952E+02 -8.822907891E+01 -1.869800826E+02  3.098130224E+02  1.250000000E+02  0.00000E+00  9.000E+00
      21     1     1     2   512   502  9.015675385E+01  1.703630869E+01 -1.074285396E-01  9.175231670E+01  2.285033673E-06  0.00000E+00  9.000E+00
#rwgt            1           1  0.15180929194617199                7      401877           0
</event>
<event>
      5   9999  3.79277E-02  2.22618E+01 -1.00000E+00  1.62619E-01
      21    -1     0     0   502   511  0.000000000E+00  0.000000000E+00  7.835870863E+02  7.835870863E+02  0.000000000E+00  0.00000E+00  9.000E+00
      21    -1     0     0   501   502  0.000000000E+00  0.000000000E+00 -2.037086512E+02  2.037086512E+02  0.000000000E+00  0.00000E+00  9.000E+00
      25     1     1     2     0     0  3.536737860E+02 -3.708449162E+01  2.375214791E+02  4.455354749E+02  1.250000000E+02  0.00000E+00  9.000E+00
      25     1     1     2     0     0 -3.716697401E+02  5.018920024E+01  3.094831608E+02  5.020579432E+02  1.250000000E+02  0.00000E+00  9.000E+00
      21     1     1     2   501   511  1.799595414E+01 -1.310470862E+01  3.287379524E+01  3.970231941E+01  4.768371582E-07  0.00000E+00  9.000E+00
#rwgt            1           1  0.32536492826711266                7      401962           0
</event>
<event>
      5   9999  3.79277E-02  1.09725E+02 -1.00000E+00  1.22042E-01
      21    -1     0     0   502   501  0.000000000E+00  0.000000000E+00  1.141562064E+03  1.141562064E+03  0.000000000E+00  0.00000E+00  9.000E+00
      21    -1     0     0   501   512  0.000000000E+00  0.000000000E+00 -2.227326019E+02  2.227326019E+02  0.000000000E+00  0.00000E+00  9.000E+00
      25     1     1     2     0     0 -5.808962466E+00 -3.086171807E+02  6.316172975E+02  7.140334157E+02  1.250000000E+02  0.00000E+00  9.000E+00
      25     1     1     2     0     0 -7.958741092E+01  2.397180328E+02  4.023373148E+02  4.912221556E+02  1.250000000E+02  0.00000E+00  9.000E+00
      21     1     1     2   502   512  8.539637338E+01  6.889914787E+01 -1.151251506E+02  1.590390941E+02  4.672030912E-06  0.00000E+00  9.000E+00
#rwgt            1           1   3.2400078590755742E-002           7      402175           0
</event>
<event>
      5   9999 -3.79277E-02  3.33441E+01 -1.00000E+00  1.49919E-01
      21    -1     0     0   502   511  0.000000000E+00  0.000000000E+00  7.459568048E+02  7.459568048E+02  0.000000000E+00  0.00000E+00  9.000E+00
      21    -1     0     0   501   502  0.000000000E+00  0.000000000E+00 -4.342253277E+02  4.342253277E+02  0.000000000E+00  0.00000E+00  9.000E+00
      25     1     1     2     0     0 -2.372589381E+02  3.121122321E+02  1.014387512E+02  4.238167875E+02  1.250000000E+02  0.00000E+00  9.000E+00
      25     1     1     2     0     0  2.283384640E+02 -3.442409383E+02 -1.010382262E+02  4.432538786E+02  1.250000000E+02  0.00000E+00  9.000E+00
      21     1     1     2   501   511  8.920474081E+00  3.212870624E+01  3.113309522E+02  3.131114664E+02  3.814697266E-06  0.00000E+00  9.000E+00
#rwgt            1           1  -4.4488982617024886E-002           7      402278           0
</event>
<event>
      5   9999  3.79277E-02  3.86902E+01 -1.00000E+00  1.45743E-01
       1    -1     0     0   502     0  0.000000000E+00  0.000000000E+00  1.187319419E+03  1.187319419E+03  0.000000000E+00  0.00000E+00  9.000E+00
      21    -1     0     0   501   502  0.000000000E+00  0.000000000E+00 -3.965697804E+02  3.965697804E+02  0.000000000E+00  0.00000E+00  9.000E+00
      25     1     1     2     0     0 -1.735377214E+02 -2.494762552E+02 -1.591014792E+02  3.650918013E+02  1.250000000E+02  0.00000E+00  9.000E+00
      25     1     1     2     0     0  1.532064225E+02  2.823939152E+02  8.761861806E+01  3.556972778E+02  1.250000000E+02  0.00000E+00  9.000E+00
       1     1     1     2   501     0  2.033129886E+01 -3.291765994E+01  8.622324995E+02  8.631001201E+02  1.078959322E-05  0.00000E+00  9.000E+00
#rwgt            2          17   6.4713726769522308E-004           7      402671           0
</event>
<event>
      5   9999  3.79277E-02  3.53177E+01 -1.00000E+00  1.48275E-01
      21    -1     0     0   502   501  0.000000000E+00  0.000000000E+00  6.176100041E+02  6.176100041E+02  0.000000000E+00  0.00000E+00  9.000E+00
      21    -1     0     0   511   502  0.000000000E+00  0.000000000E+00 -3.584999362E+02  3.584999362E+02  0.000000000E+00  0.00000E+00  9.000E+00
      25     1     1     2     0     0 -7.547955957E+01  2.798380199E+00  3.322855105E+02  3.629650883E+02  1.250000000E+02  0.00000E+00  9.000E+00
      25     1     1     2     0     0  5.491042650E+01 -3.150811304E+01  2.507804535E+02  2.872694762E+02  1.250000000E+02  0.00000E+00  9.000E+00
      21     1     1     2   511   501  2.056913307E+01  2.870973284E+01 -3.239558961E+02  3.258753758E+02  3.814697266E-06  0.00000E+00  9.000E+00
#rwgt            1           1   6.0662171654903674E-002           7      402750           0
</event>
<event>
      5   9999  3.79277E-02  2.90837E+01 -1.00000E+00  1.53981E-01
      21    -1     0     0   502   501  0.000000000E+00  0.000000000E+00  2.820187609E+01  2.820187609E+01  0.000000000E+00  0.00000E+00  9.000E+00
       2    -1     0     0   501     0  0.000000000E+00  0.000000000E+00 -1.948221671E+03  1.948221671E+03  0.000000000E+00  0.00000E+00  9.000E+00
      25     1     1     2     0     0 -9.927286256E+01  8.152847601E+01 -4.386256968E+02  4.738348821E+02  1.250000000E+02  0.00000E+00  9.000E+00
      25     1     1     2     0     0  7.517716293E+01 -9.781517042E+01 -7.373816214E+02  7.580079611E+02  1.250000000E+02  0.00000E+00  9.000E+00
       2     1     1     2   502     0  2.409569962E+01  1.628669440E+01 -7.440124765E+02  7.445807037E+02  0.000000000E+00  0.00000E+00  9.000E+00
#rwgt            1           1   3.8939222399352179E-002           7      402808           0
</event>
<event>
      5   9999  3.79277E-02  7.48791E+01 -1.00000E+00  1.29756E-01
      21    -1     0     0   511   501  0.000000000E+00  0.000000000E+00  2.985141844E+02  2.985141844E+02  0.000000000E+00  0.00000E+00  9.000E+00
      21    -1     0     0   501   502  0.000000000E+00  0.000000000E+00 -1.470008374E+02  1.470008374E+02  0.000000000E+00  0.00000E+00  9.000E+00
      25     1     1     2     0     0  3.395756129E+01 -5.598831574E+01  6.160857218E+01  1.539753994E+02  1.250000000E+02  0.00000E+00  9.000E+00
      25     1     1     2     0     0 -1.071967630E+02  4.040297878E+01 -6.248986616E+00  1.696690795E+02  1.250000000E+02  0.00000E+00  9.000E+00
      21     1     1     2   511   502  7.323920175E+01  1.558533696E+01  9.615376141E+01  1.218705429E+02  0.000000000E+00  0.00000E+00  9.000E+00
#rwgt            1           1   3.8567543941090673E-002           7      402948           0
</event>
<event>
      5   9999  3.79277E-02  3.65016E+01 -1.00000E+00  1.47349E-01
      21    -1     0     0   512   501  0.000000000E+00  0.000000000E+00  4.355900987E+02  4.355900987E+02  0.000000000E+00  0.00000E+00  9.000E+00
      21    -1     0     0   501   502  0.000000000E+00  0.000000000E+00 -9.389447535E+01  9.389447535E+01  0.000000000E+00  0.00000E+00  9.000E+00
      25     1     1     2     0     0 -1.193923119E+02 -1.507425957E+01  1.881391422E+02  2.559357229E+02  1.250000000E+02  0.00000E+00  9.000E+00
      25     1     1     2     0     0  1.243575269E+02  5.123659413E+01  1.010036480E+02  2.095631646E+02  1.250000000E+02  0.00000E+00  9.000E+00
      21     1     1     2   512   502 -4.965214997E+00 -3.616233456E+01  5.255283312E+01  6.398568644E+01  6.743495762E-07  0.00000E+00  9.000E+00
#rwgt            1           1   4.1590450473851272E-002           7      403192           0
</event>
<event>
      5   9999  3.79277E-02  3.95539E+01 -1.00000E+00  1.45143E-01
      21    -1     0     0   502   501  0.000000000E+00  0.000000000E+00  2.084011766E+02  2.084011766E+02  0.000000000E+00  0.00000E+00  9.000E+00
      21    -1     0     0   501   511  0.000000000E+00  0.000000000E+00 -7.284602061E+02  7.284602061E+02  0.000000000E+00  0.00000E+00  9.000E+00
      25     1     1     2     0     0 -1.435319464E+02 -8.024665911E+01  1.027568351E+02  2.307052515E+02  1.250000000E+02  0.00000E+00  9.000E+00
      25     1     1     2     0     0  1.044358921E+02  7.424581554E+01 -1.553469550E+02  2.370168203E+02  1.250000000E+02  0.00000E+00  9.000E+00
      21     1     1     2   502   511  3.909605427E+01  6.000843563E+00 -4.674689096E+02  4.691393109E+02  5.394796609E-06  0.00000E+00  9.000E+00
#rwgt            1           1   3.9158625628868314E-002           7      403319           0
</event>
<event>
      5   9999  3.79277E-02  2.52340E+01 -1.00000E+00  1.58448E-01
      21    -1     0     0   512   501  0.000000000E+00  0.000000000E+00  2.736583616E+02  2.736583616E+02  0.000000000E+00  0.00000E+00  9.000E+00
      21    -1     0     0   501   502  0.000000000E+00  0.000000000E+00 -2.781617879E+02  2.781617879E+02  0.000000000E+00  0.00000E+00  9.000E+00
      25     1     1     2     0     0 -1.833953452E+02  1.501680641E+02 -4.402117947E+01  2.715642914E+02  1.250000000E+02  0.00000E+00  9.000E+00
      25     1     1     2     0     0  1.615309120E+02 -1.375704696E+02  1.769196406E+01  2.468924366E+02  1.250000000E+02  0.00000E+00  9.000E+00
      21     1     1     2   512   502  2.186443322E+01 -1.259759448E+01  2.182578914E+01  3.336342156E+01  6.307962682E-07  0.00000E+00  9.000E+00
#rwgt            1           1   2.5394614920616100E-002           7      403423           0
</event>
<event>
      5   9999  3.79277E-02  6.01990E+01 -1.00000E+00  1.34627E-01
      21    -1     0     0   502   501  0.000000000E+00  0.000000000E+00  6.534732538E+02  6.534732538E+02  0.000000000E+00  0.00000E+00  9.000E+00
      21    -1     0     0   501   511  0.000000000E+00  0.000000000E+00 -9.091543179E+02  9.091543179E+02  0.000000000E+00  0.00000E+00  9.000E+00
      25     1     1     2     0     0  4.594577514E+01  2.939132261E+02  2.271193932E+01  3.234761674E+02  1.250000000E+02  0.00000E+00  9.000E+00
      25     1     1     2     0     0 -9.748764144E+01 -3.250154736E+02  4.108283949E+02  5.473060098E+02  1.250000000E+02  0.00000E+00  9.000E+00
      21     1     1     2   502   511  5.154186630E+01  3.110224750E+01 -6.892213984E+02  6.918453944E+02  7.629394531E-06  0.00000E+00  9.000E+00
#rwgt            1           1   3.4134150796578978E-002           7      403554           0
</event>
<event>
      5   9999  3.79277E-02  5.67542E+01 -1.00000E+00  1.36007E-01
      21    -1     0     0   502   501  0.000000000E+00  0.000000000E+00  3.483097672E+02  3.483097672E+02  0.000000000E+00  0.00000E+00  9.000E+00
      21    -1     0     0   501   512  0.000000000E+00  0.000000000E+00 -1.060273627E+03  1.060273627E+03  0.000000000E+00  0.00000E+00  9.000E+00
      25     1     1     2     0     0  3.356968943E+01  9.938219815E+01  6.555862075E+01  1.758598252E+02  1.250000000E+02  0.00000E+00  9.000E+00
      25     1     1     2     0     0 -8.614401402E+01 -7.800500370E+01  1.946586959E+02  2.588871948E+02  1.250000000E+02  0.00000E+00  9.000E+00
      21     1     1     2   502   512  5.257432459E+01 -2.137719445E+01 -9.721811766E+02  9.738363745E+02  1.078959322E-05  0.00000E+00  9.000E+00
#rwgt            1           1   3.4885888955974990E-002           7      403690           0
</event>
<event>
      5   9999  3.79277E-02  3.49923E+01 -1.00000E+00  1.48537E-01
      21    -1     0     0   502   511  0.000000000E+00  0.000000000E+00  6.007406828E+02  6.007406828E+02  0.000000000E+00  0.00000E+00  9.000E+00
      21    -1     0     0   501   502  0.000000000E+00  0.000000000E+00 -9.416167834E+01  9.416167834E+01  0.000000000E+00  0.00000E+00  9.000E+00
      25     1     1     2     0     0  2.808303514E+01  8.698255325E+01  1.967599117E+00  1.548660482E+02  1.250000000E+02  0.00000E+00  9.000E+00
      25     1     1     2     0     0 -5.775658809E+01 -6.843693497E+01  4.461239623E+02  4.718803103E+02  1.250000000E+02  0.00000E+00  9.000E+00
      21     1     1     2   501   511  2.967355295E+01 -1.854561828E+01  5.848744306E+01  6.815600265E+01  9.536743164E-07  0.00000E+00  9.000E+00
#rwgt            1           1   4.3860781014145526E-002           7      403849           0
</event>
<event>
      5   9999  3.79277E-02  1.50332E+02 -1.00000E+00  1.16356E-01
      21    -1     0     0   502   501  0.000000000E+00  0.000000000E+00  9.454204035E+01  9.454204035E+01  0.000000000E+00  0.00000E+00  9.000E+00
       1    -1     0     0   501     0  0.000000000E+00  0.000000000E+00 -1.780478866E+03  1.780478866E+03  0.000000000E+00  0.00000E+00  9.000E+00
      25     1     1     2     0     0  5.343368335E+01  1.841028291E+02 -2.927858026E+02  3.716147688E+02  1.250000000E+02  0.00000E+00  9.000E+00
      25     1     1     2     0     0  4.290220811E+01 -2.995110615E+02 -4.996474444E+02  5.973441589E+02  1.250000000E+02  0.00000E+00  9.000E+00
       1     1     1     2   502     0 -9.633589146E+01  1.154082324E+02 -8.935035782E+02  9.060619782E+02  1.868812365E-05  0.00000E+00  9.000E+00
#rwgt            2          12   2.2910314161545401E-004           7      404026           0
</event>
<event>
      5   9999  3.79277E-02  2.75194E+01 -1.00000E+00  1.55690E-01
      21    -1     0     0   502   511  0.000000000E+00  0.000000000E+00  2.819048155E+02  2.819048155E+02  0.000000000E+00  0.00000E+00  9.000E+00
      21    -1     0     0   501   502  0.000000000E+00  0.000000000E+00 -2.474937578E+02  2.474937578E+02  0.000000000E+00  0.00000E+00  9.000E+00
      25     1     1     2     0     0  1.906687186E+02 -5.935114035E+01  1.205638846E+02  2.646464970E+02  1.250000000E+02  0.00000E+00  9.000E+00
      25     1     1     2     0     0 -1.632762593E+02  6.199114924E+01 -9.636337757E+01  2.353995327E+02  1.250000000E+02  0.00000E+00  9.000E+00
      21     1     1     2   501   511 -2.739245921E+01 -2.640008884E+00  1.021055063E+01  2.935254354E+01  3.371747881E-07  0.00000E+00  9.000E+00
#rwgt            1           1   3.6176910843311698E-002           7      404060           0
</event>
<event>
      5   9999  3.79277E-02  1.21834E+01 -1.00000E+00  1.86338E-01
      21    -1     0     0   502   501  0.000000000E+00  0.000000000E+00  2.315659163E+02  2.315659163E+02  0.000000000E+00  0.00000E+00  9.000E+00
      21    -1     0     0   512   502  0.000000000E+00  0.000000000E+00 -2.274824908E+02  2.274824908E+02  0.000000000E+00  0.00000E+00  9.000E+00
      25     1     1     2     0     0 -1.004344087E+02 -3.914499521E+00  1.276693821E+02  2.050045485E+02  1.250000000E+02  0.00000E+00  9.000E+00
      25     1     1     2     0     0  1.033776696E+02 -7.907997648E+00 -3.694635324E+01  1.665518298E+02  1.250000000E+02  0.00000E+00  9.000E+00
      21     1     1     2   512   501 -2.943260835E+00  1.182249717E+01 -8.663960344E+01  8.749202883E+01  9.536743164E-07  0.00000E+00  9.000E+00
#rwgt            1           1   4.2060418282578393E-002           7      404172           0
</event>
<event>
      5   9999  3.79277E-02  1.10028E+01 -1.00000E+00  1.91079E-01
      21    -1     0     0   502   501  0.000000000E+00  0.000000000E+00  7.566284278E+01  7.566284278E+01  0.000000000E+00  0.00000E+00  9.000E+00
      21    -1     0     0   511   502  0.000000000E+00  0.000000000E+00 -5.694688353E+02  5.694688353E+02  0.000000000E+00  0.00000E+00  9.000E+00
      25     1     1     2     0     0  4.135297538E+01  2.154713673E+01 -6.741290671E+00  1.335844028E+02  1.250000000E+02  0.00000E+00  9.000E+00
      25     1     1     2     0     0 -4.235563820E+01 -1.059012706E+01 -3.527178970E+02  3.767506679E+02  1.250000000E+02  0.00000E+00  9.000E+00
      21     1     1     2   511   501  1.002662824E+00 -1.095700967E+01 -1.343468049E+02  1.347966074E+02  1.907348633E-06  0.00000E+00  9.000E+00
#rwgt            1           1   4.1042458560097722E-002           7      404488           0
</event>
<event>
      5   9999  3.79277E-02  1.92767E+01 -1.00000E+00  1.67700E-01
      -3    -1     0     0     0   501  0.000000000E+00  0.000000000E+00  1.116229947E+02  1.116229947E+02  0.000000000E+00  0.00000E+00  9.000E+00
      21    -1     0     0   501   502  0.000000000E+00  0.000000000E+00 -5.511427392E+02  5.511427392E+02  0.000000000E+00  0.00000E+00  9.000E+00
      25     1     1     2     0     0  1.059953030E+02 -1.300862792E+01 -4.421473536E+02  4.717239775E+02  1.250000000E+02  0.00000E+00  9.000E+00
      25     1     1     2     0     0 -1.131421274E+02 -4.894320790E+00 -8.313760538E+00  1.688763275E+02  1.250000000E+02  0.00000E+00  9.000E+00
      -3     1     1     2     0   502  7.146824364E+00  1.790294871E+01  1.094136963E+01  2.216542895E+01  2.064765462E-07  0.00000E+00  9.000E+00
#rwgt            1           1   4.0723299254256891E-002           7      404686           0
</event>
<event>
      5   9999  3.79277E-02  1.62215E+01 -1.00000E+00  1.74239E-01
      21    -1     0     0   502   501  0.000000000E+00  0.000000000E+00  1.974963877E+03  1.974963877E+03  0.000000000E+00  0.00000E+00  9.000E+00
       2    -1     0     0   501     0  0.000000000E+00  0.000000000E+00 -2.425654011E+03  2.425654011E+03  0.000000000E+00  0.00000E+00  9.000E+00
      25     1     1     2     0     0  2.505719994E+02 -2.224730567E+02  8.431495846E+02  9.158639691E+02  1.250000000E+02  0.00000E+00  9.000E+00
      25     1     1     2     0     0 -2.349260810E+02  2.181904182E+02  1.068402787E+03  1.122455718E+03  1.250000000E+02  0.00000E+00  9.000E+00
       2     1     1     2   502     0 -1.564591840E+01  4.282638447E+00 -2.362242505E+03  2.362298201E+03  6.103515625E-05  0.00000E+00  9.000E+00
#rwgt            1           1   2.8256294391803730E-002           7      404911           0
</event>
<event>
      5   9999  3.79277E-02  7.64300E+01 -1.00000E+00  1.29317E-01
      21    -1     0     0   502   501  0.000000000E+00  0.000000000E+00  2.272967598E+02  2.272967598E+02  0.000000000E+00  0.00000E+00  9.000E+00
      21    -1     0     0   501   511  0.000000000E+00  0.000000000E+00 -2.396753684E+02  2.396753684E+02  0.000000000E+00  0.00000E+00  9.000E+00
      25     1     1     2     0     0 -7.727018606E+01 -1.406928313E+00  5.702852162E+01  1.576385530E+02  1.250000000E+02  0.00000E+00  9.000E+00
      25     1     1     2     0     0  1.190114579E+00 -5.898112573E+00  7.503557030E+01  1.459162120E+02  1.250000000E+02  0.00000E+00  9.000E+00
      21     1     1     2   502   511  7.608007148E+01  7.305040886E+00 -1.444427005E+02  1.634173633E+02  1.907348633E-06  0.00000E+00  9.000E+00
#rwgt            1           1   7.4513624868306734E-003           7      405252           0
</event>
<event>
      5   9999  3.79277E-02  8.11078E+01 -1.00000E+00  1.28061E-01
      21    -1     0     0   502   512  0.000000000E+00  0.000000000E+00  2.057576009E+03  2.057576009E+03  0.000000000E+00  0.00000E+00  9.000E+00
      21    -1     0     0   501   502  0.000000000E+00  0.000000000E+00 -3.729968005E+01  3.729968005E+01  0.000000000E+00  0.00000E+00  9.000E+00
      25     1     1     2     0     0 -5.315169939E+01 -1.567974817E+02  6.768971007E+02  7.079726254E+02  1.250000000E+02  0.00000E+00  9.000E+00
      25     1     1     2     0     0  2.739531937E+00  2.203355360E+02  8.517122832E+02  8.885910571E+02  1.250000000E+02  0.00000E+00  9.000E+00
      21     1     1     2   501   512  5.041216746E+01 -6.353805422E+01  4.916669455E+02  4.983120069E+02  9.344061824E-06  0.00000E+00  9.000E+00
#rwgt            1           1   3.6283723673382756E-002           7      405330           0
</event>
<event>
      5   9999  3.79277E-02  3.99580E+01 -1.00000E+00  1.44868E-01
      21    -1     0     0   502   511  0.000000000E+00  0.000000000E+00  2.967383346E+02  2.967383346E+02  0.000000000E+00  0.00000E+00  9.000E+00
      21    -1     0     0   501   502  0.000000000E+00  0.000000000E+00 -5.855906589E+02  5.855906589E+02  0.000000000E+00  0.00000E+00  9.000E+00
      25     1     1     2     0     0 -1.119471910E+02 -6.308231305E+01  1.598565543E+02  2.401888210E+02  1.250000000E+02  0.00000E+00  9.000E+00
      25     1     1     2     0     0  7.247259148E+01  5.688576355E+01 -5.296118156E+02  5.519075483E+02  1.250000000E+02  0.00000E+00  9.000E+00
      21     1     1     2   501   511  3.947459951E+01  6.196549499E+00  8.090293702E+01  9.023262410E+01  1.651812370E-06  0.00000E+00  9.000E+00
#rwgt            1           1   5.1091810785713995E-002           7      405401           0
</event>
<event>
      5   9999  3.79277E-02  1.00866E+01 -1.00000E+00  1.95325E-01
      21    -1     0     0   502   501  0.000000000E+00  0.000000000E+00  2.146175293E+02  2.146175293E+02  0.000000000E+00  0.00000E+00  9.000E+00
      21    -1     0     0   501   512  0.000000000E+00  0.000000000E+00 -4.544279300E+02  4.544279300E+02  0.000000000E+00  0.00000E+00  9.000E+00
      25     1     1     2     0     0  2.667566381E+02  3.562877182E+01 -3.921747338E+01  2.993184317E+02  1.250000000E+02  0.00000E+00  9.000E+00
      25     1     1     2     0     0 -2.717708971E+02 -2.687686922E+01 -1.919407999E+02  3.564380133E+02  1.250000000E+02  0.00000E+00  9.000E+00
      21     1     1     2   502   512  5.014259014E+00 -8.751902594E+00 -8.652127358E+00  1.328901427E+01  1.192092896E-07  0.00000E+00  9.000E+00
#rwgt            1           1   3.8469956720237564E-002           7      405734           0
</event>
<event>
      5   9999  3.79277E-02  5.71666E+00 -1.00000E+00  2.28785E-01
      21    -1     0     0   502   501  0.000000000E+00  0.000000000E+00  1.777108937E+02  1.777108937E+02  0.000000000E+00  0.00000E+00  9.000E+00
      21    -1     0     0   511   502  0.000000000E+00  0.000000000E+00 -2.564761599E+02  2.564761599E+02  0.000000000E+00  0.00000E+00  9.000E+00
      25     1     1     2     0     0 -7.351446948E+01 -6.388849589E+01 -1.056117454E+02  1.904336050E+02  1.250000000E+02  0.00000E+00  9.000E+00
      25     1     1     2     0     0  7.136524663E+01  6.918576567E+01  8.799400399E+01  1.823392808E+02  1.250000000E+02  0.00000E+00  9.000E+00
      21     1     1     2   511   501  2.149222854E+00 -5.297269789E+00 -6.114752479E+01  6.141416786E+01  0.000000000E+00  0.00000E+00  9.000E+00
#rwgt            1           1   5.2808761346949715E-002           7      406087           0
</event>
<event>
      5   9999 -3.79277E-02  3.49227E+01 -1.00000E+00  1.48594E-01
      21    -1     0     0   512   501  0.000000000E+00  0.000000000E+00  2.672106113E+02  2.672106113E+02  0.000000000E+00  0.00000E+00  9.000E+00
      21    -1     0     0   501   502  0.000000000E+00  0.000000000E+00 -2.020414105E+02  2.020414105E+02  0.000000000E+00  0.00000E+00  9.000E+00
      25     1     1     2     0     0 -5.066924457E+01  1.535957852E+02  1.220727262E+02  2.380877739E+02  1.250000000E+02  0.00000E+00  9.000E+00
      25     1     1     2     0     0  6.241584961E+01 -1.207079618E+02 -6.421234469E+01  1.954849752E+02  1.250000000E+02  0.00000E+00  9.000E+00
      21     1     1     2   512   502 -1.174660504E+01 -3.288782337E+01  7.308819315E+00  3.567927264E+01  7.251217997E-07  0.00000E+00  9.000E+00
#rwgt            1           1 -0.18237744012617235                7      406453           0
</event>
<event>
      5   9999 -3.79277E-02  1.01822E+02 -1.00000E+00  1.23476E-01
       2    -1     0     0   502     0  0.000000000E+00  0.000000000E+00  1.202253842E+03  1.202253842E+03  0.000000000E+00  0.00000E+00  9.000E+00
      21    -1     0     0   501   502  0.000000000E+00  0.000000000E+00 -2.090579740E+02  2.090579740E+02  0.000000000E+00  0.00000E+00  9.000E+00
      25     1     1     2     0     0 -1.265554481E+02 -3.339225889E+01  1.278495847E+02  2.215893516E+02  1.250000000E+02  0.00000E+00  9.000E+00
      25     1     1     2     0     0  1.161723672E+02 -6.789933305E+01 -1.066678966E+02  2.123896855E+02  1.250000000E+02  0.00000E+00  9.000E+00
       2     1     1     2   501     0  1.038308089E+01  1.012915919E+02  9.720141800E+02  9.773327791E+02  1.078959322E-05  0.00000E+00  9.000E+00
#rwgt            1           1  -9.2950026990293436E-002           7      406626           0
</event>
<event>
      5   9999  3.79277E-02  5.67663E+01 -1.00000E+00  1.36002E-01
      21    -1     0     0   511   501  0.000000000E+00  0.000000000E+00  8.686826825E+01  8.686826825E+01  0.000000000E+00  0.00000E+00  9.000E+00
      21    -1     0     0   501   502  0.000000000E+00  0.000000000E+00 -1.666192915E+03  1.666192915E+03  0.000000000E+00  0.00000E+00  9.000E+00
      25     1     1     2     0     0  1.655994138E+02  1.353001905E+02 -1.803552764E+02  3.064022407E+02  1.250000000E+02  0.00000E+00  9.000E+00
      25     1     1     2     0     0 -1.502738929E+02 -1.899585742E+02 -1.328485144E+03  1.356157911E+03  1.250000000E+02  0.00000E+00  9.000E+00
      21     1     1     2   511   502 -1.532552091E+01  5.465838365E+01 -7.048422685E+01  9.050103165E+01  1.907348633E-06  0.00000E+00  9.000E+00
#rwgt            1           1   3.7681769489024283E-002           7      406712           0
</event>
<event>
      5   9999  3.79277E-02  1.19022E+02 -1.00000E+00  1.20519E-01
      21    -1     0     0   502   512  0.000000000E+00  0.000000000E+00  4.955393154E+02  4.955393154E+02  0.000000000E+00  0.00000E+00  9.000E+00
      21    -1     0     0   501   502  0.000000000E+00  0.000000000E+00 -2.572684164E+02  2.572684164E+02  0.000000000E+00  0.00000E+00  9.000E+00
      25     1     1     2     0     0 -1.518346784E+02 -5.850666005E+01 -1.058077845E+02  2.308616168E+02  1.250000000E+02  0.00000E+00  9.000E+00
      25     1     1     2     0     0  1.544228970E+02  1.775004202E+02  1.898918050E+02  3.271646801E+02  1.250000000E+02  0.00000E+00  9.000E+00
      21     1     1     2   501   512 -2.588218592E+00 -1.189937602E+02  1.541868787E+02  1.947814349E+02  1.907348633E-06  0.00000E+00  9.000E+00
#rwgt            2          11   2.2457906408915270E-003           7      406897           0
</event>
<event>
      5   9999  3.79277E-02  6.49717E+00 -1.00000E+00  2.20233E-01
      21    -1     0     0   502   501  0.000000000E+00  0.000000000E+00  3.956243550E+02  3.956243550E+02  0.000000000E+00  0.00000E+00  9.000E+00
      21    -1     0     0   501   511  0.000000000E+00  0.000000000E+00 -1.507939412E+02  1.507939412E+02  0.000000000E+00  0.00000E+00  9.000E+00
      25     1     1     2     0     0 -4.027854640E+01  1.087863726E+02  3.160590159E+02  3.591310870E+02  1.250000000E+02  0.00000E+00  9.000E+00
      25     1     1     2     0     0  3.720901623E+01 -1.030600160E+02 -6.563668272E+01  1.787150019E+02  1.250000000E+02  0.00000E+00  9.000E+00
      21     1     1     2   502   511  3.069530168E+00 -5.726356623E+00 -5.591919310E+00  8.572207254E+00  2.230201594E-07  0.00000E+00  9.000E+00
#rwgt            1           1   1.0381835974126587E-002           7      406962           0
</event>
<event>
      5   9999  3.79277E-02  9.95754E+01 -1.00000E+00  1.23911E-01
      21    -1     0     0   512   501  0.000000000E+00  0.000000000E+00  7.912941640E+01  7.912941640E+01  0.000000000E+00  0.00000E+00  9.000E+00
      21    -1     0     0   501   502  0.000000000E+00  0.000000000E+00 -7.909943476E+02  7.909943476E+02  0.000000000E+00  0.00000E+00  9.000E+00
      25     1     1     2     0     0 -1.692678011E+02  5.719830233E+01 -2.503421960E+02  3.319931466E+02  1.250000000E+02  0.00000E+00  9.000E+00
      25     1     1     2     0     0  7.169465182E+01 -3.733020891E+01 -3.842922075E+02  4.121154793E+02  1.250000000E+02  0.00000E+00  9.000E+00
      21     1     1     2   512   502  9.757314932E+01 -1.986809342E+01 -7.723052776E+01  1.260151381E+02  2.336015456E-06  0.00000E+00  9.000E+00
#rwgt            1           1   5.2325461440613952E-002           7      407287           0
</event>
<event>
      5   9999  3.79277E-02  2.34454E+01 -1.00000E+00  1.60868E-01
      21    -1     0     0   502   501  0.000000000E+00  0.000000000E+00  9.044606626E+02  9.044606626E+02  0.000000000E+00  0.00000E+00  9.000E+00
      21    -1     0     0   511   502  0.000000000E+00  0.000000000E+00 -2.896508012E+02  2.896508012E+02  0.000000000E+00  0.00000E+00  9.000E+00
      25     1     1     2     0     0  5.235236465E+01 -1.136113720E+02  4.844820999E+02  5.157482129E+02  1.250000000E+02  0.00000E+00  9.000E+00
      25     1     1     2     0     0 -5.447380894E+01  1.369606353E+02  3.806731971E+02  4.269223518E+02  1.250000000E+02  0.00000E+00  9.000E+00
      21     1     1     2   511   501  2.121444288E+00 -2.334926324E+01 -2.503454357E+02  2.514408992E+02  3.814697266E-06  0.00000E+00  9.000E+00
#rwgt            1           1   4.6555967804516485E-002           7      407365           0
</event>
<event>
      5   9999  3.79277E-02  3.75771E+00 -1.00000E+00  2.70033E-01
      21    -1     0     0   502   501  0.000000000E+00  0.000000000E+00  3.556364829E+02  3.556364829E+02  0.000000000E+00  0.00000E+00  9.000E+00
      21    -1     0     0   512   502  0.000000000E+00  0.000000000E+00 -1.850057647E+02  1.850057647E+02  0.000000000E+00  0.00000E+00  9.000E+00
      25     1     1     2     0     0  2.726779131E+01 -1.315000108E+02  2.231745075E+02  2.889076775E+02  1.250000000E+02  0.00000E+00  9.000E+00
      25     1     1     2     0     0 -2.358868183E+01  1.307354407E+02  1.597983365E+01  1.831079912E+02  1.250000000E+02  0.00000E+00  9.000E+00
      21     1     1     2   512   501 -3.679109478E+00  7.645700962E-01 -6.852362300E+01  6.862657884E+01  1.348699152E-06  0.00000E+00  9.000E+00
#rwgt            1           1   3.9404870777323707E-002           7      407515           0
</event>
<event>
      5   9999  3.79277E-02  2.56245E+01 -1.00000E+00  1.57952E-01
      21    -1     0     0   502   501  0.000000000E+00  0.000000000E+00  1.009087213E+02  1.009087213E+02  0.000000000E+00  0.00000E+00  9.000E+00
      21    -1     0     0   511   502  0.000000000E+00  0.000000000E+00 -6.156598129E+02  6.156598129E+02  0.000000000E+00  0.00000E+00  9.000E+00
      25     1     1     2     0     0 -1.135184073E+02  2.304377621E+01 -9.423906384E+00  1.706788049E+02  1.250000000E+02  0.00000E+00  9.000E+00
      25     1     1     2     0     0  1.174846239E+02 -4.835943868E+01 -4.663078890E+02  4.992086933E+02  1.250000000E+02  0.00000E+00  9.000E+00
      21     1     1     2   511   501 -3.966216577E+00  2.531566247E+01 -3.901929620E+01  4.668103594E+01  8.259061849E-07  0.00000E+00  9.000E+00
#rwgt            1           1   4.4665421243681787E-002           7      407925           0
</event>
<event>
      5   9999  3.79277E-02  5.25465E+01 -1.00000E+00  1.37856E-01
      21    -1     0     0   502   501  0.000000000E+00  0.000000000E+00  7.629305519E+01  7.629305519E+01  0.000000000E+00  0.00000E+00  9.000E+00
       2    -1     0     0   501     0  0.000000000E+00  0.000000000E+00 -2.187820103E+03  2.187820103E+03  0.000000000E+00  0.00000E+00  9.000E+00
      25     1     1     2     0     0  4.547664052E+00 -1.472702815E+02 -1.096026440E+02  2.221417490E+02  1.250000000E+02  0.00000E+00  9.000E+00
      25     1     1     2     0     0 -5.701880518E+01  1.444562219E+02 -4.882067456E+02  5.273419865E+02  1.250000000E+02  0.00000E+00  9.000E+00
       2     1     1     2   502     0  5.247114113E+01  2.814059591E+00 -1.513717658E+03  1.514629422E+03  0.000000000E+00  0.00000E+00  9.000E+00
#rwgt            1           1   4.6122362212696381E-002           7      408133           0
</event>
<event>
      5   9999 -3.79277E-02  7.54265E+00 -1.00000E+00  2.11070E-01
      21    -1     0     0   502   501  0.000000000E+00  0.000000000E+00  7.779777128E+02  7.779777128E+02  0.000000000E+00  0.00000E+00  9.000E+00
      21    -1     0     0   501   511  0.000000000E+00  0.000000000E+00 -1.486146723E+02  1.486146723E+02  0.000000000E+00  0.00000E+00  9.000E+00
      25     1     1     2     0     0  1.068490624E+02  1.692306092E+02  3.404612737E+02  4.142397857E+02  1.250000000E+02  0.00000E+00  9.000E+00
      25     1     1     2     0     0 -1.027757352E+02 -1.628824121E+02  3.675343934E+02  4.333590454E+02  1.250000000E+02  0.00000E+00  9.000E+00
      21     1     1     2   502   511 -4.073327162E+00 -6.348197060E+00 -7.863262660E+01  7.899355395E+01  2.132480600E-06  0.00000E+00  9.000E+00
#rwgt            1           1 -0.16430585329953978                7      408228           0
</event>
<event>
      5   9999  3.79277E-02  7.03657E+01 -1.00000E+00  1.31106E-01
      21    -1     0     0   502   501  0.000000000E+00  0.000000000E+00  1.185058639E+02  1.185058639E+02  0.000000000E+00  0.00000E+00  9.000E+00
       1    -1     0     0   501     0  0.000000000E+00  0.000000000E+00 -2.401426274E+03  2.401426274E+03  0.000000000E+00  0.00000E+00  9.000E+00
      25     1     1     2     0     0 -1.885065022E+02 -3.074857672E+02 -3.361724559E+02  5.086443930E+02  1.250000000E+02  0.00000E+00  9.000E+00
      25     1     1     2     0     0  1.193063744E+02  2.947312271E+02 -9.078384680E+02  9.699980367E+02  1.250000000E+02  0.00000E+00  9.000E+00
       1     1     1     2   502     0  6.920012780E+01  1.275454004E+01 -1.038909487E+03  1.041289709E+03  0.000000000E+00  0.00000E+00  9.000E+00
#rwgt            1           1   4.5780464349307298E-002           7      408577           0
</event>
<event>
      5   9999  3.79277E-02  2.70255E+01 -1.00000E+00  1.56258E-01
      21    -1     0     0   502   501  0.000000000E+00  0.000000000E+00  5.610776666E+02  5.610776666E+02  0.000000000E+00  0.00000E+00  9.000E+00
      21    -1     0     0   501   511  0.000000000E+00  0.000000000E+00 -1.613261007E+02  1.613261007E+02  0.000000000E+00  0.00000E+00  9.000E+00
      25     1     1     2     0     0 -1.475429816E+02 -1.650149970E+02  3.240338670E+01  2.562691166E+02  1.250000000E+02  0.00000E+00  9.000E+00
      25     1     1     2     0     0  1.505893711E+02  1.381617016E+02  3.679935171E+02  4.391014041E+02  1.250000000E+02  0.00000E+00  9.000E+00
      21     1     1     2   502   511 -3.046389533E+00  2.685329537E+01 -6.453379204E-01  2.703324662E+01  1.662665129E-07  0.00000E+00  9.000E+00
#rwgt            1           1   4.5679956215030369E-002           7      408697           0
</event>
<event>
      5   9999  3.79277E-02  9.30915E+01 -1.00000E+00  1.25243E-01
      21    -1     0     0   502   501  0.000000000E+00  0.000000000E+00  6.951282661E+02  6.951282661E+02  0.000000000E+00  0.00000E+00  9.000E+00
      21    -1     0     0   512   502  0.000000000E+00  0.000000000E+00 -2.256555235E+02  2.256555235E+02  0.000000000E+00  0.00000E+00  9.000E+00
      25     1     1     2     0     0 -7.178930028E+00  1.611190522E+02  1.126539729E+02  2.330811096E+02  1.250000000E+02  0.00000E+00  9.000E+00
      25     1     1     2     0     0 -3.521118422E+01 -7.823897583E+01  4.968972343E+02  5.195122966E+02  1.250000000E+02  0.00000E+00  9.000E+00
      21     1     1     2   512   501  4.239011425E+01 -8.288007637E+01 -1.400784646E+02  1.681903835E+02  2.697398305E-06  0.00000E+00  9.000E+00
#rwgt            1           1   3.5322747007579265E-002           7      408888           0
</event>
<event>
      5   9999  3.79277E-02  9.05717E+00 -1.00000E+00  2.00864E-01
      21    -1     0     0   502   501  0.000000000E+00  0.000000000E+00  7.763907650E+02  7.763907650E+02  0.000000000E+00  0.00000E+00  9.000E+00
      21    -1     0     0   511   502  0.000000000E+00  0.000000000E+00 -1.064841760E+02  1.064841760E+02  0.000000000E+00  0.00000E+00  9.000E+00
      25     1     1     2     0     0 -1.483747578E+02 -1.974608294E+02  4.037474063E+02  4.895332634E+02  1.250000000E+02  0.00000E+00  9.000E+00
      25     1     1     2     0     0  1.560345743E+02  1.926276534E+02  2.656836293E+02  3.842720288E+02  1.250000000E+02  0.00000E+00  9.000E+00
      21     1     1     2   511   501 -7.659816525E+00  4.833175946E+00  4.755533684E-01  9.069648832E+00  1.436049884E-07  0.00000E+00  9.000E+00
#rwgt            1           1   3.8142424557241067E-002           7      408952           0
</event>
<event>
      5   9999  3.79277E-02  9.84498E+01 -1.00000E+00  1.24134E-01
      21    -1     0     0   502   512  0.000000000E+00  0.000000000E+00  4.777686398E+02  4.777686398E+02  0.000000000E+00  0.00000E+00  9.000E+00
      21    -1     0     0   501   502  0.000000000E+00  0.000000000E+00 -1.567466533E+02  1.567466533E+02  0.000000000E+00  0.00000E+00  9.000E+00
      25     1     1     2     0     0 -4.306259491E+01  9.567215165E+01  1.791131084E+02  2.423098291E+02  1.250000000E+02  0.00000E+00  9.000E+00
      25     1     1     2     0     0  1.267158033E+00 -6.534562623E+00 -8.060570126E+01  1.488844696E+02  1.250000000E+02  0.00000E+00  9.000E+00
      21     1     1     2   501   512  4.179543688E+01 -8.913758903E+01  2.225145794E+02  2.433209945E+02  0.000000000E+00  0.00000E+00  9.000E+00
#rwgt            1           1   4.4207387866730889E-002           7      409668           0
</event>
<event>
      5   9999  3.79277E-02  2.77350E+01 -1.00000E+00  1.55446E-01
      21    -1     0     0   511   501  0.000000000E+00  0.000000000E+00  5.595026148E+02  5.595026148E+02  0.000000000E+00  0.00000E+00  9.000E+00
      21    -1     0     0   501   502  0.000000000E+00  0.000000000E+00 -1.921755739E+02  1.921755739E+02  0.000000000E+00  0.00000E+00  9.000E+00
      25     1     1     2     0     0 -1.631760425E+02  1.900570796E+02  5.579724752E+01  2.854583107E+02  1.250000000E+02  0.00000E+00  9.000E+00
      25     1     1     2     0     0  1.560420802E+02 -2.168588823E+02  2.129129960E+02  3.637771976E+02  1.250000000E+02  0.00000E+00  9.000E+00
      21     1     1     2   511   502  7.133962223E+00  2.680180276E+01  9.861679735E+01  1.024426804E+02  1.907348633E-06  0.00000E+00  9.000E+00
#rwgt            2          11   1.0265939467346084E-003           7      409802           0
</event>
<event>
      5   9999  3.79277E-02  2.31595E+01 -1.00000E+00  1.61279E-01
       1    -1     0     0   502     0  0.000000000E+00  0.000000000E+00  1.769553483E+02  1.769553483E+02  0.000000000E+00  0.00000E+00  9.000E+00
      21    -1     0     0   501   502  0.000000000E+00  0.000000000E+00 -1.807596093E+03  1.807596093E+03  0.000000000E+00  0.00000E+00  9.000E+00
      25     1     1     2     0     0 -6.077227116E+01 -1.076693532E+02 -3.222326297E+02  3.670760496E+02  1.250000000E+02  0.00000E+00  9.000E+00
      25     1     1     2     0     0  4.394744230E+01  1.235843734E+02 -1.456427696E+03  1.467654969E+03  1.250000000E+02  0.00000E+00  9.000E+00
       1     1     1     2   501     0  1.682482886E+01 -1.591502025E+01  1.480195809E+02  1.498204227E+02  6.031565972E-06  0.00000E+00  9.000E+00
#rwgt            1           1   3.2437987476666034E-002           7      409867           0
</event>
<event>
      5   9999  3.79277E-02  7.08087E+01 -1.00000E+00  1.30969E-01
      21    -1     0     0   502   501  0.000000000E+00  0.000000000E+00  9.560620379E+02  9.560620379E+02  0.000000000E+00  0.00000E+00  9.000E+00
      21    -1     0     0   511   502  0.000000000E+00  0.000000000E+00 -3.047279386E+02  3.047279386E+02  0.000000000E+00  0.00000E+00  9.000E+00
      25     1     1     2     0     0 -6.482301436E+01 -6.780342434E+01  1.540574914E+02  2.194493978E+02  1.250000000E+02  0.00000E+00  9.000E+00
      25     1     1     2     0     0  3.098331656E+01  1.300026709E+02  7.535574660E+02  7.754576164E+02  1.250000000E+02  0.00000E+00  9.000E+00
      21     1     1     2   511   501  3.383969780E+01 -6.219924651E+01 -2.562808581E+02  2.658829623E+02  0.000000000E+00  0.00000E+00  9.000E+00
#rwgt            1           1   4.9918123527597495E-002           7      410034           0
</event>
<event>
      5   9999  3.79277E-02  6.79768E+01 -1.00000E+00  1.31869E-01
      21    -1     0     0   502   501  0.000000000E+00  0.000000000E+00  2.898141058E+02  2.898141058E+02  0.000000000E+00  0.00000E+00  9.000E+00
      21    -1     0     0   501   512  0.000000000E+00  0.000000000E+00 -2.219768053E+02  2.219768053E+02  0.000000000E+00  0.00000E+00  9.000E+00
      25     1     1     2     0     0  6.449441757E+01  1.756709769E+02  1.334700342E+02  2.616468461E+02  1.250000000E+02  0.00000E+00  9.000E+00
      25     1     1     2     0     0 -5.004000870E+01 -1.092487260E+02 -4.598677467E+01  1.793852559E+02  1.250000000E+02  0.00000E+00  9.000E+00
      21     1     1     2   502   512 -1.445440887E+01 -6.642225094E+01 -1.964595905E+01  7.075880908E+01  1.238859277E-06  0.00000E+00  9.000E+00
#rwgt            1           1   3.4238984402293560E-002           7      410099           0
</event>
<event>
      5   9999  3.79277E-02  1.76307E+01 -1.00000E+00  1.71018E-01
      21    -1     0     0   511   501  0.000000000E+00  0.000000000E+00  9.572815150E+02  9.572815150E+02  0.000000000E+00  0.00000E+00  9.000E+00
      21    -1     0     0   501   502  0.000000000E+00  0.000000000E+00 -6.251610770E+01  6.251610770E+01  0.000000000E+00  0.00000E+00  9.000E+00
      25     1     1     2     0     0 -1.073584259E+02 -5.134173601E+01  4.170984557E+02  4.513955331E+02  1.250000000E+02  0.00000E+00  9.000E+00
      25     1     1     2     0     0  9.313861151E+01  6.176478348E+01  1.104969303E+02  2.008090163E+02  1.250000000E+02  0.00000E+00  9.000E+00
      21     1     1     2   511   502  1.421981442E+01 -1.042304747E+01  3.671700213E+02  3.675930733E+02  0.000000000E+00  0.00000E+00  9.000E+00
#rwgt            1           1   2.8147487790359686E-002           7      410183           0
</event>
<event>
      5   9999  3.79277E-02  1.64628E+01 -1.00000E+00  1.73659E-01
      21    -1     0     0   512   501  0.000000000E+00  0.000000000E+00  1.328734699E+03  1.328734699E+03  0.000000000E+00  0.00000E+00  9.000E+00
      21    -1     0     0   501   502  0.000000000E+00  0.000000000E+00 -6.537832179E+01  6.537832179E+01  0.000000000E+00  0.00000E+00  9.000E+00
      25     1     1     2     0     0 -4.044269358E+01 -2.471917214E+02  6.273887700E+02  6.870087534E+02  1.250000000E+02  0.00000E+00  9.000E+00
      25     1     1     2     0     0  3.457130402E+01  2.318115641E+02  4.663747709E+02  5.367142659E+02  1.250000000E+02  0.00000E+00  9.000E+00
      21     1     1     2   512   502  5.871389558E+00  1.538015732E+01  1.695928359E+02  1.703900010E+02  0.000000000E+00  0.00000E+00  9.000E+00
#rwgt            1           1   3.3952024496847540E-002           7      410476           0
</event>
<event>
      5   9999  3.79277E-02  2.90149E+01 -1.00000E+00  1.54054E-01
      21    -1     0     0   502   511  0.000000000E+00  0.000000000E+00  2.418654591E+02  2.418654591E+02  0.000000000E+00  0.00000E+00  9.000E+00
      21    -1     0     0   501   502  0.000000000E+00  0.000000000E+00 -1.259849267E+02  1.259849267E+02  0.000000000E+00  0.00000E+00  9.000E+00
      25     1     1     2     0     0  7.350905578E+01 -2.790097294E+01 -1.576943878E+01  1.485116856E+02  1.250000000E+02  0.00000E+00  9.000E+00
      25     1     1     2     0     0 -4.734239142E+01  1.536415136E+01  7.105465145E+01  1.521549298E+02  1.250000000E+02  0.00000E+00  9.000E+00
      21     1     1     2   501   511 -2.616666437E+01  1.253682159E+01  6.059531970E+01  6.718377028E+01  6.743495762E-07  0.00000E+00  9.000E+00
#rwgt            1           1   8.1747992142688422E-002           7      410672           0
</event>
<event>
      5   9999  3.79277E-02  1.18468E+02 -1.00000E+00  1.20606E-01
      21    -1     0     0   512   501  0.000000000E+00  0.000000000E+00  9.047869968E+01  9.047869968E+01  0.000000000E+00  0.00000E+00  9.000E+00
      21    -1     0     0   501   502  0.000000000E+00  0.000000000E+00 -9.512275654E+02  9.512275654E+02  0.000000000E+00  0.00000E+00  9.000E+00
      25     1     1     2     0     0  4.131280907E+01 -6.224311177E+01 -6.068589879E+02  6.240863597E+02  1.250000000E+02  0.00000E+00  9.000E+00
      25     1     1     2     0     0 -1.597417606E+02  6.529516612E+01 -1.606272505E+02  2.668464022E+02  1.250000000E+02  0.00000E+00  9.000E+00
      21     1     1     2   512   502  1.184289515E+02 -3.052054351E+00 -9.326262729E+01  1.507735031E+02  2.697398305E-06  0.00000E+00  9.000E+00
#rwgt            1           1   4.2034349809909652E-002           7      410762           0
</event>
<event>
      5   9999  3.79277E-02  2.01169E+01 -1.00000E+00  1.66161E-01
       1    -1     0     0   502     0  0.000000000E+00  0.000000000E+00  1.655677872E+03  1.655677872E+03  0.000000000E+00  0.00000E+00  9.000E+00
      21    -1     0     0   501   502  0.000000000E+00  0.000000000E+00 -3.040835165E+01  3.040835165E+01  0.000000000E+00  0.00000E+00  9.000E+00
      25     1     1     2     0     0  6.806207195E+01 -1.909161560E+01  1.386670102E+03  1.394086048E+03  1.250000000E+02  0.00000E+00  9.000E+00
      25     1     1     2     0     0 -4.838996363E+01  2.329850192E+01  1.560229122E+02  2.070085938E+02  1.250000000E+02  0.00000E+00  9.000E+00
       1     1     1     2   501     0 -1.967210831E+01 -4.206886314E+00  8.257650543E+01  8.499158186E+01  1.348699152E-06  0.00000E+00  9.000E+00
#rwgt            1           1   5.1397680026079640E-002           7      410948           0
</event>
<event>
      5   9999  3.79277E-02  7.72679E+01 -1.00000E+00  1.29084E-01
       2    -1     0     0   502     0  0.000000000E+00  0.000000000E+00  7.861636076E+02  7.861636076E+02  0.000000000E+00  0.00000E+00  9.000E+00
      21    -1     0     0   501   502  0.000000000E+00  0.000000000E+00 -1.716328144E+02  1.716328144E+02  0.000000000E+00  0.00000E+00  9.000E+00
      25     1     1     2     0     0  9.157568297E+01  1.128327334E+02  9.892556342E+01  2.157048876E+02  1.250000000E+02  0.00000E+00  9.000E+00
      25     1     1     2     0     0 -1.688007995E+02 -1.102625907E+02  1.732786003E+01  2.378587891E+02  1.250000000E+02  0.00000E+00  9.000E+00
       2     1     1     2   501     0  7.722511655E+01 -2.570142665E+00  4.982773697E+02  5.042327453E+02  7.629394531E-06  0.00000E+00  9.000E+00
#rwgt            1           1   3.7884090029108447E-002           7      411206           0
</event>
<event>
      5   9999  3.79277E-02  6.89840E+01 -1.00000E+00  1.31543E-01
      21    -1     0     0   502   501  0.000000000E+00  0.000000000E+00  2.605834015E+02  2.605834015E+02  0.000000000E+00  0.00000E+00  9.000E+00
      21    -1     0     0   501   511  0.000000000E+00  0.000000000E+00 -1.929457599E+02  1.929457599E+02  0.000000000E+00  0.00000E+00  9.000E+00
      25     1     1     2     0     0 -1.399317768E+02 -4.000034854E+01  3.796907483E+01  1.955698870E+02  1.250000000E+02  0.00000E+00  9.000E+00
      25     1     1     2     0     0  9.865534418E+01 -1.527220159E+01  7.368713141E+01  1.761275402E+02  1.250000000E+02  0.00000E+00  9.000E+00
      21     1     1     2   502   511  4.127643262E+01  5.527255013E+01 -4.401856467E+01  8.183173421E+01  1.507891493E-06  0.00000E+00  9.000E+00
#rwgt            1           1   3.4073361763833063E-002           7      411245           0
</event>
<event>
      5   9999  3.79277E-02  3.20344E+01 -1.00000E+00  1.51087E-01
      21    -1     0     0   502   512  0.000000000E+00  0.000000000E+00  3.133648914E+02  3.133648914E+02  0.000000000E+00  0.00000E+00  9.000E+00
      21    -1     0     0   501   502  0.000000000E+00  0.000000000E+00 -2.520759741E+02  2.520759741E+02  0.000000000E+00  0.00000E+00  9.000E+00
      25     1     1     2     0     0 -1.044393057E+02  5.024325853E+01 -1.712532087E+02  2.416290858E+02  1.250000000E+02  0.00000E+00  9.000E+00
      25     1     1     2     0     0  1.248858785E+02 -2.558273750E+01  1.431095565E+02  2.288150001E+02  1.250000000E+02  0.00000E+00  9.000E+00
      21     1     1     2   501   512 -2.044657277E+01 -2.466052103E+01  8.943256961E+01  9.499677964E+01  1.651812370E-06  0.00000E+00  9.000E+00
#rwgt            1           1   5.0714429370620789E-002           7      411393           0
</event>
<event>
      5   9999  3.79277E-02  1.90602E+01 -1.00000E+00  1.68112E-01
      21    -1     0     0   511   501  0.000000000E+00  0.000000000E+00  2.737540974E+02  2.737540974E+02  0.000000000E+00  0.00000E+00  9.000E+00
      21    -1     0     0   501   502  0.000000000E+00  0.000000000E+00 -2.108227069E+02  2.108227069E+02  0.000000000E+00  0.00000E+00  9.000E+00
      25     1     1     2     0     0 -4.037634073E+01 -1.222330781E+02  1.800503113E+02  2.541934084E+02  1.250000000E+02  0.00000E+00  9.000E+00
      25     1     1     2     0     0  3.245674004E+01  1.048961007E+02 -1.266265315E+02  2.090835010E+02  1.250000000E+02  0.00000E+00  9.000E+00
      21     1     1     2   511   502  7.919600694E+00  1.733697738E+01  9.507610603E+00  2.129989482E+01  2.665600750E-07  0.00000E+00  9.000E+00
#rwgt            1           1   4.1624857429931113E-002           7      411474           0
</event>
<event>
      5   9999  3.79277E-02  5.10951E+01 -1.00000E+00  1.38541E-01
      21    -1     0     0   502   501  0.000000000E+00  0.000000000E+00  7.554157712E+02  7.554157712E+02  0.000000000E+00  0.00000E+00  9.000E+00
      21    -1     0     0   501   512  0.000000000E+00  0.000000000E+00 -7.711817695E+01  7.711817695E+01  0.000000000E+00  0.00000E+00  9.000E+00
      25     1     1     2     0     0 -4.534532750E+01  1.872714882E+01  5.046582213E+01  1.434527937E+02  1.250000000E+02  0.00000E+00  9.000E+00
      25     1     1     2     0     0  5.739796962E+01  3.092603788E+01  6.218570759E+02  6.376379613E+02  1.250000000E+02  0.00000E+00  9.000E+00
      21     1     1     2   502   512 -1.205264212E+01 -4.965318670E+01  5.974696232E+00  5.144319320E+01  9.721223372E-07  0.00000E+00  9.000E+00
#rwgt            1           1   1.0597924502204099E-002           7      411685           0
</event>
<event>
      5   9999  3.79277E-02  2.69630E+01 -1.00000E+00  1.56331E-01
      21    -1     0     0   502   501  0.000000000E+00  0.000000000E+00  1.064268020E+03  1.064268020E+03  0.000000000E+00  0.00000E+00  9.000E+00
      21    -1     0     0   501   511  0.000000000E+00  0.000000000E+00 -3.053027948E+01  3.053027948E+01  0.000000000E+00  0.00000E+00  9.000E+00
      25     1     1     2     0     0 -9.723431121E+01 -2.284192107E+01  4.706325537E+02  4.970877843E+02  1.250000000E+02  0.00000E+00  9.000E+00
      25     1     1     2     0     0  1.178405091E+02  5.452559210E+00  5.094408516E+02  5.376533244E+02  1.250000000E+02  0.00000E+00  9.000E+00
      21     1     1     2   502   511 -2.060619789E+01  1.738936186E+01  5.366433546E+01  6.005719105E+01  0.000000000E+00  0.00000E+00  9.000E+00
#rwgt            1           1   4.0475657852848755E-002           7      411907           0
</event>
<event>
      5   9999  3.79277E-02  7.01164E+01 -1.00000E+00  1.31184E-01
      21    -1     0     0   502   501  0.000000000E+00  0.000000000E+00  1.645070874E+02  1.645070874E+02  0.000000000E+00  0.00000E+00  9.000E+00
      21    -1     0     0   512   502  0.000000000E+00  0.000000000E+00 -2.645508723E+02  2.645508723E+02  0.000000000E+00  0.00000E+00  9.000E+00
      25     1     1     2     0     0 -3.320441763E+01 -7.185077262E+01  7.341894716E+01  1.651678197E+02  1.250000000E+02  0.00000E+00  9.000E+00
      25     1     1     2     0     0 -1.439662236E+01  2.036818458E+01 -1.259351116E+02  1.791836433E+02  1.250000000E+02  0.00000E+00  9.000E+00
      21     1     1     2   512   501  4.760103999E+01  5.148258803E+01 -4.752762047E+01  8.470649672E+01  1.507891493E-06  0.00000E+00  9.000E+00
#rwgt            1           1   4.1822323858314456E-002           7      412025           0
</event>
<event>
      5   9999  3.79277E-02  3.00678E+01 -1.00000E+00  1.52972E-01
      21    -1     0     0   502   511  0.000000000E+00  0.000000000E+00  3.849099122E+02  3.849099122E+02  0.000000000E+00  0.00000E+00  9.000E+00
      21    -1     0     0   501   502  0.000000000E+00  0.000000000E+00 -1.211647420E+02  1.211647420E+02  0.000000000E+00  0.00000E+00  9.000E+00
      25     1     1     2     0     0 -2.878974773E+01  1.644949893E+01  1.070085333E+02  1.678548831E+02  1.250000000E+02  0.00000E+00  9.000E+00
      25     1     1     2     0     0  4.834298177E+01 -3.929121346E+01 -3.512811754E+01  1.440132910E+02  1.250000000E+02  0.00000E+00  9.000E+00
      21     1     1     2   501   511 -1.955323404E+01  2.284171453E+01  1.918647545E+02  1.942064800E+02  2.697398305E-06  0.00000E+00  9.000E+00
#rwgt            1           1  0.13772242832609283                7      412257           0
</event>
<event>
      5   9999  3.79277E-02  4.90656E+01 -1.00000E+00  1.39545E-01
      21    -1     0     0   502   501  0.000000000E+00  0.000000000E+00  2.619523298E+02  2.619523298E+02  0.000000000E+00  0.00000E+00  9.000E+00
      21    -1     0     0   512   502  0.000000000E+00  0.000000000E+00 -2.388794030E+02  2.388794030E+02  0.000000000E+00  0.00000E+00  9.000E+00
      25     1     1     2     0     0  1.567474355E+02 -9.170074508E+01  9.951827107E+01  2.418835907E+02  1.250000000E+02  0.00000E+00  9.000E+00
      25     1     1     2     0     0 -1.475390551E+02  4.350699846E+01 -5.783349747E+01  2.064711726E+02  1.250000000E+02  0.00000E+00  9.000E+00
      21     1     1     2   512   501 -9.208380384E+00  4.819374663E+01 -1.861184680E+01  5.247696947E+01  0.000000000E+00  0.00000E+00  9.000E+00
#rwgt            1           1   3.6230639469532228E-002           7      412387           0
</event>
<event>
      5   9999  3.79277E-02  1.11640E+02 -1.00000E+00  1.21715E-01
      21    -1     0     0   511   501  0.000000000E+00  0.000000000E+00  6.019634980E+02  6.019634980E+02  0.000000000E+00  0.00000E+00  9.000E+00
      21    -1     0     0   501   502  0.000000000E+00  0.000000000E+00 -2.977055594E+02  2.977055594E+02  0.000000000E+00  0.00000E+00  9.000E+00
      25     1     1     2     0     0  8.601513471E+01 -2.434628321E+02  1.396487220E+02  3.190603698E+02  1.250000000E+02  0.00000E+00  9.000E+00
      25     1     1     2     0     0 -1.907670294E+02  2.820712584E+02 -2.172346305E+01  3.633911985E+02  1.250000000E+02  0.00000E+00  9.000E+00
      21     1     1     2   511   502  1.047518947E+02 -3.860842626E+01  1.863326797E+02  2.172174890E+02  0.000000000E+00  0.00000E+00  9.000E+00
#rwgt            1           1  0.16675523131341749                7      412471           0
</event>
<event>
      5   9999  3.79277E-02  1.13425E+02 -1.00000E+00  1.21416E-01
      21    -1     0     0   502   501  0.000000000E+00  0.000000000E+00  4.894078530E+02  4.894078530E+02  0.000000000E+00  0.00000E+00  9.000E+00
      21    -1     0     0   512   502  0.000000000E+00  0.000000000E+00 -1.304029215E+02  1.304029215E+02  0.000000000E+00  0.00000E+00  9.000E+00
      25     1     1     2     0     0 -4.738280035E+01 -6.141790373E+01  1.830383880E+02  2.348304498E+02  1.250000000E+02  0.00000E+00  9.000E+00
      25     1     1     2     0     0  1.025800671E+02  1.605058027E+02  1.024284735E+02  2.498026722E+02  1.250000000E+02  0.00000E+00  9.000E+00
      21     1     1     2   512   501 -5.519726672E+01 -9.908789902E+01  7.353807004E+01  1.351776525E+02  1.651812370E-06  0.00000E+00  9.000E+00
#rwgt            1           1   2.5993842238865004E-002           7      412599           0
</event>
<event>
      5   9999  3.79277E-02  9.44177E+00 -1.00000E+00  1.98686E-01
      21    -1     0     0   511   501  0.000000000E+00  0.000000000E+00  1.032394225E+03  1.032394225E+03  0.000000000E+00  0.00000E+00  9.000E+00
      21    -1     0     0   501   502  0.000000000E+00  0.000000000E+00 -4.929910862E+01  4.929910862E+01  0.000000000E+00  0.00000E+00  9.000E+00
      25     1     1     2     0     0 -3.600795129E+01 -1.440732097E+00  8.488368514E+02  8.587477211E+02  1.250000000E+02  0.00000E+00  9.000E+00
      25     1     1     2     0     0  2.805347664E+01  6.527317670E+00  4.923505860E+01  1.373997614E+02  1.250000000E+02  0.00000E+00  9.000E+00
      21     1     1     2   511   502  7.954474648E+00 -5.086585574E+00  8.502320613E+01  8.554585087E+01  0.000000000E+00  0.00000E+00  9.000E+00
#rwgt            1           1   4.5731411869413353E-002           7      412655           0
</event>
<event>
      5   9999  3.79277E-02  8.45192E+00 -1.00000E+00  2.04598E-01
      21    -1     0     0   502   501  0.000000000E+00  0.000000000E+00  4.968806899E+02  4.968806899E+02  0.000000000E+00  0.00000E+00  9.000E+00
      21    -1     0     0   501   512  0.000000000E+00  0.000000000E+00 -1.107701360E+02  1.107701360E+02  0.000000000E+00  0.00000E+00  9.000E+00
      25     1     1     2     0     0  1.296923683E+02 -7.101548978E+01  3.441236851E+01  1.966533022E+02  1.250000000E+02  0.00000E+00  9.000E+00
      25     1     1     2     0     0 -1.380517248E+02  6.976801713E+01  3.497281047E+02  4.023190303E+02  1.250000000E+02  0.00000E+00  9.000E+00
      21     1     1     2   502   512  8.359356534E+00  1.247472656E+00  1.970080626E+00  8.678493381E+00  2.457562462E-07  0.00000E+00  9.000E+00
#rwgt            1           1   3.1626750899530737E-002           7      413060           0
</event>
<event>
      5   9999  3.79277E-02  1.45056E+02 -1.00000E+00  1.16973E-01
      21    -1     0     0   502   511  0.000000000E+00  0.000000000E+00  5.105671444E+02  5.105671444E+02  0.000000000E+00  0.00000E+00  9.000E+00
      21    -1     0     0   501   502  0.000000000E+00  0.000000000E+00 -1.586964209E+02  1.586964209E+02  0.000000000E+00  0.00000E+00  9.000E+00
      25     1     1     2     0     0  6.023797546E+01  4.697444179E+01  1.802994509E+02  2.323103611E+02  1.250000000E+02  0.00000E+00  9.000E+00
      25     1     1     2     0     0 -1.213408253E+02  8.458461178E+01 -2.217448965E+01  1.949227037E+02  1.250000000E+02  0.00000E+00  9.000E+00
      21     1     1     2   501   511  6.110284981E+01 -1.315590536E+02  1.937457622E+02  2.420305006E+02  2.697398305E-06  0.00000E+00  9.000E+00
#rwgt            2          11   2.1281761721958690E-003           7      414378           0
</event>
<event>
      5   9999  3.79277E-02  1.73201E+01 -1.00000E+00  1.71695E-01
       1    -1     0     0   502     0  0.000000000E+00  0.000000000E+00  1.443487226E+03  1.443487226E+03  0.000000000E+00  0.00000E+00  9.000E+00
      21    -1     0     0   501   502  0.000000000E+00  0.000000000E+00 -2.261249788E+02  2.261249788E+02  0.000000000E+00  0.00000E+00  9.000E+00
      25     1     1     2     0     0  2.076895338E+02 -1.017596935E+02 -7.858931537E+01  2.743925257E+02  1.250000000E+02  0.00000E+00  9.000E+00
      25     1     1     2     0     0 -2.138019664E+02  8.555405820E+01  2.967745027E+02  3.958925147E+02  1.250000000E+02  0.00000E+00  9.000E+00
       1     1     1     2   501     0  6.112432613E+00  1.620563533E+01  9.991770597E+02  9.993271642E+02  1.525878906E-05  0.00000E+00  9.000E+00
#rwgt            1           1   3.2410817402228016E-002           7      414413           0
</event>
<event>
      5   9999  3.79277E-02  4.50460E+01 -1.00000E+00  1.41711E-01
      21    -1     0     0   502   501  0.000000000E+00  0.000000000E+00  1.143315061E+03  1.143315061E+03  0.000000000E+00  0.00000E+00  9.000E+00
       5    -1     0     0   501     0  0.000000000E+00  0.000000000E+00 -5.181315739E+02  5.181315739E+02  0.000000000E+00  0.00000E+00  9.000E+00
      25     1     1     2     0     0 -1.154324489E+01 -4.838360752E+01  1.986959011E+02  2.399568318E+02  1.250000000E+02  0.00000E+00  9.000E+00
      25     1     1     2     0     0  4.388410716E+01  7.973985242E+01  9.164793018E+02  9.294318531E+02  1.250000000E+02  0.00000E+00  9.000E+00
       5     1     1     2   502     0 -3.234086227E+01 -3.135624490E+01 -4.899917154E+02  4.920579505E+02  9.344061824E-06  0.00000E+00  9.000E+00
#rwgt            1           1   5.9247555133363029E-002           7      414687           0
</event>
<event>
      5   9999  3.79277E-02  4.21187E+00 -1.00000E+00  2.58298E-01
      21    -1     0     0   502   511  0.000000000E+00  0.000000000E+00  4.903129329E+01  4.903129329E+01  0.000000000E+00  0.00000E+00  9.000E+00
      21    -1     0     0   501   502  0.000000000E+00  0.000000000E+00 -6.446789817E+02  6.446789817E+02  0.000000000E+00  0.00000E+00  9.000E+00
      25     1     1     2     0     0  7.021401311E+01 -4.149170106E+01 -4.763492063E+02  4.991844701E+02  1.250000000E+02  0.00000E+00  9.000E+00
      25     1     1     2     0     0 -7.040762281E+01  3.728428471E+01 -1.193602559E+02  1.903134833E+02  1.250000000E+02  0.00000E+00  9.000E+00
      21     1     1     2   501   511  1.936096985E-01  4.207416348E+00  6.177376566E-02  4.212321573E+00  6.386184222E-08  0.00000E+00  9.000E+00
#rwgt            1           1   5.0426097696531974E-002           7      414922           0
</event>
<event>
      5   9999  3.79277E-02  1.50881E+01 -1.00000E+00  1.77144E-01
      21    -1     0     0   502   501  0.000000000E+00  0.000000000E+00  3.525578325E+02  3.525578325E+02  0.000000000E+00  0.00000E+00  9.000E+00
       1    -1     0     0   501     0  0.000000000E+00  0.000000000E+00 -1.860433563E+03  1.860433563E+03  0.000000000E+00  0.00000E+00  9.000E+00
      25     1     1     2     0     0 -4.471652647E+01  1.318978757E+02  2.131042207E+02  2.836106948E+02  1.250000000E+02  0.00000E+00  9.000E+00
      25     1     1     2     0     0  3.585300042E+01 -1.441080632E+02  1.374217773E+01  1.945929571E+02  1.250000000E+02  0.00000E+00  9.000E+00
       1     1     1     2   502     0  8.863526046E+00  1.221018748E+01 -1.734722129E+03  1.734787743E+03  0.000000000E+00  0.00000E+00  9.000E+00
#rwgt            1           1   4.4845391582123181E-002           7      415260           0
</event>
<event>
      5   9999  3.79277E-02  1.59657E+02 -1.00000E+00  1.15330E-01
       2    -1     0     0   502     0  0.000000000E+00  0.000000000E+00  1.929279464E+03  1.929279464E+03  0.000000000E+00  0.00000E+00  9.000E+00
      21    -1     0     0   501   502  0.000000000E+00  0.000000000E+00 -2.251761621E+02  2.251761621E+02  0.000000000E+00  0.00000E+00  9.000E+00
      25     1     1     2     0     0  7.840879766E+01  9.470804443E+01 -1.698737768E+02  2.441304022E+02  1.250000000E+02  0.00000E+00  9.000E+00
      25     1     1     2     0     0  4.656544296E+01  4.648092103E+00  3.009925025E+02  3.292589130E+02  1.250000000E+02  0.00000E+00  9.000E+00
       2     1     1     2   501     0 -1.249742406E+02 -9.935613653E+01  1.572984577E+03  1.581066311E+03  4.315837288E-05  0.00000E+00  9.000E+00
#rwgt            1           1   4.1652092490372356E-002           7      415501           0
</event>
<event>
      5   9999  3.79277E-02  2.12725E+01 -1.00000E+00  1.64189E-01
      21    -1     0     0   502   511  0.000000000E+00  0.000000000E+00  1.119131149E+02  1.119131149E+02  0.000000000E+00  0.00000E+00  9.000E+00
      21    -1     0     0   501   502  0.000000000E+00  0.000000000E+00 -5.591209040E+02  5.591209040E+02  0.000000000E+00  0.00000E+00  9.000E+00
      25     1     1     2     0     0 -1.127720876E+02  1.154060078E+02 -2.612547329E+02  3.315345017E+02  1.250000000E+02  0.00000E+00  9.000E+00
      25     1     1     2     0     0  1.287274088E+02 -1.294753422E+02 -2.116124741E+02  3.061689880E+02  1.250000000E+02  0.00000E+00  9.000E+00
      21     1     1     2   501   511 -1.595532115E+01  1.406933436E+01  2.565941797E+01  3.333052914E+01  1.011524364E-06  0.00000E+00  9.000E+00
#rwgt            1           1   4.1206246540855355E-002           7      415744           0
</event>
<event>
      5   9999  3.79277E-02  4.82494E+01 -1.00000E+00  1.39964E-01
      21    -1     0     0   502   501  0.000000000E+00  0.000000000E+00  7.052930631E+02  7.052930631E+02  0.000000000E+00  0.00000E+00  9.000E+00
      21    -1     0     0   512   502  0.000000000E+00  0.000000000E+00 -4.309933613E+02  4.309933613E+02  0.000000000E+00  0.00000E+00  9.000E+00
      25     1     1     2     0     0 -1.597485198E+02 -1.161288335E+02  1.940331217E+02  3.037751600E+02  1.250000000E+02  0.00000E+00  9.000E+00
      25     1     1     2     0     0  1.406584562E+02  7.181665086E+01  4.324416726E+02  4.770463634E+02  1.250000000E+02  0.00000E+00  9.000E+00
      21     1     1     2   512   501  1.909006362E+01  4.431218260E+01 -3.521750925E+02  3.554649010E+02  5.394796609E-06  0.00000E+00  9.000E+00
#rwgt            1           1   2.8732619364115468E-002           7      415877           0
</event>
<event>
      5   9999  3.79277E-02  2.51450E+01 -1.00000E+00  1.58563E-01
      21    -1     0     0   502   511  0.000000000E+00  0.000000000E+00  1.838896736E+02  1.838896736E+02  0.000000000E+00  0.00000E+00  9.000E+00
      21    -1     0     0   501   502  0.000000000E+00  0.000000000E+00 -3.223850159E+02  3.223850159E+02  0.000000000E+00  0.00000E+00  9.000E+00
      25     1     1     2     0     0 -2.077028856E+01  1.222784976E+02 -2.089513315E+02  2.732564634E+02  1.250000000E+02  0.00000E+00  9.000E+00
      25     1     1     2     0     0 -4.256452520E+00 -1.198422378E+02  1.713507737E+01  1.740657641E+02  1.250000000E+02  0.00000E+00  9.000E+00
      21     1     1     2   501   511  2.502674108E+01 -2.436259879E+00  5.332091191E+01  5.895246202E+01  9.536743164E-07  0.00000E+00  9.000E+00
#rwgt            1           1   4.7144855795562671E-002           7      415995           0
</event>
<event>
      5   9999  3.79277E-02  1.40920E+02 -1.00000E+00  1.17479E-01
      21    -1     0     0   502   501  0.000000000E+00  0.000000000E+00  2.711973920E+02  2.711973920E+02  0.000000000E+00  0.00000E+00  9.000E+00
      21    -1     0     0   512   502  0.000000000E+00  0.000000000E+00 -1.088568228E+03  1.088568228E+03  0.000000000E+00  0.00000E+00  9.000E+00
      25     1     1     2     0     0  4.463462680E+01  1.267412368E+02  5.796260190E+01  1.924584481E+02  1.250000000E+02  0.00000E+00  9.000E+00
      25     1     1     2     0     0 -4.534724689E+01 -2.676593933E+02 -1.901796908E+01  2.994738833E+02  1.250000000E+02  0.00000E+00  9.000E+00
      21     1     1     2   512   501  7.126200896E-01  1.409181565E+02 -8.563154686E+02  8.678332884E+02  1.525878906E-05  0.00000E+00  9.000E+00
#rwgt            1           1   3.1935261843723792E-002           7      416306           0
</event>
<event>
      5   9999  3.79277E-02  9.79719E+00 -1.00000E+00  1.96791E-01
      21    -1     0     0   502   501  0.000000000E+00  0.000000000E+00  1.328089670E+03  1.328089670E+03  0.000000000E+00  0.00000E+00  9.000E+00
      -1    -1     0     0     0   502  0.000000000E+00  0.000000000E+00 -1.939258878E+02  1.939258878E+02  0.000000000E+00  0.00000E+00  9.000E+00
      25     1     1     2     0     0  1.080498725E+02  1.612616464E+02  8.777382787E+02  9.075954933E+02  1.250000000E+02  0.00000E+00  9.000E+00
      25     1     1     2     0     0 -1.176990721E+02 -1.595652096E+02  4.037046857E+02  4.668153821E+02  1.250000000E+02  0.00000E+00  9.000E+00
      -1     1     1     2     0   501  9.649199588E+00 -1.696436876E+00 -1.472791819E+02  1.476046827E+02  5.394796609E-06  0.00000E+00  9.000E+00
#rwgt            1           1  0.13867528976390786                7      416367           0
</event>
<event>
      5   9999  3.79277E-02  2.88704E+01 -1.00000E+00  1.54207E-01
      21    -1     0     0   511   501  0.000000000E+00  0.000000000E+00  4.070292281E+02  4.070292281E+02  0.000000000E+00  0.00000E+00  9.000E+00
      21    -1     0     0   501   502  0.000000000E+00  0.000000000E+00 -2.098012466E+02  2.098012466E+02  0.000000000E+00  0.00000E+00  9.000E+00
      25     1     1     2     0     0  7.936890810E+01  1.005588656E+01 -1.024314755E+02  1.803267911E+02  1.250000000E+02  0.00000E+00  9.000E+00
      25     1     1     2     0     0 -1.073452532E+02 -1.718503740E+01  3.378993153E+01  1.690712523E+02  1.250000000E+02  0.00000E+00  9.000E+00
      21     1     1     2   511   502  2.797634511E+01  7.129150840E+00  2.658695255E+02  2.674324312E+02  0.000000000E+00  0.00000E+00  9.000E+00
#rwgt            1           1   8.0806913213019971E-002           7      416625           0
</event>
<event>
      5   9999 -3.79277E-02  9.95380E+00 -1.00000E+00  1.95990E-01
      21    -1     0     0   512   501  0.000000000E+00  0.000000000E+00  1.074433453E+02  1.074433453E+02  0.000000000E+00  0.00000E+00  9.000E+00
      21    -1     0     0   501   502  0.000000000E+00  0.000000000E+00 -7.710476744E+02  7.710476744E+02  0.000000000E+00  0.00000E+00  9.000E+00
      25     1     1     2     0     0 -1.209915574E+02  7.289051948E+00 -5.725391317E+02  5.984297323E+02  1.250000000E+02  0.00000E+00  9.000E+00
      25     1     1     2     0     0  1.191087114E+02 -1.706315401E+01 -1.444460916E+02  2.257602926E+02  1.250000000E+02  0.00000E+00  9.000E+00
      21     1     1     2   512   502  1.882846012E+00  9.774102060E+00  5.338089416E+01  5.430099485E+01  2.132480600E-06  0.00000E+00  9.000E+00
#rwgt            1           1 -0.20494686787668590                7      416756           0
</event>
<event>
      5   9999  3.79277E-02  2.53661E+01 -1.00000E+00  1.58279E-01
      21    -1     0     0   502   511  0.000000000E+00  0.000000000E+00  2.149360794E+03  2.149360794E+03  0.000000000E+00  0.00000E+00  9.000E+00
      21    -1     0     0   501   502  0.000000000E+00  0.000000000E+00 -3.387975992E+01  3.387975992E+01  0.000000000E+00  0.00000E+00  9.000E+00
      25     1     1     2     0     0 -1.048792236E+00  5.163846021E+01  1.335237045E+03  1.342069520E+03  1.250000000E+02  0.00000E+00  9.000E+00
      25     1     1     2     0     0 -2.334755761E+00 -7.677793235E+01  1.479259350E+02  2.083443885E+02  1.250000000E+02  0.00000E+00  9.000E+00
      21     1     1     2   501   511  3.383547997E+00  2.513947214E+01  6.323180537E+02  6.328266449E+02  7.629394531E-06  0.00000E+00  9.000E+00
#rwgt            1           1   4.4688370428820318E-002           7      417050           0
</event>
<event>
      5   9999  3.79277E-02  2.94125E+01 -1.00000E+00  1.53639E-01
      21    -1     0     0   502   501  0.000000000E+00  0.000000000E+00  1.727844617E+02  1.727844617E+02  0.000000000E+00  0.00000E+00  9.000E+00
       1    -1     0     0   501     0  0.000000000E+00  0.000000000E+00 -7.246106083E+02  7.246106083E+02  0.000000000E+00  0.00000E+00  9.000E+00
      25     1     1     2     0     0  9.199702957E+00  1.838851543E+02 -7.036909245E+01  2.333992152E+02  1.250000000E+02  0.00000E+00  9.000E+00
      25     1     1     2     0     0  1.706365928E+01 -1.706439651E+02 -3.322628229E+01  2.148011107E+02  1.250000000E+02  0.00000E+00  9.000E+00
       1     1     1     2   502     0 -2.626336224E+01 -1.324118917E+01 -4.482307718E+02  4.491947441E+02  7.629394531E-06  0.00000E+00  9.000E+00
#rwgt            1           1   3.6693190514847672E-002           7      417522           0
</event>
<event>
      5   9999  3.79277E-02  6.57890E+00 -1.00000E+00  2.19434E-01
      21    -1     0     0   502   511  0.000000000E+00  0.000000000E+00  1.035344800E+02  1.035344800E+02  0.000000000E+00  0.00000E+00  9.000E+00
      21    -1     0     0   501   502  0.000000000E+00  0.000000000E+00 -5.446001864E+02  5.446001864E+02  0.000000000E+00  0.00000E+00  9.000E+00
      25     1     1     2     0     0  1.814561370E+02  4.644820486E+01 -1.631075258E+02  2.780518483E+02  1.250000000E+02  0.00000E+00  9.000E+00
      25     1     1     2     0     0 -1.750715765E+02 -4.803544158E+01 -2.851036084E+02  3.603699878E+02  1.250000000E+02  0.00000E+00  9.000E+00
      21     1     1     2   501   511 -6.384560460E+00  1.587236711E+00  7.145427862E+00  9.712830277E+00  1.685873940E-07  0.00000E+00  9.000E+00
#rwgt            1           1   3.1767872585915721E-002           7      417693           0
</event>
<event>
      5   9999  3.79277E-02  8.97284E+01 -1.00000E+00  1.25983E-01
       2    -1     0     0   502     0  0.000000000E+00  0.000000000E+00  1.110779195E+03  1.110779195E+03  0.000000000E+00  0.00000E+00  9.000E+00
      21    -1     0     0   501   502  0.000000000E+00  0.000000000E+00 -4.012832372E+02  4.012832372E+02  0.000000000E+00  0.00000E+00  9.000E+00
      25     1     1     2     0     0  1.250347158E+02  7.711894958E+01  1.135155986E+02  2.238119829E+02  1.250000000E+02  0.00000E+00  9.000E+00
      25     1     1     2     0     0 -4.459680127E+01 -1.168797467E+02 -3.212134295E+02  3.666780838E+02  1.250000000E+02  0.00000E+00  9.000E+00
       2     1     1     2   501     0 -8.043791457E+01  3.976079712E+01  9.171937884E+02  9.215723653E+02  0.000000000E+00  0.00000E+00  9.000E+00
#rwgt            1           1   4.9707609935618208E-002           7      418066           0
</event>
<event>
      5   9999  3.79277E-02  1.00419E+02 -1.00000E+00  1.23746E-01
      21    -1     0     0   502   501  0.000000000E+00  0.000000000E+00  5.852197957E+02  5.852197957E+02  0.000000000E+00  0.00000E+00  9.000E+00
      21    -1     0     0   511   502  0.000000000E+00  0.000000000E+00 -2.848956605E+02  2.848956605E+02  0.000000000E+00  0.00000E+00  9.000E+00
      25     1     1     2     0     0  2.285347348E+02 -2.183462801E+02  1.072713105E+02  3.564201974E+02  1.250000000E+02  0.00000E+00  9.000E+00
      25     1     1     2     0     0 -1.383194043E+02  2.624505063E+02  2.412659318E+02  4.023018465E+02  1.250000000E+02  0.00000E+00  9.000E+00
      21     1     1     2   511   501 -9.021533043E+01 -4.410422619E+01 -4.821310711E+01  1.113934123E+02  1.651812370E-06  0.00000E+00  9.000E+00
#rwgt            1           1   5.2382298401711033E-002           7      418140           0
</event>
<event>
      5   9999  3.79277E-02  1.80780E+01 -1.00000E+00  1.70073E-01
      21    -1     0     0   502   501  0.000000000E+00  0.000000000E+00  9.805861507E+01  9.805861507E+01  0.000000000E+00  0.00000E+00  9.000E+00
      21    -1     0     0   501   512  0.000000000E+00  0.000000000E+00 -1.030539605E+03  1.030539605E+03  0.000000000E+00  0.00000E+00  9.000E+00
      25     1     1     2     0     0  2.717721958E+02  2.987883401E+00 -3.830893362E+02  4.860570886E+02  1.250000000E+02  0.00000E+00  9.000E+00
      25     1     1     2     0     0 -2.779946027E+02 -1.996126995E+01 -4.658392008E+02  5.570553046E+02  1.250000000E+02  0.00000E+00  9.000E+00
      21     1     1     2   502   512  6.222406855E+00  1.697338655E+01 -8.355245251E+01  8.548582642E+01  1.651812370E-06  0.00000E+00  9.000E+00
#rwgt            1           1   3.4229456121405627E-002           7      418212           0
</event>
<event>
      5   9999  3.79277E-02  5.39326E+01 -1.00000E+00  1.37225E-01
      21    -1     0     0   502   511  0.000000000E+00  0.000000000E+00  2.787048262E+02  2.787048262E+02  0.000000000E+00  0.00000E+00  9.000E+00
      21    -1     0     0   501   502  0.000000000E+00  0.000000000E+00 -2.859468552E+02  2.859468552E+02  0.000000000E+00  0.00000E+00  9.000E+00
      25     1     1     2     0     0  2.372748556E+02 -1.759960541E+01  3.190092149E+01  2.706506457E+02  1.250000000E+02  0.00000E+00  9.000E+00
      25     1     1     2     0     0 -1.859710317E+02  3.423227179E+01 -6.264029238E+01  2.351720206E+02  1.250000000E+02  0.00000E+00  9.000E+00
      21     1     1     2   501   511 -5.130382394E+01 -1.663266638E+01  2.349734188E+01  5.882901510E+01  1.545128989E-06  0.00000E+00  9.000E+00
#rwgt            1           1   3.5563718306815949E-002           7      418464           0
</event>
<event>
      5   9999  3.79277E-02  3.75550E+01 -1.00000E+00  1.46560E-01
      21    -1     0     0   512   501  0.000000000E+00  0.000000000E+00  5.513476164E+02  5.513476164E+02  0.000000000E+00  0.00000E+00  9.000E+00
      21    -1     0     0   501   502  0.000000000E+00  0.000000000E+00 -1.389826474E+02  1.389826474E+02  0.000000000E+00  0.00000E+00  9.000E+00
      25     1     1     2     0     0  7.801389119E+01  5.948230474E+01  2.129880173E+02  2.657314572E+02  1.250000000E+02  0.00000E+00  9.000E+00
      25     1     1     2     0     0 -5.310196858E+01 -3.137934538E+01 -6.765362914E+01  1.549402979E+02  1.250000000E+02  0.00000E+00  9.000E+00
      21     1     1     2   512   502 -2.491192261E+01 -2.810295936E+01  2.670305808E+02  2.696585087E+02  5.394796609E-06  0.00000E+00  9.000E+00
#rwgt            1           1   4.5441510020635928E-002           7      418661           0
</event>
<event>
      5   9999  3.79277E-02  2.73404E+01 -1.00000E+00  1.55894E-01
      21    -1     0     0   502   501  0.000000000E+00  0.000000000E+00  5.228959734E+01  5.228959734E+01  0.000000000E+00  0.00000E+00  9.000E+00
      21    -1     0     0   501   511  0.000000000E+00  0.000000000E+00 -7.505240110E+02  7.505240110E+02  0.000000000E+00  0.00000E+00  9.000E+00
      25     1     1     2     0     0  2.279991213E+01  3.281633571E+01 -4.321764066E+02  4.516615927E+02  1.250000000E+02  0.00000E+00  9.000E+00
      25     1     1     2     0     0 -4.777970694E+01 -2.170296174E+01 -6.883567996E+01  1.520436443E+02  1.250000000E+02  0.00000E+00  9.000E+00
      21     1     1     2   502   511  2.497979481E+01 -1.111337397E+01 -1.972223271E+02  1.991083713E+02  2.697398305E-06  0.00000E+00  9.000E+00
#rwgt            1           1   2.7739641192960705E-002           7      418830           0
</event>
<event>
      5   9999  3.79277E-02  4.29284E+01 -1.00000E+00  1.42962E-01
      21    -1     0     0   502   501  0.000000000E+00  0.000000000E+00  3.597147752E+02  3.597147752E+02  0.000000000E+00  0.00000E+00  9.000E+00
      21    -1     0     0   512   502  0.000000000E+00  0.000000000E+00 -2.492924956E+02  2.492924956E+02  0.000000000E+00  0.00000E+00  9.000E+00
      25     1     1     2     0     0 -1.059444185E+02 -5.047663241E+01 -6.652371223E+01  1.839089843E+02  1.250000000E+02  0.00000E+00  9.000E+00
      25     1     1     2     0     0  7.151829895E+01  7.612211176E+01  2.741184937E+02  3.188657893E+02  1.250000000E+02  0.00000E+00  9.000E+00
      21     1     1     2   512   501  3.442611957E+01 -2.564547935E+01 -9.717250189E+01  1.062324971E+02  1.348699152E-06  0.00000E+00  9.000E+00
#rwgt            1           1   4.7253483367493687E-002           7      418954           0
</event>
<event>
      5   9999  3.79277E-02  5.54104E+01 -1.00000E+00  1.36577E-01
      21    -1     0     0   502   501  0.000000000E+00  0.000000000E+00  3.371240168E+02  3.371240168E+02  0.000000000E+00  0.00000E+00  9.000E+00
      -1    -1     0     0     0   502  0.000000000E+00  0.000000000E+00 -2.501259865E+02  2.501259865E+02  0.000000000E+00  0.00000E+00  9.000E+00
      25     1     1     2     0     0  1.574364161E+01  3.005564848E+01  2.828181484E+02  3.110664066E+02  1.250000000E+02  0.00000E+00  9.000E+00
      25     1     1     2     0     0  3.614424269E+01 -4.949684152E+01 -1.446309656E+02  2.007472536E+02  1.250000000E+02  0.00000E+00  9.000E+00
      -1     1     1     2     0   501 -5.188788429E+01  1.944119303E+01 -5.118915249E+01  7.543634307E+01  0.000000000E+00  0.00000E+00  9.000E+00
#rwgt            1           1   5.3791479894604526E-002           7      419018           0
</event>
<event>
      5   9999 -3.79277E-02  7.45536E+01 -1.00000E+00  1.29849E-01
      21    -1     0     0   511   501  0.000000000E+00  0.000000000E+00  7.224185151E+02  7.224185151E+02  0.000000000E+00  0.00000E+00  9.000E+00
      21    -1     0     0   501   502  0.000000000E+00  0.000000000E+00 -3.714052053E+02  3.714052053E+02  0.000000000E+00  0.00000E+00  9.000E+00
      25     1     1     2     0     0 -1.836988664E+02 -1.319711725E+02  2.987548589E+01  2.601522795E+02  1.250000000E+02  0.00000E+00  9.000E+00
      25     1     1     2     0     0  1.276816796E+02  8.277455169E+01 -2.154744548E+02  2.919049133E+02  1.250000000E+02  0.00000E+00  9.000E+00
      21     1     1     2   511   502  5.601718680E+01  4.919662081E+01  5.366122788E+02  5.417665276E+02  0.000000000E+00  0.00000E+00  9.000E+00
#rwgt            1           1 -0.11346349796144294                7      419159           0
</event>
<event>
      5   9999  3.79277E-02  3.02534E+01 -1.00000E+00  1.52787E-01
      21    -1     0     0   502   512  0.000000000E+00  0.000000000E+00  1.453298669E+02  1.453298669E+02  0.000000000E+00  0.00000E+00  9.000E+00
      21    -1     0     0   501   502  0.000000000E+00  0.000000000E+00 -1.139316326E+03  1.139316326E+03  0.000000000E+00  0.00000E+00  9.000E+00
      25     1     1     2     0     0  1.759457604E+02  1.322911500E+02 -7.847059705E+02  8.245279372E+02  1.250000000E+02  0.00000E+00  9.000E+00
      25     1     1     2     0     0 -1.755563090E+02 -1.020402168E+02 -2.891057054E+02  3.747523614E+02  1.250000000E+02  0.00000E+00  9.000E+00
      21     1     1     2   501   512 -3.894514328E-01 -3.025093311E+01  7.982521696E+01  8.536589418E+01  2.861022949E-06  0.00000E+00  9.000E+00
#rwgt            1           1   4.2719499885200414E-002           7      419337           0
</event>
<event>
      5   9999  3.79277E-02  1.90743E+01 -1.00000E+00  1.68085E-01
      21    -1     0     0   502   501  0.000000000E+00  0.000000000E+00  6.077161321E+02  6.077161321E+02  0.000000000E+00  0.00000E+00  9.000E+00
      21    -1     0     0   501   511  0.000000000E+00  0.000000000E+00 -1.139826319E+03  1.139826319E+03  0.000000000E+00  0.00000E+00  9.000E+00
      25     1     1     2     0     0  4.305025225E+02 -5.014358039E+02  1.969259683E+02  7.008388719E+02  1.250000000E+02  0.00000E+00  9.000E+00
      25     1     1     2     0     0 -4.401762183E+02  4.849966210E+02 -5.436090002E+02  8.602979546E+02  1.250000000E+02  0.00000E+00  9.000E+00
      21     1     1     2   502   511  9.673695744E+00  1.643918290E+01 -1.854271547E+02  1.864056244E+02  3.814697266E-06  0.00000E+00  9.000E+00
#rwgt            1           1   1.5366156893624618E-002           7      419458           0
</event>
<event>
      5   9999  3.79277E-02  9.87515E+01 -1.00000E+00  1.24074E-01
       2    -1     0     0   502     0  0.000000000E+00  0.000000000E+00  1.961286495E+02  1.961286495E+02  0.000000000E+00  0.00000E+00  9.000E+00
      21    -1     0     0   501   502  0.000000000E+00  0.000000000E+00 -6.969934808E+02  6.969934808E+02  0.000000000E+00  0.00000E+00  9.000E+00
      25     1     1     2     0     0 -7.561031185E+01  6.790321918E+01 -7.484355430E+01  1.776353683E+02  1.250000000E+02  0.00000E+00  9.000E+00
      25     1     1     2     0     0  1.661317800E+02 -2.843529536E+01 -5.312419457E+02  5.711841552E+02  1.250000000E+02  0.00000E+00  9.000E+00
       2     1     1     2   501     0 -9.052146811E+01 -3.946792382E+01  1.052206687E+02  1.443026068E+02  1.348699152E-06  0.00000E+00  9.000E+00
#rwgt            1           1   4.0067418143638581E-002           7      419786           0
</event>
<event>
      5   9999  3.79277E-02  2.77163E+01 -1.00000E+00  1.55467E-01
      21    -1     0     0   502   501  0.000000000E+00  0.000000000E+00  7.117470359E+02  7.117470359E+02  0.000000000E+00  0.00000E+00  9.000E+00
      -1    -1     0     0     0   502  0.000000000E+00  0.000000000E+00 -9.961253661E+02  9.961253661E+02  0.000000000E+00  0.00000E+00  9.000E+00
      25     1     1     2     0     0 -1.771355621E+02 -3.697536760E+00  5.922223078E+02  6.306686459E+02  1.250000000E+02  0.00000E+00  9.000E+00
      25     1     1     2     0     0  1.666164173E+02 -2.194506434E+01 -9.501100408E+00  2.096613633E+02  1.250000000E+02  0.00000E+00  9.000E+00
      -1     1     1     2     0   501  1.051914483E+01  2.564260110E+01 -8.670995375E+02  8.675423928E+02  1.525878906E-05  0.00000E+00  9.000E+00
#rwgt            1           1  0.22529158644880981                7      419884           0
</event>
<event>
      5   9999  3.79277E-02  1.76977E+01 -1.00000E+00  1.70874E-01
      21    -1     0     0   502   511  0.000000000E+00  0.000000000E+00  9.465925739E+02  9.465925739E+02  0.000000000E+00  0.00000E+00  9.000E+00
      21    -1     0     0   501   502  0.000000000E+00  0.000000000E+00 -1.050274706E+02  1.050274706E+02  0.000000000E+00  0.00000E+00  9.000E+00
      25     1     1     2     0     0  9.557265140E+01  2.117168343E+02  2.038501043E+02  3.333736862E+02  1.250000000E+02  0.00000E+00  9.000E+00
      25     1     1     2     0     0 -9.823849259E+01 -2.292126503E+02  4.482767551E+02  5.279832286E+02  1.250000000E+02  0.00000E+00  9.000E+00
      21     1     1     2   501   511  2.665841189E+00  1.749581605E+01  1.894382439E+02  1.902631297E+02  0.000000000E+00  0.00000E+00  9.000E+00
#rwgt            1           1   3.2647562978378217E-002           7      420138           0
</event>
<event>
      5   9999  3.79277E-02  4.11748E+01 -1.00000E+00  1.44065E-01
      21    -1     0     0   512   501  0.000000000E+00  0.000000000E+00  6.186437227E+02  6.186437227E+02  0.000000000E+00  0.00000E+00  9.000E+00
      21    -1     0     0   501   502  0.000000000E+00  0.000000000E+00 -1.662682803E+02  1.662682803E+02  0.000000000E+00  0.00000E+00  9.000E+00
      25     1     1     2     0     0 -1.839885900E+02 -4.468390422E+01  2.123578209E+02  3.107560082E+02  1.250000000E+02  0.00000E+00  9.000E+00
      25     1     1     2     0     0  2.226526362E+02  5.884214235E+01  3.419510271E+01  2.642553674E+02  1.250000000E+02  0.00000E+00  9.000E+00
      21     1     1     2   512   502 -3.866404619E+01 -1.415823812E+01  2.058225187E+02  2.099006274E+02  2.697398305E-06  0.00000E+00  9.000E+00
#rwgt            1           1  0.16660100402462807                7      420331           0
</event>
<event>
      5   9999 -3.79277E-02  1.30345E+01 -1.00000E+00  1.83330E-01
      21    -1     0     0   502   501  0.000000000E+00  0.000000000E+00  2.571703544E+02  2.571703544E+02  0.000000000E+00  0.00000E+00  9.000E+00
      21    -1     0     0   511   502  0.000000000E+00  0.000000000E+00 -7.720370330E+02  7.720370330E+02  0.000000000E+00  0.00000E+00  9.000E+00
      25     1     1     2     0     0 -2.212775505E+02 -1.948520679E+02 -1.027290676E+02  3.363173265E+02  1.250000000E+02  0.00000E+00  9.000E+00
      25     1     1     2     0     0  2.318595603E+02  2.024625512E+02 -5.648034083E+01  3.369940196E+02  1.250000000E+02  0.00000E+00  9.000E+00
      21     1     1     2   511   501 -1.058200974E+01 -7.610483303E+00 -3.556572702E+02  3.558960414E+02  5.394796609E-06  0.00000E+00  9.000E+00
#rwgt            1           1  -1.3914431370193797E-002           7      420503           0
</event>
<event>
      5   9999  3.79277E-02  1.35903E+01 -1.00000E+00  1.81519E-01
      21    -1     0     0   502   501  0.000000000E+00  0.000000000E+00  3.049502089E+01  3.049502089E+01  0.000000000E+00  0.00000E+00  9.000E+00
      21    -1     0     0   501   512  0.000000000E+00  0.000000000E+00 -1.558945717E+03  1.558945717E+03  0.000000000E+00  0.00000E+00  9.000E+00
      25     1     1     2     0     0  1.859829542E+01  1.578848644E+02 -6.676416212E+02  6.975986392E+02  1.250000000E+02  0.00000E+00  9.000E+00
      25     1     1     2     0     0 -2.013771413E+01 -1.443820008E+02 -5.852866540E+02  6.159847052E+02  1.250000000E+02  0.00000E+00  9.000E+00
      21     1     1     2   502   512  1.539418712E+00 -1.350286359E+01 -2.755224209E+02  2.758573935E+02  3.814697266E-06  0.00000E+00  9.000E+00
#rwgt            1           1   3.2511543206922795E-002           7      420959           0
</event>
<event>
      5   9999 -3.79277E-02  3.51596E+01 -1.00000E+00  1.48402E-01
      21    -1     0     0   502   501  0.000000000E+00  0.000000000E+00  1.175358017E+03  1.175358017E+03  0.000000000E+00  0.00000E+00  9.000E+00
      21    -1     0     0   511   502  0.000000000E+00  0.000000000E+00 -7.056035652E+01  7.056035652E+01  0.000000000E+00  0.00000E+00  9.000E+00
      25     1     1     2     0     0 -1.144776107E+02  1.664031085E+02  5.039133996E+02  5.570896088E+02  1.250000000E+02  0.00000E+00  9.000E+00
      25     1     1     2     0     0  1.128729689E+02 -2.015260375E+02  5.984978006E+02  6.535883018E+02  1.250000000E+02  0.00000E+00  9.000E+00
      21     1     1     2   511   501  1.604641736E+00  3.512292904E+01  2.386459966E+00  3.524046269E+01  4.410340961E-07  0.00000E+00  9.000E+00
#rwgt            1           1  -2.4349821573526585E-002           7      421183           0
</event>
<event>
      5   9999  3.79277E-02  1.09214E+02  7.55638E-03  1.22130E-01
       2    -1     0     0   501     0  0.000000000E+00  0.000000000E+00  5.272136209E+02  5.272136209E+02  0.000000000E+00  0.00000E+00  9.000E+00
      -2    -1     0     0     0   502  0.000000000E+00  0.000000000E+00 -1.428746358E+02  1.428746358E+02  0.000000000E+00  0.00000E+00  9.000E+00
      25     1     1     2     0     0 -9.113440737E+01 -1.140463229E+02  1.770491277E+02  2.613109978E+02  1.250000000E+02  0.00000E+00  9.000E+00
      25     1     1     2     0     0 -5.929533437E+00  6.398424399E+01 -3.340420025E+01  1.444644712E+02  1.250000000E+02  0.00000E+00  9.000E+00
      21     1     1     2   501   502  9.706394081E+01  5.006207895E+01  2.406940577E+02  2.643127877E+02  2.697398305E-06  0.00000E+00  9.000E+00
#rwgt            3           7   5.1480164362829284E-005           7      421361           0
</event>
<event>
      5   9999  3.79277E-02  1.02379E+02 -1.00000E+00  1.23370E-01
      21    -1     0     0   511   501  0.000000000E+00  0.000000000E+00  4.070813575E+02  4.070813575E+02  0.000000000E+00  0.00000E+00  9.000E+00
      21    -1     0     0   501   502  0.000000000E+00  0.000000000E+00 -1.905743289E+02  1.905743289E+02  0.000000000E+00  0.00000E+00  9.000E+00
      25     1     1     2     0     0 -1.440909514E+02  9.046392792E+01  4.942016615E+01  2.168254536E+02  1.250000000E+02  0.00000E+00  9.000E+00
      25     1     1     2     0     0  1.602264913E+02  1.063587084E+01  2.402529549E+01  2.049094071E+02  1.250000000E+02  0.00000E+00  9.000E+00
      21     1     1     2   511   502 -1.613553999E+01 -1.010997988E+02  1.430615670E+02  1.759208257E+02  2.697398305E-06  0.00000E+00  9.000E+00
#rwgt            1           1   9.0624428625154768E-002           7      421560           0
</event>
<event>
      5   9999  3.79277E-02  1.33816E+01 -1.00000E+00  1.82186E-01
      21    -1     0     0   502   512  0.000000000E+00  0.000000000E+00  4.421870676E+02  4.421870676E+02  0.000000000E+00  0.00000E+00  9.000E+00
      21    -1     0     0   501   502  0.000000000E+00  0.000000000E+00 -1.661921111E+02  1.661921111E+02  0.000000000E+00  0.00000E+00  9.000E+00
      25     1     1     2     0     0 -1.358554119E+02  1.598297552E+02  3.422468877E+01  2.465736663E+02  1.250000000E+02  0.00000E+00  9.000E+00
      25     1     1     2     0     0  1.439881453E+02 -1.704563847E+02  2.307994444E+02  3.445015945E+02  1.250000000E+02  0.00000E+00  9.000E+00
      21     1     1     2   501   512 -8.132733413E+00  1.062662945E+01  1.097082340E+01  1.730391784E+01  3.153981341E-07  0.00000E+00  9.000E+00
#rwgt            1           1   4.0584786017626329E-002           7      421632           0
</event>
<event>
      5   9999  3.79277E-02  2.23296E+01 -1.00000E+00  1.62515E-01
      21    -1     0     0   502   501  0.000000000E+00  0.000000000E+00  3.614818712E+02  3.614818712E+02  0.000000000E+00  0.00000E+00  9.000E+00
      21    -1     0     0   501   511  0.000000000E+00  0.000000000E+00 -1.108894469E+02  1.108894469E+02  0.000000000E+00  0.00000E+00  9.000E+00
      25     1     1     2     0     0 -4.790403189E+01  1.354749125E+02  1.237113170E+02  2.271073274E+02  1.250000000E+02  0.00000E+00  9.000E+00
      25     1     1     2     0     0  6.566236906E+01 -1.219378364E+02  1.202979761E+02  2.219842015E+02  1.250000000E+02  0.00000E+00  9.000E+00
      21     1     1     2   502   511 -1.775833717E+01 -1.353707615E+01  6.583131261E+00  2.327978923E+01  4.842304232E-07  0.00000E+00  9.000E+00
#rwgt            1           1   3.5857530974575641E-002           7      421945           0
</event>
<event>
      5   9999  3.79277E-02  2.15743E+01 -1.00000E+00  1.63699E-01
      21    -1     0     0   502   501  0.000000000E+00  0.000000000E+00  8.039080487E+02  8.039080487E+02  0.000000000E+00  0.00000E+00  9.000E+00
      21    -1     0     0   512   502  0.000000000E+00  0.000000000E+00 -4.369475852E+01  4.369475852E+01  0.000000000E+00  0.00000E+00  9.000E+00
      25     1     1     2     0     0  1.773657690E+00  8.742030031E+00  1.001460258E+02  1.604175659E+02  1.250000000E+02  0.00000E+00  9.000E+00
      25     1     1     2     0     0  5.303701862E+00  1.163843623E+01  6.522428103E+02  6.642358513E+02  1.250000000E+02  0.00000E+00  9.000E+00
      21     1     1     2   512   501 -7.077359551E+00 -2.038046626E+01  7.824453954E+00  2.294939004E+01  3.674277069E-07  0.00000E+00  9.000E+00
#rwgt            1           1   4.9593239457776682E-002           7      422084           0
</event>
<event>
      5   9999  3.79277E-02  2.36694E+01 -1.00000E+00  1.60551E-01
      21    -1     0     0   502   501  0.000000000E+00  0.000000000E+00  7.316187476E+01  7.316187476E+01  0.000000000E+00  0.00000E+00  9.000E+00
      21    -1     0     0   511   502  0.000000000E+00  0.000000000E+00 -5.219993673E+02  5.219993673E+02  0.000000000E+00  0.00000E+00  9.000E+00
      25     1     1     2     0     0  8.810261310E+01  6.472775204E+01 -1.166555069E+02  2.029415177E+02  1.250000000E+02  0.00000E+00  9.000E+00
      25     1     1     2     0     0 -1.069081917E+02 -7.910099651E+01 -2.720917036E+02  3.276358104E+02  1.250000000E+02  0.00000E+00  9.000E+00
      21     1     1     2   511   501  1.880557858E+01  1.437324448E+01 -6.009028210E+01  6.458391398E+01  6.743495762E-07  0.00000E+00  9.000E+00
#rwgt            1           1   3.1722771687808800E-002           7      422240           0
</event>
<event>
      5   9999  3.79277E-02  9.52088E+01 -1.00000E+00  1.24795E-01
      21    -1     0     0   502   501  0.000000000E+00  0.000000000E+00  1.208233802E+03  1.208233802E+03  0.000000000E+00  0.00000E+00  9.000E+00
      21    -1     0     0   512   502  0.000000000E+00  0.000000000E+00 -2.434435423E+02  2.434435423E+02  0.000000000E+00  0.00000E+00  9.000E+00
      25     1     1     2     0     0  3.915613330E+02 -1.335417332E+02  4.349322187E+02  6.131433005E+02  1.250000000E+02  0.00000E+00  9.000E+00
      25     1     1     2     0     0 -4.738576843E+02  8.566666934E+01  5.495719072E+02  7.413057159E+02  1.250000000E+02  0.00000E+00  9.000E+00
      21     1     1     2   512   501  8.229635134E+01  4.787506386E+01 -1.971386637E+01  9.722832772E+01  1.488923549E-06  0.00000E+00  9.000E+00
#rwgt            1           1  0.13118946760043615                7      422500           0
</event>
<event>
      5   9999  3.79277E-02  1.36282E+01 -1.00000E+00  1.81400E-01
      21    -1     0     0   502   501  0.000000000E+00  0.000000000E+00  7.641408628E+01  7.641408628E+01  0.000000000E+00  0.00000E+00  9.000E+00
      21    -1     0     0   511   502  0.000000000E+00  0.000000000E+00 -4.707675600E+02  4.707675600E+02  0.000000000E+00  0.00000E+00  9.000E+00
      25     1     1     2     0     0 -7.196420506E+01 -1.071640781E+02 -1.398690585E+02  2.277088931E+02  1.250000000E+02  0.00000E+00  9.000E+00
      25     1     1     2     0     0  8.264278539E+01  9.869675103E+01 -2.341833717E+02  2.950215758E+02  1.250000000E+02  0.00000E+00  9.000E+00
      21     1     1     2   511   501 -1.067858033E+01  8.467327109E+00 -2.030104352E+01  2.445117736E+01  0.000000000E+00  0.00000E+00  9.000E+00
#rwgt            1           1   4.0075405188170966E-002           7      422639           0
</event>
<event>
      5   9999  3.79277E-02  1.31493E+01 -1.00000E+00  1.82946E-01
      21    -1     0     0   502   512  0.000000000E+00  0.000000000E+00  9.358165307E+02  9.358165307E+02  0.000000000E+00  0.00000E+00  9.000E+00
      21    -1     0     0   501   502  0.000000000E+00  0.000000000E+00 -1.575600710E+02  1.575600710E+02  0.000000000E+00  0.00000E+00  9.000E+00
      25     1     1     2     0     0 -1.349073619E+02  1.628193378E+02  2.051252074E+01  2.464871124E+02  1.250000000E+02  0.00000E+00  9.000E+00
      25     1     1     2     0     0  1.223599427E+02 -1.588865133E+02  2.693449653E+02  3.583135359E+02  1.250000000E+02  0.00000E+00  9.000E+00
      21     1     1     2   501   512  1.254741920E+01 -3.932824465E+00  4.883989737E+02  4.885759535E+02  7.629394531E-06  0.00000E+00  9.000E+00
#rwgt            1           1   3.2794765532195951E-002           7      422891           0
</event>
<event>
      5   9999  3.79277E-02  8.75331E+00 -1.00000E+00  2.02689E-01
      21    -1     0     0   502   511  0.000000000E+00  0.000000000E+00  2.426179756E+03  2.426179756E+03  0.000000000E+00  0.00000E+00  9.000E+00
      21    -1     0     0   501   502  0.000000000E+00  0.000000000E+00 -4.368722309E+01  4.368722309E+01  0.000000000E+00  0.00000E+00  9.000E+00
      25     1     1     2     0     0 -4.120267463E+01  3.128731676E+01  1.281698294E+03  1.288818092E+03  1.250000000E+02  0.00000E+00  9.000E+00
      25     1     1     2     0     0  3.960293970E+01 -2.268143401E+01  7.026522158E+01  1.504826955E+02  1.250000000E+02  0.00000E+00  9.000E+00
      21     1     1     2   501   511  1.599734924E+00 -8.605882743E+00  1.030529017E+03  1.030566192E+03  1.525878906E-05  0.00000E+00  9.000E+00
#rwgt            1           1   2.8855171715504044E-002           7      423137           0
</event>
<event>
      5   9999  3.79277E-02  2.55105E+01 -1.00000E+00  1.58096E-01
      21    -1     0     0   512   501  0.000000000E+00  0.000000000E+00  4.887819523E+02  4.887819523E+02  0.000000000E+00  0.00000E+00  9.000E+00
      21    -1     0     0   501   502  0.000000000E+00  0.000000000E+00 -2.848975683E+02  2.848975683E+02  0.000000000E+00  0.00000E+00  9.000E+00
      25     1     1     2     0     0  2.467100651E+02  2.026524021E+02  9.860653191E+01  3.567661705E+02  1.250000000E+02  0.00000E+00  9.000E+00
      25     1     1     2     0     0 -2.721884872E+02 -2.039320641E+02  6.337163169E+01  3.678529911E+02  1.250000000E+02  0.00000E+00  9.000E+00
      21     1     1     2   512   502  2.547842210E+01  1.279661987E+00  4.190622033E+01  4.906035905E+01  6.743495762E-07  0.00000E+00  9.000E+00
#rwgt            1           1   3.0242855795392896E-002           7      423485           0
</event>
<event>
      5   9999  3.79277E-02  1.45171E+01 -1.00000E+00  1.78733E-01
      21    -1     0     0   502   501  0.000000000E+00  0.000000000E+00  5.050938802E+02  5.050938802E+02  0.000000000E+00  0.00000E+00  9.000E+00
      21    -1     0     0   501   511  0.000000000E+00  0.000000000E+00 -3.477557663E+02  3.477557663E+02  0.000000000E+00  0.00000E+00  9.000E+00
      25     1     1     2     0     0 -2.584493136E+02 -9.609838423E+01  3.261880228E+01  3.044994801E+02  1.250000000E+02  0.00000E+00  9.000E+00
      25     1     1     2     0     0  2.671712680E+02  1.077032867E+02  2.628207776E+02  4.094877843E+02  1.250000000E+02  0.00000E+00  9.000E+00
      21     1     1     2   502   511 -8.721954401E+00 -1.160490249E+01 -1.381014659E+02  1.388623820E+02  3.303624740E-06  0.00000E+00  9.000E+00
#rwgt            1           1  0.23521328156422225                7      423791           0
</event>
<event>
      5   9999  3.79277E-02  7.12371E+01 -1.00000E+00  1.30837E-01
      21    -1     0     0   502   501  0.000000000E+00  0.000000000E+00  2.001990925E+01  2.001990925E+01  0.000000000E+00  0.00000E+00  9.000E+00
       2    -1     0     0   501     0  0.000000000E+00  0.000000000E+00 -2.301731537E+03  2.301731537E+03  0.000000000E+00  0.00000E+00  9.000E+00
      25     1     1     2     0     0 -8.360335365E+01  2.799749848E+01 -1.309102801E+03  1.318009304E+03  1.250000000E+02  0.00000E+00  9.000E+00
      25     1     1     2     0     0  7.205157852E+01 -9.829173345E+01 -7.482174381E+02  7.683144080E+02  1.250000000E+02  0.00000E+00  9.000E+00
       2     1     1     2   502     0  1.155177513E+01  7.029423497E+01 -2.243913888E+02  2.354277349E+02  4.672030912E-06  0.00000E+00  9.000E+00
#rwgt            1           1   7.9068332544424025E-002           7      424027           0
</event>
<event>
      5   9999  3.79277E-02  7.95451E+01 -1.00000E+00  1.28469E-01
      21    -1     0     0   502   511  0.000000000E+00  0.000000000E+00  3.052138790E+02  3.052138790E+02  0.000000000E+00  0.00000E+00  9.000E+00
      21    -1     0     0   501   502  0.000000000E+00  0.000000000E+00 -1.596496144E+02  1.596496144E+02  0.000000000E+00  0.00000E+00  9.000E+00
      25     1     1     2     0     0 -7.212308277E+01 -5.683314849E+01  1.272480222E+02  2.006210482E+02  1.250000000E+02  0.00000E+00  9.000E+00
      25     1     1     2     0     0  3.198816353E+01  1.255107616E+02 -8.757370176E+00  1.802162185E+02  1.250000000E+02  0.00000E+00  9.000E+00
      21     1     1     2   501   511  4.013491923E+01 -6.867761308E+01  2.707361254E+01  8.402622672E+01  1.215700987E-06  0.00000E+00  9.000E+00
#rwgt            1           1   2.9553587651941611E-002           7      424143           0
</event>
<event>
      5   9999  3.79277E-02  2.21845E+01 -1.00000E+00  1.62738E-01
      21    -1     0     0   502   501  0.000000000E+00  0.000000000E+00  1.408374479E+02  1.408374479E+02  0.000000000E+00  0.00000E+00  9.000E+00
       2    -1     0     0   501     0  0.000000000E+00  0.000000000E+00 -2.405953122E+03  2.405953122E+03  0.000000000E+00  0.00000E+00  9.000E+00
      25     1     1     2     0     0 -1.479199037E+02 -5.658816341E+01 -2.259510923E+02  3.029214655E+02  1.250000000E+02  0.00000E+00  9.000E+00
      25     1     1     2     0     0  1.615509884E+02  3.908543728E+01 -3.414065304E+00  2.079977142E+02  1.250000000E+02  0.00000E+00  9.000E+00
       2     1     1     2   502     0 -1.363108472E+01  1.750272613E+01 -2.035750516E+03  2.035871390E+03  2.157918644E-05  0.00000E+00  9.000E+00
#rwgt            1           1   3.2682671521057229E-002           7      424251           0
</event>
<event>
      5   9999  3.79277E-02  3.55376E+01 -1.00000E+00  1.48100E-01
      21    -1     0     0   502   511  0.000000000E+00  0.000000000E+00  1.545716825E+02  1.545716825E+02  0.000000000E+00  0.00000E+00  9.000E+00
      21    -1     0     0   501   502  0.000000000E+00  0.000000000E+00 -6.168032830E+02  6.168032830E+02  0.000000000E+00  0.00000E+00  9.000E+00
      25     1     1     2     0     0 -4.570841100E+01 -7.485202108E+01 -4.439344801E+02  4.694623590E+02  1.250000000E+02  0.00000E+00  9.000E+00
      25     1     1     2     0     0  5.772154945E+01  1.082976040E+02 -1.077507510E+02  2.056583882E+02  1.250000000E+02  0.00000E+00  9.000E+00
      21     1     1     2   501   511 -1.201313844E+01 -3.344558295E+01  8.945363060E+01  9.625421830E+01  1.348699152E-06  0.00000E+00  9.000E+00
#rwgt            1           1   5.0231123216725564E-002           7      424412           0
</event>
<event>
      5   9999 -3.79277E-02  1.07662E+01 -1.00000E+00  1.92122E-01
       1    -1     0     0   502     0  0.000000000E+00  0.000000000E+00  5.691998918E+02  5.691998918E+02  0.000000000E+00  0.00000E+00  9.000E+00
      21    -1     0     0   501   502  0.000000000E+00  0.000000000E+00 -7.099038233E+02  7.099038233E+02  0.000000000E+00  0.00000E+00  9.000E+00
      25     1     1     2     0     0  1.737842674E+02 -2.648608204E+01 -2.447034621E+02  3.262012699E+02  1.250000000E+02  0.00000E+00  9.000E+00
      25     1     1     2     0     0 -1.810791715E+02  3.440412971E+01 -3.951762355E+02  4.536105902E+02  1.250000000E+02  0.00000E+00  9.000E+00
       1     1     1     2   501     0  7.294904105E+00 -7.918047668E+00  4.991757660E+02  4.992918550E+02  5.394796609E-06  0.00000E+00  9.000E+00
#rwgt            1           1  -4.4908366798115815E-002           7      424506           0
</event>
<event>
      5   9999  3.79277E-02  1.52240E+01 -1.00000E+00  1.76779E-01
      21    -1     0     0   502   501  0.000000000E+00  0.000000000E+00  2.257703269E+02  2.257703269E+02  0.000000000E+00  0.00000E+00  9.000E+00
      21    -1     0     0   511   502  0.000000000E+00  0.000000000E+00 -1.756319965E+02  1.756319965E+02  0.000000000E+00  0.00000E+00  9.000E+00
      25     1     1     2     0     0 -1.255048881E+02  4.739659493E+01 -2.251851987E+01  1.847430591E+02  1.250000000E+02  0.00000E+00  9.000E+00
      25     1     1     2     0     0  1.219561252E+02 -3.259202229E+01  8.511264809E+01  1.969890841E+02  1.250000000E+02  0.00000E+00  9.000E+00
      21     1     1     2   511   501  3.548762953E+00 -1.480457264E+01 -1.245579777E+01  1.967018016E+01  3.371747881E-07  0.00000E+00  9.000E+00
#rwgt            1           1   3.7727470396900019E-002           7      424860           0
</event>
<event>
      5   9999 -3.79277E-02  1.62882E+01 -1.00000E+00  1.74078E-01
      21    -1     0     0   502   501  0.000000000E+00  0.000000000E+00  6.573612935E+02  6.573612935E+02  0.000000000E+00  0.00000E+00  9.000E+00
      21    -1     0     0   501   512  0.000000000E+00  0.000000000E+00 -5.434195710E+02  5.434195710E+02  0.000000000E+00  0.00000E+00  9.000E+00
      25     1     1     2     0     0 -4.548316977E+02  4.614863343E+01  4.008961376E+02  6.207610512E+02  1.250000000E+02  0.00000E+00  9.000E+00
      25     1     1     2     0     0  4.697610387E+02 -3.963558676E+01 -2.791654824E+02  5.619651055E+02  1.250000000E+02  0.00000E+00  9.000E+00
      21     1     1     2   502   512 -1.492934099E+01 -6.513046666E+00 -7.788932760E+00  1.805470777E+01  2.920019320E-07  0.00000E+00  9.000E+00
#rwgt            1           1 -0.27924681625481212                7      425089           0
</event>
<event>
      5   9999  3.79277E-02  3.75650E+01 -1.00000E+00  1.46552E-01
      21    -1     0     0   502   501  0.000000000E+00  0.000000000E+00  2.916113026E+02  2.916113026E+02  0.000000000E+00  0.00000E+00  9.000E+00
      21    -1     0     0   501   511  0.000000000E+00  0.000000000E+00 -1.378553187E+03  1.378553187E+03  0.000000000E+00  0.00000E+00  9.000E+00
      25     1     1     2     0     0 -3.313048253E+00  1.273289505E+02  1.977107937E+02  2.663422532E+02  1.250000000E+02  0.00000E+00  9.000E+00
      25     1     1     2     0     0  4.019896745E+01 -1.344395560E+02 -8.961895272E+01  2.081982418E+02  1.250000000E+02  0.00000E+00  9.000E+00
      21     1     1     2   502   511 -3.688591920E+01  7.110605422E+00 -1.195033726E+03  1.195623995E+03  2.157918644E-05  0.00000E+00  9.000E+00
#rwgt            1           1   4.0823979679630376E-002           7      425626           0
</event>
<event>
      5   9999  3.79277E-02  3.90396E+01 -1.00000E+00  1.45498E-01
      21    -1     0     0   512   501  0.000000000E+00  0.000000000E+00  4.277549260E+02  4.277549260E+02  0.000000000E+00  0.00000E+00  9.000E+00
      21    -1     0     0   501   502  0.000000000E+00  0.000000000E+00 -1.708379895E+02  1.708379895E+02  0.000000000E+00  0.00000E+00  9.000E+00
      25     1     1     2     0     0 -9.573246060E+01 -1.889872637E+02  8.092213741E+01  2.589484161E+02  1.250000000E+02  0.00000E+00  9.000E+00
      25     1     1     2     0     0  5.733425903E+01  1.819399150E+02  8.996183892E+01  2.451682736E+02  1.250000000E+02  0.00000E+00  9.000E+00
      21     1     1     2   512   502  3.839820157E+01  7.047348732E+00  8.603296022E+01  9.447622585E+01  9.536743164E-07  0.00000E+00  9.000E+00
#rwgt            1           1   4.5474099072052576E-002           7      425754           0
</event>
<event>
      5   9999  3.79277E-02  1.11870E+02 -1.00000E+00  1.21676E-01
      21    -1     0     0   502   501  0.000000000E+00  0.000000000E+00  1.169641813E+03  1.169641813E+03  0.000000000E+00  0.00000E+00  9.000E+00
      21    -1     0     0   501   511  0.000000000E+00  0.000000000E+00 -6.700425626E+01  6.700425626E+01  0.000000000E+00  0.00000E+00  9.000E+00
      25     1     1     2     0     0  1.503543420E+02  1.383364103E+02  4.340548966E+02  4.957540154E+02  1.250000000E+02  0.00000E+00  9.000E+00
      25     1     1     2     0     0 -3.899908268E+01 -1.276222140E+02  5.417400389E+02  5.717653607E+02  1.250000000E+02  0.00000E+00  9.000E+00
      21     1     1     2   502   511 -1.113552593E+02 -1.071419630E+01  1.268426216E+02  1.691266935E+02  0.000000000E+00  0.00000E+00  9.000E+00
#rwgt            1           1   3.6434648780517713E-002           7      425982           0
</event>
<event>
      5   9999  3.79277E-02  3.97359E+01 -1.00000E+00  1.45019E-01
      21    -1     0     0   502   501  0.000000000E+00  0.000000000E+00  5.755783780E+02  5.755783780E+02  0.000000000E+00  0.00000E+00  9.000E+00
      21    -1     0     0   512   502  0.000000000E+00  0.000000000E+00 -1.669607471E+02  1.669607471E+02  0.000000000E+00  0.00000E+00  9.000E+00
      25     1     1     2     0     0  2.373254286E+01 -1.312827457E+02  1.395102203E+02  2.299706383E+02  1.250000000E+02  0.00000E+00  9.000E+00
      25     1     1     2     0     0 -1.275106555E+01  1.694711284E+02  3.578087212E+02  4.153734874E+02  1.250000000E+02  0.00000E+00  9.000E+00
      21     1     1     2   512   501 -1.098147731E+01 -3.818838270E+01 -8.870131061E+01  9.719499946E+01  9.536743164E-07  0.00000E+00  9.000E+00
#rwgt            1           1   1.1042534483826317E-002           7      426018           0
</event>
<event>
      5   9999  3.79277E-02  2.90627E+01 -1.00000E+00  1.54004E-01
      21    -1     0     0   502   501  0.000000000E+00  0.000000000E+00  9.896155901E+02  9.896155901E+02  0.000000000E+00  0.00000E+00  9.000E+00
      21    -1     0     0   501   511  0.000000000E+00  0.000000000E+00 -1.729146262E+02  1.729146262E+02  0.000000000E+00  0.00000E+00  9.000E+00
      25     1     1     2     0     0 -2.042994788E+02  2.770758266E+02  6.106641153E+02  7.120708900E+02  1.250000000E+02  0.00000E+00  9.000E+00
      25     1     1     2     0     0  1.837276192E+02 -2.976047695E+02  1.936471580E+02  4.188659197E+02  1.250000000E+02  0.00000E+00  9.000E+00
      21     1     1     2   502   511  2.057185962E+01  2.052894291E+01  1.238969064E+01  3.159340658E+01  4.768371582E-07  0.00000E+00  9.000E+00
#rwgt            1           1   4.9697092925393996E-002           7      426229           0
</event>
<event>
      5   9999  3.79277E-02  4.22758E+01 -1.00000E+00  1.43365E-01
      21    -1     0     0   502   501  0.000000000E+00  0.000000000E+00  1.708916050E+02  1.708916050E+02  0.000000000E+00  0.00000E+00  9.000E+00
      21    -1     0     0   512   502  0.000000000E+00  0.000000000E+00 -3.941516330E+02  3.941516330E+02  0.000000000E+00  0.00000E+00  9.000E+00
      25     1     1     2     0     0  8.175337602E+01 -1.070292843E+02 -1.581811393E+02  2.424565013E+02  1.250000000E+02  0.00000E+00  9.000E+00
      25     1     1     2     0     0 -5.533845118E+01  7.402178990E+01  7.762030377E+01  1.737569599E+02  1.250000000E+02  0.00000E+00  9.000E+00
      21     1     1     2   512   501 -2.641492484E+01  3.300749442E+01 -1.426991924E+02  1.488297768E+02  1.907348633E-06  0.00000E+00  9.000E+00
#rwgt            1           1   4.0458613133072995E-002           7      426640           0
</event>
<event>
      5   9999  3.79277E-02  2.49731E+01 -1.00000E+00  1.58786E-01
      21    -1     0     0   502   501  0.000000000E+00  0.000000000E+00  3.004451435E+02  3.004451435E+02  0.000000000E+00  0.00000E+00  9.000E+00
      21    -1     0     0   511   502  0.000000000E+00  0.000000000E+00 -1.339884796E+02  1.339884796E+02  0.000000000E+00  0.00000E+00  9.000E+00
      25     1     1     2     0     0  9.047518781E+01 -1.815144689E+01  1.758821166E+02  2.346801091E+02  1.250000000E+02  0.00000E+00  9.000E+00
      25     1     1     2     0     0 -7.270317847E+01  3.569603026E+01  3.109332274E+01  1.521570026E+02  1.250000000E+02  0.00000E+00  9.000E+00
      21     1     1     2   511   501 -1.777200934E+01 -1.754458337E+01 -4.051877558E+01  4.759651138E+01  8.259061849E-07  0.00000E+00  9.000E+00
#rwgt            1           1   3.8906313679386587E-002           7      426862           0
</event>
<event>
      5   9999  3.79277E-02  2.08171E+02 -1.00000E+00  1.11019E-01
      21    -1     0     0   502   501  0.000000000E+00  0.000000000E+00  2.953523281E+02  2.953523281E+02  0.000000000E+00  0.00000E+00  9.000E+00
       2    -1     0     0   501     0  0.000000000E+00  0.000000000E+00 -4.857306661E+02  4.857306661E+02  0.000000000E+00  0.00000E+00  9.000E+00
      25     1     1     2     0     0  1.344672956E+02 -2.117282716E+02 -1.172969424E+02  3.037990903E+02  1.250000000E+02  0.00000E+00  9.000E+00
      25     1     1     2     0     0 -2.008455680E+01  3.779839730E+01  1.307890789E+02  1.859109771E+02  1.250000000E+02  0.00000E+00  9.000E+00
       2     1     1     2   502     0 -1.143827388E+02  1.739298743E+02 -2.038704744E+02  2.913729268E+02  4.672030912E-06  0.00000E+00  9.000E+00
#rwgt            1           1   4.1404242949668019E-002           7      426992           0
</event>
<event>
      5   9999  3.79277E-02  2.05180E+01 -1.00000E+00  1.65458E-01
      21    -1     0     0   502   511  0.000000000E+00  0.000000000E+00  6.262540589E+02  6.262540589E+02  0.000000000E+00  0.00000E+00  9.000E+00
      21    -1     0     0   501   502  0.000000000E+00  0.000000000E+00 -2.783046579E+02  2.783046579E+02  0.000000000E+00  0.00000E+00  9.000E+00
      25     1     1     2     0     0 -1.161705763E+02  2.865207734E+01  1.384701894E+02  2.216202556E+02  1.250000000E+02  0.00000E+00  9.000E+00
      25     1     1     2     0     0  1.002819252E+02 -1.566984933E+01 -2.090688199E+02  2.638878173E+02  1.250000000E+02  0.00000E+00  9.000E+00
      21     1     1     2   501   511  1.588865111E+01 -1.298222801E+01  4.185480315E+02  4.190506439E+02  0.000000000E+00  0.00000E+00  9.000E+00
#rwgt            1           1   3.9505542266356837E-002           7      427150           0
</event>
<event>
      5   9999  3.79277E-02  8.77625E+01 -1.00000E+00  1.26433E-01
      21    -1     0     0   512   501  0.000000000E+00  0.000000000E+00  2.941762611E+02  2.941762611E+02  0.000000000E+00  0.00000E+00  9.000E+00
      21    -1     0     0   501   502  0.000000000E+00  0.000000000E+00 -7.624701526E+02  7.624701526E+02  0.000000000E+00  0.00000E+00  9.000E+00
      25     1     1     2     0     0 -1.029110647E+02  1.286622329E+02 -6.088121122E+02  6.429788841E+02  1.250000000E+02  0.00000E+00  9.000E+00
      25     1     1     2     0     0  1.715233644E+02 -7.393917276E+01 -2.518699384E+01  2.261562523E+02  1.250000000E+02  0.00000E+00  9.000E+00
      21     1     1     2   512   502 -6.861229968E+01 -5.472306016E+01  1.657052146E+02  1.875112773E+02  0.000000000E+00  0.00000E+00  9.000E+00
#rwgt            1           1   3.4601607825068548E-002           7      427268           0
</event>
<event>
      5   9999  3.79277E-02  7.38298E+01 -1.00000E+00  1.30060E-01
      21    -1     0     0   511   501  0.000000000E+00  0.000000000E+00  7.962027618E+01  7.962027618E+01  0.000000000E+00  0.00000E+00  9.000E+00
      21    -1     0     0   501   502  0.000000000E+00  0.000000000E+00 -8.424199023E+02  8.424199023E+02  0.000000000E+00  0.00000E+00  9.000E+00
      25     1     1     2     0     0  9.656658743E+01  7.225886070E+01 -4.686387167E+02  4.997936530E+02  1.250000000E+02  0.00000E+00  9.000E+00
      25     1     1     2     0     0 -1.678487349E+02 -9.148632576E+01 -2.341982173E+02  3.271341477E+02  1.250000000E+02  0.00000E+00  9.000E+00
      21     1     1     2   511   502  7.128214747E+01  1.922746506E+01 -5.996269205E+01  9.511237773E+01  2.023048729E-06  0.00000E+00  9.000E+00
#rwgt            1           1   3.4578668533411856E-002           7      427435           0
</event>
<event>
      5   9999  3.79277E-02  9.53091E+00 -1.00000E+00  1.98201E-01
      21    -1     0     0   512   501  0.000000000E+00  0.000000000E+00  3.363712090E+02  3.363712090E+02  0.000000000E+00  0.00000E+00  9.000E+00
      21    -1     0     0   501   502  0.000000000E+00  0.000000000E+00 -1.425893698E+02  1.425893698E+02  0.000000000E+00  0.00000E+00  9.000E+00
      25     1     1     2     0     0  1.303774510E+02 -7.625349499E+01  1.987993127E+02  2.792114645E+02  1.250000000E+02  0.00000E+00  9.000E+00
      25     1     1     2     0     0 -1.213418994E+02  7.322083154E+01 -9.514262270E+00  1.892106442E+02  1.250000000E+02  0.00000E+00  9.000E+00
      21     1     1     2   512   502 -9.035551597E+00  3.032663448E+00  4.496788855E+00  1.053847001E+01  1.460009660E-07  0.00000E+00  9.000E+00
#rwgt            1           1   4.1316999940647102E-002           7      427483           0
</event>
<event>
      5   9999  3.79277E-02  8.59751E+01 -1.00000E+00  1.26853E-01
      21    -1     0     0   502   501  0.000000000E+00  0.000000000E+00  1.016976944E+02  1.016976944E+02  0.000000000E+00  0.00000E+00  9.000E+00
      21    -1     0     0   501   511  0.000000000E+00  0.000000000E+00 -5.814232222E+02  5.814232222E+02  0.000000000E+00  0.00000E+00  9.000E+00
      25     1     1     2     0     0  1.348805422E+02 -4.169567104E+01 -2.877678875E+02  3.440445418E+02  1.250000000E+02  0.00000E+00  9.000E+00
      25     1     1     2     0     0 -1.299896297E+02 -4.414016163E+01 -9.192348945E+01  2.071728400E+02  1.250000000E+02  0.00000E+00  9.000E+00
      21     1     1     2   502   511 -4.890912485E+00  8.583583267E+01 -1.000341508E+02  1.319035349E+02  2.697398305E-06  0.00000E+00  9.000E+00
#rwgt            1           1   3.0437978189383406E-002           7      427905           0
</event>
<event>
      5   9999  3.79277E-02  6.01885E+00 -1.00000E+00  2.25260E-01
      21    -1     0     0   512   501  0.000000000E+00  0.000000000E+00  4.617902086E+02  4.617902086E+02  0.000000000E+00  0.00000E+00  9.000E+00
      21    -1     0     0   501   502  0.000000000E+00  0.000000000E+00 -8.358589547E+01  8.358589547E+01  0.000000000E+00  0.00000E+00  9.000E+00
      25     1     1     2     0     0  2.111679307E+01  1.898496006E+01 -1.411568397E+01  1.289596844E+02  1.250000000E+02  0.00000E+00  9.000E+00
      25     1     1     2     0     0 -1.530737485E+01 -1.741104166E+01  3.273804940E+02  3.511985877E+02  1.250000000E+02  0.00000E+00  9.000E+00
      21     1     1     2   512   502 -5.809418227E+00 -1.573918408E+00  6.493950307E+01  6.521783205E+01  0.000000000E+00  0.00000E+00  9.000E+00
#rwgt            1           1   5.8106431350697568E-002           7      428070           0
</event>
<event>
      5   9999  3.79277E-02  3.78446E+01 -1.00000E+00  1.46348E-01
      21    -1     0     0   511   501  0.000000000E+00  0.000000000E+00  1.168806238E+02  1.168806238E+02  0.000000000E+00  0.00000E+00  9.000E+00
      21    -1     0     0   501   502  0.000000000E+00  0.000000000E+00 -3.297557895E+02  3.297557895E+02  0.000000000E+00  0.00000E+00  9.000E+00
      25     1     1     2     0     0 -7.247269397E+01  1.408904459E+01  7.506465442E+00  1.453689773E+02  1.250000000E+02  0.00000E+00  9.000E+00
      25     1     1     2     0     0  8.849621509E+01 -4.837402793E+01 -2.049769349E+02  2.604077005E+02  1.250000000E+02  0.00000E+00  9.000E+00
      21     1     1     2   511   502 -1.602352112E+01  3.428498334E+01 -1.540469627E+01  4.085973542E+01  3.371747881E-07  0.00000E+00  9.000E+00
#rwgt            1           1   6.3981613704433601E-002           7      428362           0
</event>
<event>
      5   9999  3.79277E-02  9.81075E+01 -1.00000E+00  1.24202E-01
      21    -1     0     0   512   501  0.000000000E+00  0.000000000E+00  1.181068437E+02  1.181068437E+02  0.000000000E+00  0.00000E+00  9.000E+00
      21    -1     0     0   501   502  0.000000000E+00  0.000000000E+00 -1.751745176E+03  1.751745176E+03  0.000000000E+00  0.00000E+00  9.000E+00
      25     1     1     2     0     0 -2.428017419E+02 -2.003849983E+02 -3.956262214E+02  5.208185293E+02  1.250000000E+02  0.00000E+00  9.000E+00
      25     1     1     2     0     0  1.995624069E+02  2.884499454E+02 -1.174619003E+03  1.232226979E+03  1.250000000E+02  0.00000E+00  9.000E+00
      21     1     1     2   512   502  4.323933492E+01 -8.806494703E+01 -6.339310751E+01  1.168065112E+02  1.651812370E-06  0.00000E+00  9.000E+00
#rwgt            1           1   9.1046456192761083E-002           7      428566           0
</event>
<event>
      5   9999  3.79277E-02  1.20277E+02 -1.00000E+00  1.20326E-01
      21    -1     0     0   511   501  0.000000000E+00  0.000000000E+00  4.920379163E+02  4.920379163E+02  0.000000000E+00  0.00000E+00  9.000E+00
      21    -1     0     0   501   502  0.000000000E+00  0.000000000E+00 -2.733670587E+02  2.733670587E+02  0.000000000E+00  0.00000E+00  9.000E+00
      25     1     1     2     0     0 -2.968872432E+02  9.273981565E+01  1.741565171E+02  3.777541542E+02  1.250000000E+02  0.00000E+00  9.000E+00
      25     1     1     2     0     0  1.845390642E+02 -1.356855657E+02  4.793343389E+00  2.609850860E+02  1.250000000E+02  0.00000E+00  9.000E+00
      21     1     1     2   511   502  1.123481790E+02  4.294575009E+01  3.972099712E+01  1.266657349E+02  4.768371582E-07  0.00000E+00  9.000E+00
#rwgt            1           1   4.7644730250322995E-002           7      428797           0
</event>
<event>
      5   9999  3.79277E-02  4.93164E+01 -1.00000E+00  1.39418E-01
      21    -1     0     0   502   501  0.000000000E+00  0.000000000E+00  7.549955425E+01  7.549955425E+01  0.000000000E+00  0.00000E+00  9.000E+00
      21    -1     0     0   512   502  0.000000000E+00  0.000000000E+00 -7.042367530E+02  7.042367530E+02  0.000000000E+00  0.00000E+00  9.000E+00
      25     1     1     2     0     0  1.111997152E+02 -1.058234923E+02 -4.551601718E+02  4.963464216E+02  1.250000000E+02  0.00000E+00  9.000E+00
      25     1     1     2     0     0 -6.557543960E+01  8.710101971E+01 -9.652890928E+01  1.919102817E+02  1.250000000E+02  0.00000E+00  9.000E+00
      21     1     1     2   512   501 -4.562427558E+01  1.872247262E+01 -7.704811763E+01  9.147960392E+01  1.651812370E-06  0.00000E+00  9.000E+00
#rwgt            1           1   4.1493541220043242E-002           7      428882           0
</event>
<event>
      5   9999  3.79277E-02  7.83113E+01 -1.00000E+00  1.28800E-01
      21    -1     0     0   511   501  0.000000000E+00  0.000000000E+00  5.064112897E+02  5.064112897E+02  0.000000000E+00  0.00000E+00  9.000E+00
      21    -1     0     0   501   502  0.000000000E+00  0.000000000E+00 -1.326931338E+02  1.326931338E+02  0.000000000E+00  0.00000E+00  9.000E+00
      25     1     1     2     0     0  1.229005295E+02  7.403138857E+01  2.832404330E+02  3.412262146E+02  1.250000000E+02  0.00000E+00  9.000E+00
      25     1     1     2     0     0 -1.357384209E+02  3.220433075E+00  8.859534745E+00  1.847668300E+02  1.250000000E+02  0.00000E+00  9.000E+00
      21     1     1     2   511   502  1.283789144E+01 -7.725182164E+01  8.161818821E+01  1.131113790E+02  0.000000000E+00  0.00000E+00  9.000E+00
#rwgt            1           1   4.5220958794952651E-002           7      428961           0
</event>
<event>
      5   9999  3.79277E-02  4.76223E+01 -1.00000E+00  1.40294E-01
      21    -1     0     0   502   501  0.000000000E+00  0.000000000E+00  4.391959908E+01  4.391959908E+01  0.000000000E+00  0.00000E+00  9.000E+00
      21    -1     0     0   512   502  0.000000000E+00  0.000000000E+00 -6.826305127E+02  6.826305127E+02  0.000000000E+00  0.00000E+00  9.000E+00
      25     1     1     2     0     0  2.912152151E+01  3.688383762E+01 -3.187692885E+02  3.456115446E+02  1.250000000E+02  0.00000E+00  9.000E+00
      25     1     1     2     0     0 -7.667207314E+01 -3.949693257E+01 -1.945362685E+02  2.467954097E+02  1.250000000E+02  0.00000E+00  9.000E+00
      21     1     1     2   512   501  4.755055163E+01  2.613094949E+00 -1.254053567E+02  1.341431575E+02  1.348699152E-06  0.00000E+00  9.000E+00
#rwgt            1           1   7.2513268789990593E-002           7      429052           0
</event>
<event>
      5   9999  3.79277E-02  1.72257E+02 -1.00000E+00  1.14061E-01
      21    -1     0     0   502   511  0.000000000E+00  0.000000000E+00  1.304178215E+02  1.304178215E+02  0.000000000E+00  0.00000E+00  9.000E+00
      21    -1     0     0   501   502  0.000000000E+00  0.000000000E+00 -1.882248283E+03  1.882248283E+03  0.000000000E+00  0.00000E+00  9.000E+00
      25     1     1     2     0     0  7.322820898E+01  1.007162038E+02 -3.724238155E+02  4.121051112E+02  1.250000000E+02  0.00000E+00  9.000E+00
      25     1     1     2     0     0 -2.263955610E+02 -2.189909921E+01 -1.402903860E+03  1.426709066E+03  1.250000000E+02  0.00000E+00  9.000E+00
      21     1     1     2   501   511  1.531673520E+02 -7.881710454E+01  2.349721316E+01  1.738519275E+02  4.264961200E-06  0.00000E+00  9.000E+00
#rwgt            1           1   3.3486286385149971E-002           7      429193           0
</event>
<event>
      5   9999  3.79277E-02  3.99837E+01 -1.00000E+00  1.44851E-01
      21    -1     0     0   502   501  0.000000000E+00  0.000000000E+00  5.805280244E+01  5.805280244E+01  0.000000000E+00  0.00000E+00  9.000E+00
      21    -1     0     0   501   512  0.000000000E+00  0.000000000E+00 -9.249541322E+02  9.249541322E+02  0.000000000E+00  0.00000E+00  9.000E+00
      25     1     1     2     0     0  1.647160617E+02 -6.170563503E+01 -3.731350412E+02  4.310379628E+02  1.250000000E+02  0.00000E+00  9.000E+00
      25     1     1     2     0     0 -1.345577486E+02  8.795767170E+01 -3.760244118E+02  4.276233132E+02  1.250000000E+02  0.00000E+00  9.000E+00
      21     1     1     2   502   512 -3.015831310E+01 -2.625203667E+01 -1.177418767E+02  1.243456586E+02  0.000000000E+00  0.00000E+00  9.000E+00
#rwgt            1           1   3.4971752710660456E-002           7      429245           0
</event>
<event>
      5   9999  3.79277E-02  5.45447E+01 -1.00000E+00  1.36954E-01
      21    -1     0     0   502   501  0.000000000E+00  0.000000000E+00  1.158097726E+03  1.158097726E+03  0.000000000E+00  0.00000E+00  9.000E+00
       1    -1     0     0   501     0  0.000000000E+00  0.000000000E+00 -2.553465089E+02  2.553465089E+02  0.000000000E+00  0.00000E+00  9.000E+00
      25     1     1     2     0     0 -1.965210505E+02  6.011571473E+01  3.000258441E+02  3.845450943E+02  1.250000000E+02  0.00000E+00  9.000E+00
      25     1     1     2     0     0  2.213913169E+02 -1.157090299E+01  7.920179501E+02  8.319047027E+02  1.250000000E+02  0.00000E+00  9.000E+00
       1     1     1     2   502     0 -2.487026642E+01 -4.854481174E+01 -1.892925770E+02  1.969944380E+02  0.000000000E+00  0.00000E+00  9.000E+00
#rwgt            1           1   5.4349862179296292E-002           7      429374           0
</event>
<event>
      5   9999  3.79277E-02  3.34616E+01 -1.00000E+00  1.49817E-01
      21    -1     0     0   502   501  0.000000000E+00  0.000000000E+00  5.809657819E+01  5.809657819E+01  0.000000000E+00  0.00000E+00  9.000E+00
       1    -1     0     0   501     0  0.000000000E+00  0.000000000E+00 -1.318481136E+03  1.318481136E+03  0.000000000E+00  0.00000E+00  9.000E+00
      25     1     1     2     0     0 -1.091067924E+02 -8.633943515E+01 -3.925288086E+02  4.348133574E+02  1.250000000E+02  0.00000E+00  9.000E+00
      25     1     1     2     0     0  9.684529181E+01  5.520530512E+01 -1.552484970E+02  2.283719161E+02  1.250000000E+02  0.00000E+00  9.000E+00
       1     1     1     2   502     0  1.226150056E+01  3.113413004E+01 -7.126072526E+02  7.133924410E+02  1.078959322E-05  0.00000E+00  9.000E+00
#rwgt            1           1   3.7866040222830091E-002           7      429491           0
</event>
<event>
      5   9999  3.79277E-02  7.86440E+01 -1.00000E+00  1.28710E-01
      21    -1     0     0   502   501  0.000000000E+00  0.000000000E+00  3.025517328E+02  3.025517328E+02  0.000000000E+00  0.00000E+00  9.000E+00
      21    -1     0     0   501   511  0.000000000E+00  0.000000000E+00 -3.417362550E+02  3.417362550E+02  0.000000000E+00  0.00000E+00  9.000E+00
      25     1     1     2     0     0  1.697998719E+02  7.687929657E+01 -1.630744377E+02  2.774179067E+02  1.250000000E+02  0.00000E+00  9.000E+00
      25     1     1     2     0     0 -9.566109306E+01 -5.064348885E+01  1.985815305E+02  2.584094270E+02  1.250000000E+02  0.00000E+00  9.000E+00
      21     1     1     2   502   511 -7.413877883E+01 -2.623580772E+01 -7.469161511E+01  1.084606542E+02  1.348699152E-06  0.00000E+00  9.000E+00
#rwgt            1           1   4.2313228669292796E-002           7      429738           0
</event>
<event>
      5   9999 -3.79277E-02  2.36283E+01 -1.00000E+00  1.60609E-01
      21    -1     0     0   502   501  0.000000000E+00  0.000000000E+00  6.607343255E+01  6.607343255E+01  0.000000000E+00  0.00000E+00  9.000E+00
      21    -1     0     0   512   502  0.000000000E+00  0.000000000E+00 -1.079253252E+03  1.079253252E+03  0.000000000E+00  0.00000E+00  9.000E+00
      25     1     1     2     0     0  1.933461741E+02  4.261655481E+01 -6.973862371E+02  7.356435805E+02  1.250000000E+02  0.00000E+00  9.000E+00
      25     1     1     2     0     0 -1.787283978E+02 -6.118036525E+01 -2.388036850E+02  3.291490198E+02  1.250000000E+02  0.00000E+00  9.000E+00
      21     1     1     2   512   501 -1.461777627E+01  1.856381044E+01 -7.698989747E+01  8.053408442E+01  9.536743164E-07  0.00000E+00  9.000E+00
#rwgt            1           1  -3.9345441232133037E-002           7      429816           0
</event>
<event>
      5   9999  3.79277E-02  3.78615E+02 -1.00000E+00  1.02409E-01
       1    -1     0     0   502     0  0.000000000E+00  0.000000000E+00  1.884649754E+03  1.884649754E+03  0.000000000E+00  0.00000E+00  9.000E+00
      21    -1     0     0   501   502  0.000000000E+00  0.000000000E+00 -2.698392795E+02  2.698392795E+02  0.000000000E+00  0.00000E+00  9.000E+00
      25     1     1     2     0     0 -2.581399795E+02  5.599970762E+01 -7.479330345E+01  3.016475667E+02  1.250000000E+02  0.00000E+00  9.000E+00
      25     1     1     2     0     0  4.771691769E+00 -3.373431900E+02  6.031846027E+02  7.023388512E+02  1.250000000E+02  0.00000E+00  9.000E+00
       1     1     1     2   501     0  2.533682877E+02  2.813434824E+02  1.086419176E+03  1.150502616E+03  0.000000000E+00  0.00000E+00  9.000E+00
#rwgt            1           1   3.2952849047288006E-002           7      430038           0
</event>
<event>
      5   9999  3.79277E-02  5.27837E+01 -1.00000E+00  1.37746E-01
      21    -1     0     0   502   501  0.000000000E+00  0.000000000E+00  2.868607837E+02  2.868607837E+02  0.000000000E+00  0.00000E+00  9.000E+00
      21    -1     0     0   511   502  0.000000000E+00  0.000000000E+00 -3.354238057E+02  3.354238057E+02  0.000000000E+00  0.00000E+00  9.000E+00
      25     1     1     2     0     0 -8.372135145E+01 -1.754393214E+02 -5.853677695E+01  2.384109361E+02  1.250000000E+02  0.00000E+00  9.000E+00
      25     1     1     2     0     0  8.900832248E+01  1.229210872E+02  1.414424532E+02  2.422045472E+02  1.250000000E+02  0.00000E+00  9.000E+00
      21     1     1     2   511   501 -5.286971033E+00  5.251823425E+01 -1.314686982E+02  1.416691060E+02  1.907348633E-06  0.00000E+00  9.000E+00
#rwgt            1           1   4.9303137955892126E-002           7      430135           0
</event>
<event>
      5   9999  3.79277E-02  2.38222E+02 -1.00000E+00  1.08951E-01
      21    -1     0     0   502   512  0.000000000E+00  0.000000000E+00  4.128869184E+02  4.128869184E+02  0.000000000E+00  0.00000E+00  9.000E+00
      21    -1     0     0   501   502  0.000000000E+00  0.000000000E+00 -3.394922765E+02  3.394922765E+02  0.000000000E+00  0.00000E+00  9.000E+00
      25     1     1     2     0     0  3.914097669E+01  1.332618604E+02  6.701861714E+01  1.985125551E+02  1.250000000E+02  0.00000E+00  9.000E+00
      25     1     1     2     0     0 -2.338649619E+02  3.968896322E+00 -1.119635386E+02  2.878704683E+02  1.250000000E+02  0.00000E+00  9.000E+00
      21     1     1     2   501   512  1.947239852E+02 -1.372307568E+02  1.183395633E+02  2.659961715E+02  2.336015456E-06  0.00000E+00  9.000E+00
#rwgt            2          11   1.5810998147730206E-003           7      430306           0
</event>
<event>
      5   9999  3.79277E-02  5.26713E+01 -1.00000E+00  1.37798E-01
      21    -1     0     0   511   501  0.000000000E+00  0.000000000E+00  2.758322873E+02  2.758322873E+02  0.000000000E+00  0.00000E+00  9.000E+00
      21    -1     0     0   501   502  0.000000000E+00  0.000000000E+00 -2.301851861E+02  2.301851861E+02  0.000000000E+00  0.00000E+00  9.000E+00
      25     1     1     2     0     0 -9.120615567E+01 -1.566340463E+02 -5.758466211E+01  2.275824699E+02  1.250000000E+02  0.00000E+00  9.000E+00
      25     1     1     2     0     0  1.191082604E+02  1.119603221E+02  7.852402576E+01  2.202564733E+02  1.250000000E+02  0.00000E+00  9.000E+00
      21     1     1     2   511   502 -2.790210469E+01  4.467372420E+01  2.470773753E+01  5.817853018E+01  5.840038640E-07  0.00000E+00  9.000E+00
#rwgt            1           1   4.0508917142632522E-002           7      430326           0
</event>
<event>
      5   9999  3.79277E-02  1.19607E+02 -1.00000E+00  1.20429E-01
      21    -1     0     0   502   512  0.000000000E+00  0.000000000E+00  2.483468689E+02  2.483468689E+02  0.000000000E+00  0.00000E+00  9.000E+00
      21    -1     0     0   501   502  0.000000000E+00  0.000000000E+00 -4.948385243E+02  4.948385243E+02  0.000000000E+00  0.00000E+00  9.000E+00
      25     1     1     2     0     0  2.271530998E+02  5.683047019E+01 -7.950293932E+01  2.770811261E+02  1.250000000E+02  0.00000E+00  9.000E+00
      25     1     1     2     0     0 -1.745024802E+02  5.056535224E+01 -2.400315107E+02  3.259572005E+02  1.250000000E+02  0.00000E+00  9.000E+00
      21     1     1     2   501   512 -5.265061959E+01 -1.073958224E+02  7.304279471E+01  1.401470666E+02  1.348699152E-06  0.00000E+00  9.000E+00
#rwgt            1           1   3.1266100260553417E-002           7      430405           0
</event>
<event>
      5   9999  3.79277E-02  1.18342E+02 -1.00000E+00  1.20625E-01
      21    -1     0     0   502   501  0.000000000E+00  0.000000000E+00  2.929596515E+02  2.929596515E+02  0.000000000E+00  0.00000E+00  9.000E+00
      21    -1     0     0   501   511  0.000000000E+00  0.000000000E+00 -2.373496127E+02  2.373496127E+02  0.000000000E+00  0.00000E+00  9.000E+00
      25     1     1     2     0     0  6.926827969E+01 -9.701934468E+00 -1.530936097E+01  1.440541518E+02  1.250000000E+02  0.00000E+00  9.000E+00
      25     1     1     2     0     0 -1.795250361E+02  5.269430075E+01  1.235905534E+02  2.567207682E+02  1.250000000E+02  0.00000E+00  9.000E+00
      21     1     1     2   502   511  1.102567564E+02 -4.299236628E+01 -5.267115371E+01  1.295343442E+02  2.132480600E-06  0.00000E+00  9.000E+00
#rwgt            1           1   3.9399600576084950E-002           7      430479           0
</event>
<event>
      5   9999  3.79277E-02  3.51838E+01 -1.00000E+00  1.48382E-01
      21    -1     0     0   502   501  0.000000000E+00  0.000000000E+00  1.488626460E+02  1.488626460E+02  0.000000000E+00  0.00000E+00  9.000E+00
      21    -1     0     0   501   512  0.000000000E+00  0.000000000E+00 -6.612726721E+02  6.612726721E+02  0.000000000E+00  0.00000E+00  9.000E+00
      25     1     1     2     0     0  4.685843276E+01  1.009214191E+02 -5.241361442E+01  1.753654257E+02  1.250000000E+02  0.00000E+00  9.000E+00
      25     1     1     2     0     0 -3.937415846E+01 -1.353000019E+02 -1.562966226E+01  1.890124367E+02  1.250000000E+02  0.00000E+00  9.000E+00
      21     1     1     2   502   512 -7.484274298E+00  3.437858276E+01 -4.443667494E+02  4.457574557E+02  5.394796609E-06  0.00000E+00  9.000E+00
#rwgt            1           1   4.4345760432714182E-002           7      430622           0
</event>
<event>
      5   9999  3.79277E-02  9.08003E+01 -1.00000E+00  1.25743E-01
      21    -1     0     0   511   501  0.000000000E+00  0.000000000E+00  3.624295614E+02  3.624295614E+02  0.000000000E+00  0.00000E+00  9.000E+00
      21    -1     0     0   501   502  0.000000000E+00  0.000000000E+00 -2.966387630E+02  2.966387630E+02  0.000000000E+00  0.00000E+00  9.000E+00
      25     1     1     2     0     0  5.848346075E+01 -1.962166728E+02 -1.757617898E+01  2.405311205E+02  1.250000000E+02  0.00000E+00  9.000E+00
      25     1     1     2     0     0 -1.178470367E+02  1.275095500E+02 -8.261682013E+01  2.293406819E+02  1.250000000E+02  0.00000E+00  9.000E+00
      21     1     1     2   511   502  5.936357598E+01  6.870712281E+01  1.659837976E+02  1.891965220E+02  4.264961200E-06  0.00000E+00  9.000E+00
#rwgt            1           1   3.3515308927399838E-002           7      430738           0
</event>
<event>
      5   9999  3.79277E-02  1.24009E+01 -1.00000E+00  1.85540E-01
      21    -1     0     0   502   501  0.000000000E+00  0.000000000E+00  4.658971815E+02  4.658971815E+02  0.000000000E+00  0.00000E+00  9.000E+00
      21    -1     0     0   501   512  0.000000000E+00  0.000000000E+00 -1.233448376E+02  1.233448376E+02  0.000000000E+00  0.00000E+00  9.000E+00
      25     1     1     2     0     0  1.504142242E+02  2.826487861E+01  6.842367125E+01  2.091175292E+02  1.250000000E+02  0.00000E+00  9.000E+00
      25     1     1     2     0     0 -1.619451474E+02 -2.370209110E+01  2.926405538E+02  3.578428616E+02  1.250000000E+02  0.00000E+00  9.000E+00
      21     1     1     2   502   512  1.153092311E+01 -4.562787510E+00 -1.851188113E+01  2.228162832E+01  2.384185791E-07  0.00000E+00  9.000E+00
#rwgt            1           1   2.8195458718727803E-002           7      430807           0
</event>
<event>
      5   9999  3.79277E-02  1.47778E+02 -1.00000E+00  1.16651E-01
      21    -1     0     0   502   501  0.000000000E+00  0.000000000E+00  3.528535357E+02  3.528535357E+02  0.000000000E+00  0.00000E+00  9.000E+00
      21    -1     0     0   511   502  0.000000000E+00  0.000000000E+00 -4.067699559E+02  4.067699559E+02  0.000000000E+00  0.00000E+00  9.000E+00
      25     1     1     2     0     0  1.252264129E+02 -1.059909962E+02 -3.082995385E+01  2.085455150E+02  1.250000000E+02  0.00000E+00  9.000E+00
      25     1     1     2     0     0 -1.690811240E+02 -3.512959667E+01  1.941495952E+02  2.883428174E+02  1.250000000E+02  0.00000E+00  9.000E+00
      21     1     1     2   511   501  4.385471105E+01  1.411205928E+02 -2.172360616E+02  2.627351591E+02  4.672030912E-06  0.00000E+00  9.000E+00
#rwgt            1           1   5.4121764392454034E-003           7      430979           0
</event>
<event>
      5   9999  3.79277E-02  8.55185E+01 -1.00000E+00  1.26963E-01
      21    -1     0     0   502   501  0.000000000E+00  0.000000000E+00  2.306120029E+03  2.306120029E+03  0.000000000E+00  0.00000E+00  9.000E+00
      21    -1     0     0   512   502  0.000000000E+00  0.000000000E+00 -5.853862695E+01  5.853862695E+01  0.000000000E+00  0.00000E+00  9.000E+00
      25     1     1     2     0     0 -1.877318024E+02  2.378417222E+02  1.477136720E+03  1.513066359E+03  1.250000000E+02  0.00000E+00  9.000E+00
      25     1     1     2     0     0  1.945221521E+02 -1.525932578E+02  6.017794324E+02  6.624855132E+02  1.250000000E+02  0.00000E+00  9.000E+00
      21     1     1     2   512   501 -6.790349715E+00 -8.524846438E+01  1.686652491E+02  1.891067841E+02  2.697398305E-06  0.00000E+00  9.000E+00
#rwgt            1           1   8.9201358004908873E-002           7      431131           0
</event>
<event>
      5   9999 -3.79277E-02  3.14520E+01 -1.00000E+00  1.51628E-01
      21    -1     0     0   511   501  0.000000000E+00  0.000000000E+00  3.315625305E+02  3.315625305E+02  0.000000000E+00  0.00000E+00  9.000E+00
      21    -1     0     0   501   502  0.000000000E+00  0.000000000E+00 -4.477501681E+02  4.477501681E+02  0.000000000E+00  0.00000E+00  9.000E+00
      25     1     1     2     0     0  3.052517315E+02 -1.508474620E+02 -8.607712167E+01  3.727839150E+02  1.250000000E+02  0.00000E+00  9.000E+00
      25     1     1     2     0     0 -3.222232099E+02  1.243672979E+02 -4.785121966E+01  3.704183594E+02  1.250000000E+02  0.00000E+00  9.000E+00
      21     1     1     2   511   502  1.697147837E+01  2.648016412E+01  1.774070365E+01  3.611042420E+01  0.000000000E+00  0.00000E+00  9.000E+00
#rwgt            1           1 -0.34703273909703558                7      431357           0
</event>
<event>
      5   9999 -3.79277E-02  6.53571E+01 -1.00000E+00  1.32748E-01
      21    -1     0     0   502   501  0.000000000E+00  0.000000000E+00  3.814753809E+02  3.814753809E+02  0.000000000E+00  0.00000E+00  9.000E+00
      21    -1     0     0   501   512  0.000000000E+00  0.000000000E+00 -4.028336951E+02  4.028336951E+02  0.000000000E+00  0.00000E+00  9.000E+00
      25     1     1     2     0     0  2.270364180E+01  3.258290511E+02 -1.050060123E+02  3.651455716E+02  1.250000000E+02  0.00000E+00  9.000E+00
      25     1     1     2     0     0 -7.170004866E+00 -2.623447269E+02  1.490730652E+02  3.266863074E+02  1.250000000E+02  0.00000E+00  9.000E+00
      21     1     1     2   502   512 -1.553363693E+01 -6.348432418E+01 -6.542536708E+01  9.247719692E+01  9.536743164E-07  0.00000E+00  9.000E+00
#rwgt            1           1 -0.28733398741982130                7      431535           0
</event>
<event>
      5   9999  3.79277E-02  7.92160E+01 -1.00000E+00  1.28557E-01
      21    -1     0     0   511   501  0.000000000E+00  0.000000000E+00  1.372536146E+02  1.372536146E+02  0.000000000E+00  0.00000E+00  9.000E+00
      21    -1     0     0   501   502  0.000000000E+00  0.000000000E+00 -6.089750127E+02  6.089750127E+02  0.000000000E+00  0.00000E+00  9.000E+00
      25     1     1     2     0     0 -1.254769320E+02  2.519677589E+01 -3.666058388E+02  4.079266834E+02  1.250000000E+02  0.00000E+00  9.000E+00
      25     1     1     2     0     0  1.840113323E+02 -7.857190897E+01 -1.070272859E+02  2.590628403E+02  1.250000000E+02  0.00000E+00  9.000E+00
      21     1     1     2   511   502 -5.853440032E+01  5.337513308E+01  1.911726610E+00  7.923910367E+01  7.065099234E-07  0.00000E+00  9.000E+00
#rwgt            1           1   4.3498824504248933E-002           7      431775           0
</event>
<event>
      5   9999  3.79277E-02  1.67962E+02 -1.00000E+00  1.14480E-01
      21    -1     0     0   512   501  0.000000000E+00  0.000000000E+00  2.833766263E+02  2.833766263E+02  0.000000000E+00  0.00000E+00  9.000E+00
      21    -1     0     0   501   502  0.000000000E+00  0.000000000E+00 -4.430168011E+02  4.430168011E+02  0.000000000E+00  0.00000E+00  9.000E+00
      25     1     1     2     0     0  1.239125186E+02  9.753481426E+00 -1.592688429E+02  2.375731613E+02  1.250000000E+02  0.00000E+00  9.000E+00
      25     1     1     2     0     0 -2.908924769E+02 -2.789022416E+01  2.557589982E+01  3.188658407E+02  1.250000000E+02  0.00000E+00  9.000E+00
      21     1     1     2   512   502  1.669799582E+02  1.813674273E+01 -2.594723171E+01  1.699544254E+02  8.259061849E-07  0.00000E+00  9.000E+00
#rwgt            1           1   3.6002333445962736E-002           7      431847           0
</event>
<event>
      5   9999  3.79277E-02  2.17515E+01 -1.00000E+00  1.63416E-01
      21    -1     0     0   502   501  0.000000000E+00  0.000000000E+00  4.614483620E+02  4.614483620E+02  0.000000000E+00  0.00000E+00  9.000E+00
      21    -1     0     0   511   502  0.000000000E+00  0.000000000E+00 -3.082821515E+02  3.082821515E+02  0.000000000E+00  0.00000E+00  9.000E+00
      25     1     1     2     0     0 -1.869292260E+02 -9.163562796E+00 -1.249536427E+00  2.250623642E+02  1.250000000E+02  0.00000E+00  9.000E+00
      25     1     1     2     0     0  2.086692071E+02  8.456639178E+00  3.063037613E+02  3.912305547E+02  1.250000000E+02  0.00000E+00  9.000E+00
      21     1     1     2   511   501 -2.173998106E+01  7.069236180E-01 -1.518880144E+02  1.534375946E+02  1.907348633E-06  0.00000E+00  9.000E+00
#rwgt            1           1   4.1339115798078349E-002           7      431960           0
</event>
<event>
      5   9999  3.79277E-02  2.08158E+01 -1.00000E+00  1.64949E-01
      21    -1     0     0   502   512  0.000000000E+00  0.000000000E+00  8.180575853E+01  8.180575853E+01  0.000000000E+00  0.00000E+00  9.000E+00
      21    -1     0     0   501   502  0.000000000E+00  0.000000000E+00 -4.135329572E+02  4.135329572E+02  0.000000000E+00  0.00000E+00  9.000E+00
      25     1     1     2     0     0 -7.763095948E+01  6.135419727E+01 -1.183228307E+02  1.985351245E+02  1.250000000E+02  0.00000E+00  9.000E+00
      25     1     1     2     0     0  8.215299016E+01 -8.167285771E+01 -2.167437621E+02  2.757216493E+02  1.250000000E+02  0.00000E+00  9.000E+00
      21     1     1     2   501   512 -4.522030680E+00  2.031866044E+01  3.339394117E+00  2.108194196E+01  2.457562462E-07  0.00000E+00  9.000E+00
#rwgt            1           1   4.0077141963442600E-002           7      432222           0
</event>
<event>
      5   9999  3.79277E-02  3.85228E+01 -1.00000E+00  1.45861E-01
      21    -1     0     0   502   501  0.000000000E+00  0.000000000E+00  5.940839150E+02  5.940839150E+02  0.000000000E+00  0.00000E+00  9.000E+00
      21    -1     0     0   501   511  0.000000000E+00  0.000000000E+00 -4.883293024E+01  4.883293024E+01  0.000000000E+00  0.00000E+00  9.000E+00
      25     1     1     2     0     0  1.893563692E+01 -4.235762889E+01  1.417241685E+02  1.945853720E+02  1.250000000E+02  0.00000E+00  9.000E+00
      25     1     1     2     0     0 -1.984375692E+01  8.086969354E+01  3.607379583E+02  3.907563903E+02  1.250000000E+02  0.00000E+00  9.000E+00
      21     1     1     2   502   511  9.081200009E-01 -3.851206465E+01  4.278885803E+01  5.757508296E+01  4.768371582E-07  0.00000E+00  9.000E+00
#rwgt            1           1   9.6591042136938907E-002           7      432415           0
</event>
<event>
      5   9999  3.79277E-02  9.30122E+01 -1.00000E+00  1.25260E-01
      21    -1     0     0   502   512  0.000000000E+00  0.000000000E+00  1.392143234E+03  1.392143234E+03  0.000000000E+00  0.00000E+00  9.000E+00
      21    -1     0     0   501   502  0.000000000E+00  0.000000000E+00 -6.399956418E+01  6.399956418E+01  0.000000000E+00  0.00000E+00  9.000E+00
      25     1     1     2     0     0 -3.245464670E+01 -1.735076600E+02  5.367250743E+02  5.786683139E+02  1.250000000E+02  0.00000E+00  9.000E+00
      25     1     1     2     0     0  1.046625443E+02  2.321360653E+02  5.519458528E+02  6.205728204E+02  1.250000000E+02  0.00000E+00  9.000E+00
      21     1     1     2   501   512 -7.220789756E+01 -5.862840532E+01  2.394727424E+02  2.569016635E+02  3.814697266E-06  0.00000E+00  9.000E+00
#rwgt            1           1   4.6093112974670308E-002           7      432590           0
</event>
<event>
      5   9999  3.79277E-02  3.26477E+01 -1.00000E+00  1.50532E-01
      21    -1     0     0   502   501  0.000000000E+00  0.000000000E+00  7.497277173E+02  7.497277173E+02  0.000000000E+00  0.00000E+00  9.000E+00
      21    -1     0     0   501   511  0.000000000E+00  0.000000000E+00 -5.016638067E+01  5.016638067E+01  0.000000000E+00  0.00000E+00  9.000E+00
      25     1     1     2     0     0 -1.027023463E+02  4.724602552E-01  4.490413299E+02  4.772956223E+02  1.250000000E+02  0.00000E+00  9.000E+00
      25     1     1     2     0     0  1.114425817E+02 -3.192844542E+01  2.061105786E+02  2.674798034E+02  1.250000000E+02  0.00000E+00  9.000E+00
      21     1     1     2   502   511 -8.740235404E+00  3.145598516E+01  4.440942816E+01  5.511867222E+01  1.168007728E-06  0.00000E+00  9.000E+00
#rwgt            1           1   4.3334083001178580E-002           7      432766           0
</event>
<event>
      5   9999  3.79277E-02  6.47266E+01 -1.00000E+00  1.32967E-01
      21    -1     0     0   502   501  0.000000000E+00  0.000000000E+00  1.338634027E+02  1.338634027E+02  0.000000000E+00  0.00000E+00  9.000E+00
      21    -1     0     0   501   512  0.000000000E+00  0.000000000E+00 -8.134120417E+02  8.134120417E+02  0.000000000E+00  0.00000E+00  9.000E+00
      25     1     1     2     0     0  1.381288750E+02  1.408710720E+02 -1.608189451E+01  2.341108122E+02  1.250000000E+02  0.00000E+00  9.000E+00
      25     1     1     2     0     0 -8.757202618E+01 -1.004539979E+02 -5.764503353E+02  6.047146886E+02  1.250000000E+02  0.00000E+00  9.000E+00
      21     1     1     2   502   512 -5.055684879E+01 -4.041707417E+01 -8.701640915E+01  1.084499438E+02  2.132480600E-06  0.00000E+00  9.000E+00
#rwgt            1           1   3.5684859270127420E-002           7      432972           0
</event>
<event>
      5   9999  3.79277E-02  9.22701E+01 -1.00000E+00  1.25420E-01
      21    -1     0     0   502   501  0.000000000E+00  0.000000000E+00  8.495200194E+01  8.495200194E+01  0.000000000E+00  0.00000E+00  9.000E+00
      21    -1     0     0   511   502  0.000000000E+00  0.000000000E+00 -6.370032292E+02  6.370032292E+02  0.000000000E+00  0.00000E+00  9.000E+00
      25     1     1     2     0     0  6.162097353E+01  9.306347750E+01 -3.268605810E+02  3.673156608E+02  1.250000000E+02  0.00000E+00  9.000E+00
      25     1     1     2     0     0 -1.206622957E+02 -2.215586183E+01 -1.090920251E+02  2.063403542E+02  1.250000000E+02  0.00000E+00  9.000E+00
      21     1     1     2   511   501  5.904132220E+01 -7.090761567E+01 -1.160986210E+02  1.482992161E+02  1.348699152E-06  0.00000E+00  9.000E+00
#rwgt            1           1   6.7546719357773613E-003           7      433053           0
</event>
<event>
      5   9999  3.79277E-02  2.72504E+01 -1.00000E+00  1.55997E-01
      21    -1     0     0   502   512  0.000000000E+00  0.000000000E+00  9.306527715E+01  9.306527715E+01  0.000000000E+00  0.00000E+00  9.000E+00
      21    -1     0     0   501   502  0.000000000E+00  0.000000000E+00 -4.796720647E+02  4.796720647E+02  0.000000000E+00  0.00000E+00  9.000E+00
      25     1     1     2     0     0 -2.057654501E+01 -5.985165951E+01 -3.789965441E+02  4.040655835E+02  1.250000000E+02  0.00000E+00  9.000E+00
      25     1     1     2     0     0  4.504145573E+01  4.784944236E+01 -7.527214004E+00  1.414212177E+02  1.250000000E+02  0.00000E+00  9.000E+00
      21     1     1     2   501   512 -2.446491072E+01  1.200221715E+01 -8.302951424E-02  2.725054067E+01  5.009329519E-07  0.00000E+00  9.000E+00
#rwgt            1           1   4.2052441060604677E-002           7      433247           0
</event>
<event>
      5   9999  3.79277E-02  7.97424E+01 -1.00000E+00  1.28417E-01
      21    -1     0     0   511   501  0.000000000E+00  0.000000000E+00  3.009589000E+02  3.009589000E+02  0.000000000E+00  0.00000E+00  9.000E+00
      21    -1     0     0   501   502  0.000000000E+00  0.000000000E+00 -2.107361034E+03  2.107361034E+03  0.000000000E+00  0.00000E+00  9.000E+00
      25     1     1     2     0     0 -2.776046567E+02  1.279685422E+02 -1.130072680E+03  1.177340034E+03  1.250000000E+02  0.00000E+00  9.000E+00
      25     1     1     2     0     0  3.337442796E+02 -7.133649402E+01 -9.122285200E+02  9.819674191E+02  1.250000000E+02  0.00000E+00  9.000E+00
      21     1     1     2   511   502 -5.613962291E+01 -5.663204817E+01  2.358990662E+02  2.490124808E+02  9.344061824E-06  0.00000E+00  9.000E+00
#rwgt            1           1   2.7582506027749948E-002           7      433389           0
</event>
<event>
      5   9999 -3.79277E-02  4.99655E+01 -1.00000E+00  1.39093E-01
      21    -1     0     0   512   501  0.000000000E+00  0.000000000E+00  9.466540442E+02  9.466540442E+02  0.000000000E+00  0.00000E+00  9.000E+00
      21    -1     0     0   501   502  0.000000000E+00  0.000000000E+00 -9.217543987E+01  9.217543987E+01  0.000000000E+00  0.00000E+00  9.000E+00
      25     1     1     2     0     0 -7.000814461E-01  1.121297289E+02  8.855740669E+01  1.898446220E+02  1.250000000E+02  0.00000E+00  9.000E+00
      25     1     1     2     0     0  4.648530762E+01 -9.212300912E+01  1.213513644E+02  2.024813233E+02  1.250000000E+02  0.00000E+00  9.000E+00
      21     1     1     2   512   502 -4.578522617E+01 -2.000671978E+01  6.445698332E+02  6.465035388E+02  1.078959322E-05  0.00000E+00  9.000E+00
#rwgt            1           1 -0.17046064377137971                7      433485           0
</event>
<event>
      5   9999  3.79277E-02  2.25797E+01 -1.00000E+00  1.62136E-01
      21    -1     0     0   502   501  0.000000000E+00  0.000000000E+00  4.793779723E+01  4.793779723E+01  0.000000000E+00  0.00000E+00  9.000E+00
      21    -1     0     0   501   511  0.000000000E+00  0.000000000E+00 -1.009791129E+03  1.009791129E+03  0.000000000E+00  0.00000E+00  9.000E+00
      25     1     1     2     0     0  4.186688396E+00  6.732533724E+01 -8.048080286E+02  8.172461027E+02  1.250000000E+02  0.00000E+00  9.000E+00
      25     1     1     2     0     0  1.682130782E+01 -5.904847190E+01 -8.089383280E+01  1.610543095E+02  1.250000000E+02  0.00000E+00  9.000E+00
      21     1     1     2   502   511 -2.100799622E+01 -8.276865341E+00 -7.615146996E+01  7.942851366E+01  0.000000000E+00  0.00000E+00  9.000E+00
#rwgt            1           1   4.2002467776054479E-002           7      433571           0
</event>
<event>
      5   9999  3.79277E-02  4.76671E+01 -1.00000E+00  1.40270E-01
      21    -1     0     0   502   512  0.000000000E+00  0.000000000E+00  9.470359630E+01  9.470359630E+01  0.000000000E+00  0.00000E+00  9.000E+00
      21    -1     0     0   501   502  0.000000000E+00  0.000000000E+00 -6.526045154E+02  6.526045154E+02  0.000000000E+00  0.00000E+00  9.000E+00
      25     1     1     2     0     0  1.097663244E+02 -8.732034959E+01 -2.949053473E+02  3.496679186E+02  1.250000000E+02  0.00000E+00  9.000E+00
      25     1     1     2     0     0 -7.876352407E+01  5.111290635E+01 -2.993343084E+02  3.377014215E+02  1.250000000E+02  0.00000E+00  9.000E+00
      21     1     1     2   501   512 -3.100280028E+01  3.620744324E+01  3.633873655E+01  5.993877163E+01  8.259061849E-07  0.00000E+00  9.000E+00
#rwgt            1           1   3.9340465801664448E-002           7      433754           0
</event>
<event>
      5   9999  3.79277E-02  1.37776E+01 -1.00000E+00  1.80934E-01
      21    -1     0     0   502   501  0.000000000E+00  0.000000000E+00  1.760367767E+02  1.760367767E+02  0.000000000E+00  0.00000E+00  9.000E+00
      21    -1     0     0   511   502  0.000000000E+00  0.000000000E+00 -1.992215915E+02  1.992215915E+02  0.000000000E+00  0.00000E+00  9.000E+00
      25     1     1     2     0     0  9.613111349E+00  7.389395996E+01  3.718770811E+01  1.502020468E+02  1.250000000E+02  0.00000E+00  9.000E+00
      25     1     1     2     0     0 -2.325196685E+01 -7.584427400E+01  1.465812655E+01  1.487711952E+02  1.250000000E+02  0.00000E+00  9.000E+00
      21     1     1     2   511   501  1.363885550E+01  1.950314040E+00 -7.503064951E+01  7.628512614E+01  0.000000000E+00  0.00000E+00  9.000E+00
#rwgt            1           1   7.5536322240850856E-002           7      433954           0
</event>
<event>
      5   9999  3.79277E-02  6.48657E+01 -1.00000E+00  1.32918E-01
      -3    -1     0     0     0   501  0.000000000E+00  0.000000000E+00  2.626949391E+02  2.626949391E+02  0.000000000E+00  0.00000E+00  9.000E+00
      21    -1     0     0   501   502  0.000000000E+00  0.000000000E+00 -1.906609207E+03  1.906609207E+03  0.000000000E+00  0.00000E+00  9.000E+00
      25     1     1     2     0     0  4.711198454E+01  9.196977432E+01 -9.168079126E+02  9.310422800E+02  1.250000000E+02  0.00000E+00  9.000E+00
      25     1     1     2     0     0  1.348268876E+01 -1.151181705E+02 -9.710204474E+02  9.858700144E+02  1.250000000E+02  0.00000E+00  9.000E+00
      -3     1     1     2     0   502 -6.059467330E+01  2.314839617E+01  2.439140919E+02  2.523918519E+02  2.697398305E-06  0.00000E+00  9.000E+00
#rwgt            1           1  0.11125621047141701                7      434307           0
</event>
<event>
      5   9999  3.79277E-02  1.00749E+02 -1.00000E+00  1.23682E-01
      21    -1     0     0   502   511  0.000000000E+00  0.000000000E+00  2.605094128E+02  2.605094128E+02  0.000000000E+00  0.00000E+00  9.000E+00
      21    -1     0     0   501   502  0.000000000E+00  0.000000000E+00 -3.703897857E+02  3.703897857E+02  0.000000000E+00  0.00000E+00  9.000E+00
      25     1     1     2     0     0  1.736800986E+02 -5.497499153E+01 -2.501032351E+02  3.337119335E+02  1.250000000E+02  0.00000E+00  9.000E+00
      25     1     1     2     0     0 -9.751690430E+01 -1.097668098E+01  6.613971480E+01  1.721322051E+02  1.250000000E+02  0.00000E+00  9.000E+00
      21     1     1     2   501   511 -7.616319434E+01  6.595167251E+01  7.408314742E+01  1.250550599E+02  1.651812370E-06  0.00000E+00  9.000E+00
#rwgt            1           1   3.9862749227629862E-002           7      434443           0
</event>
<event>
      5   9999  3.79277E-02  1.99434E+01 -1.00000E+00  1.66471E-01
      21    -1     0     0   502   501  0.000000000E+00  0.000000000E+00  3.605280817E+02  3.605280817E+02  0.000000000E+00  0.00000E+00  9.000E+00
      21    -1     0     0   512   502  0.000000000E+00  0.000000000E+00 -6.348520875E+02  6.348520875E+02  0.000000000E+00  0.00000E+00  9.000E+00
      25     1     1     2     0     0  5.115719266E+01  1.147581951E+02  2.624008841E+02  3.166476365E+02  1.250000000E+02  0.00000E+00  9.000E+00
      25     1     1     2     0     0 -5.462903958E+01 -9.511926839E+01 -2.683779270E+01  1.684555559E+02  1.250000000E+02  0.00000E+00  9.000E+00
      21     1     1     2   512   501  3.471846925E+00 -1.963892669E+01 -5.098870972E+02  5.102769768E+02  5.394796609E-06  0.00000E+00  9.000E+00
#rwgt            1           1   4.4215171876466383E-002           7      434505           0
</event>
<event>
      5   9999  3.79277E-02  1.03832E+02 -1.00000E+00  1.23098E-01
      21    -1     0     0   502   501  0.000000000E+00  0.000000000E+00  8.757712210E+02  8.757712210E+02  0.000000000E+00  0.00000E+00  9.000E+00
      21    -1     0     0   501   511  0.000000000E+00  0.000000000E+00 -2.170445091E+02  2.170445091E+02  0.000000000E+00  0.00000E+00  9.000E+00
      25     1     1     2     0     0  2.299850948E+02 -1.141378624E+02  3.041014837E+02  4.171610095E+02  1.250000000E+02  0.00000E+00  9.000E+00
      25     1     1     2     0     0 -2.943727245E+02  3.268027081E+01  4.374236783E+02  5.428515224E+02  1.250000000E+02  0.00000E+00  9.000E+00
      21     1     1     2   502   511  6.438762963E+01  8.145759158E+01 -8.279845018E+01  1.328031981E+02  2.697398305E-06  0.00000E+00  9.000E+00
#rwgt            1           1   3.6816013727792120E-002           7      434640           0
</event>
<event>
      5   9999  3.79277E-02  3.98581E+01 -1.00000E+00  1.44936E-01
      21    -1     0     0   512   501  0.000000000E+00  0.000000000E+00  2.547909302E+01  2.547909302E+01  0.000000000E+00  0.00000E+00  9.000E+00
      21    -1     0     0   501   502  0.000000000E+00  0.000000000E+00 -1.629604449E+03  1.629604449E+03  0.000000000E+00  0.00000E+00  9.000E+00
      25     1     1     2     0     0 -4.253569660E+01 -1.335278725E+02 -6.642827748E+02  6.903155678E+02  1.250000000E+02  0.00000E+00  9.000E+00
      25     1     1     2     0     0  4.798976309E+01  9.404473684E+01 -8.611519616E+02  8.765586864E+02  1.250000000E+02  0.00000E+00  9.000E+00
      21     1     1     2   512   502 -5.454066490E+00  3.948313563E+01 -7.869061971E+01  8.820928790E+01  9.536743164E-07  0.00000E+00  9.000E+00
#rwgt            1           1   4.3353051135941456E-002           7      434749           0
</event>
<event>
      5   9999  3.79277E-02  4.62611E+01 -1.00000E+00  1.41029E-01
      21    -1     0     0   502   511  0.000000000E+00  0.000000000E+00  5.831973657E+02  5.831973657E+02  0.000000000E+00  0.00000E+00  9.000E+00
      21    -1     0     0   501   502  0.000000000E+00  0.000000000E+00 -8.259595786E+01  8.259595786E+01  0.000000000E+00  0.00000E+00  9.000E+00
      25     1     1     2     0     0  3.015499775E+01 -1.220967726E+02  6.587133413E+01  1.891586066E+02  1.250000000E+02  0.00000E+00  9.000E+00
      25     1     1     2     0     0 -1.327073443E+01  7.902692701E+01  3.137045946E+02  3.470690713E+02  1.250000000E+02  0.00000E+00  9.000E+00
      21     1     1     2   501   511 -1.688426332E+01  4.306984562E+01  1.210254790E+02  1.295656456E+02  2.697398305E-06  0.00000E+00  9.000E+00
#rwgt            1           1   4.5621704099904611E-002           7      434860           0
</event>
<event>
      5   9999 -3.79277E-02  5.17600E+01 -1.00000E+00  1.38224E-01
       4    -1     0     0   502     0  0.000000000E+00  0.000000000E+00  5.460298209E+02  5.460298209E+02  0.000000000E+00  0.00000E+00  9.000E+00
      21    -1     0     0   501   502  0.000000000E+00  0.000000000E+00 -1.189730111E+02  1.189730111E+02  0.000000000E+00  0.00000E+00  9.000E+00
      25     1     1     2     0     0 -7.812512561E+01  1.266197184E+02  4.081993252E+01  1.985632273E+02  1.250000000E+02  0.00000E+00  9.000E+00
      25     1     1     2     0     0  3.357625521E+01 -1.529730709E+02  2.480437605E+02  3.188711847E+02  1.250000000E+02  0.00000E+00  9.000E+00
       4     1     1     2   501     0  4.454887041E+01  2.635335250E+01  1.381931168E+02  1.475684200E+02  0.000000000E+00  0.00000E+00  9.000E+00
#rwgt            1           1  -9.9423633598784995E-003           7      434954           0
</event>
<event>
      5   9999  3.79277E-02  9.68760E+01 -1.00000E+00  1.24451E-01
      21    -1     0     0   511   501  0.000000000E+00  0.000000000E+00  1.877608200E+02  1.877608200E+02  0.000000000E+00  0.00000E+00  9.000E+00
      21    -1     0     0   501   502  0.000000000E+00  0.000000000E+00 -9.697871617E+02  9.697871617E+02  0.000000000E+00  0.00000E+00  9.000E+00
      25     1     1     2     0     0 -6.014993899E+01  3.535812040E+01 -8.107722614E+02  8.233133497E+02  1.250000000E+02  0.00000E+00  9.000E+00
      25     1     1     2     0     0 -3.670164029E+01 -3.318161695E+01 -1.039510553E+02  1.699377886E+02  1.250000000E+02  0.00000E+00  9.000E+00
      21     1     1     2   511   502  9.685157928E+01 -2.176503447E+00  1.326969750E+02  1.642968434E+02  3.303624740E-06  0.00000E+00  9.000E+00
#rwgt            1           1   3.6348030545585178E-002           7      435286           0
</event>
<event>
      5   9999  3.79277E-02  2.57707E+01 -1.00000E+00  1.57769E-01
      21    -1     0     0   502   501  0.000000000E+00  0.000000000E+00  1.267983734E+02  1.267983734E+02  0.000000000E+00  0.00000E+00  9.000E+00
      21    -1     0     0   512   502  0.000000000E+00  0.000000000E+00 -6.074501246E+02  6.074501246E+02  0.000000000E+00  0.00000E+00  9.000E+00
      25     1     1     2     0     0 -4.298398288E+01  9.023350495E+01 -4.581233704E+02  4.852749022E+02  1.250000000E+02  0.00000E+00  9.000E+00
      25     1     1     2     0     0  4.988904212E+01 -6.540507082E+01  6.097428262E+01  1.615846619E+02  1.250000000E+02  0.00000E+00  9.000E+00
      21     1     1     2   512   501 -6.905059240E+00 -2.482843413E+01 -8.350266344E+01  8.738893400E+01  9.536743164E-07  0.00000E+00  9.000E+00
#rwgt            1           1   4.6356971331663263E-002           7      435340           0
</event>
<event>
      5   9999  3.79277E-02  2.36988E+02 -1.00000E+00  1.09029E-01
      21    -1     0     0   502   501  0.000000000E+00  0.000000000E+00  6.247220037E+02  6.247220037E+02  0.000000000E+00  0.00000E+00  9.000E+00
       2    -1     0     0   501     0  0.000000000E+00  0.000000000E+00 -1.117359403E+03  1.117359403E+03  0.000000000E+00  0.00000E+00  9.000E+00
      25     1     1     2     0     0 -2.473243509E+01 -1.919355458E+02  1.149447402E+02  2.574650275E+02  1.250000000E+02  0.00000E+00  9.000E+00
      25     1     1     2     0     0 -1.271503053E+02  1.001568154E+01  4.060829450E+02  4.436168079E+02  1.250000000E+02  0.00000E+00  9.000E+00
       2     1     1     2   502     0  1.518827403E+02  1.819198643E+02 -1.013665085E+03  1.040999572E+03  1.078959322E-05  0.00000E+00  9.000E+00
#rwgt            1           1   3.2033684044759377E-002           7      435680           0
</event>
<event>
      5   9999  3.79277E-02  1.40851E+01 -1.00000E+00  1.79998E-01
      21    -1     0     0   511   501  0.000000000E+00  0.000000000E+00  8.284369731E+02  8.284369731E+02  0.000000000E+00  0.00000E+00  9.000E+00
      21    -1     0     0   501   502  0.000000000E+00  0.000000000E+00 -1.279973761E+02  1.279973761E+02  0.000000000E+00  0.00000E+00  9.000E+00
      25     1     1     2     0     0  3.718367499E+01  1.108176189E+02 -5.067837593E+01  1.784838036E+02  1.250000000E+02  0.00000E+00  9.000E+00
      25     1     1     2     0     0 -3.044093846E+01 -9.845128023E+01  4.826293374E+02  5.090927053E+02  1.250000000E+02  0.00000E+00  9.000E+00
      21     1     1     2   511   502 -6.742736529E+00 -1.236633868E+01  2.684886356E+02  2.688578403E+02  5.394796609E-06  0.00000E+00  9.000E+00
#rwgt            1           1   4.1342070807363386E-002           7      435728           0
</event>
<event>
      5   9999  3.79277E-02  2.10169E+01 -1.00000E+00  1.64611E-01
      21    -1     0     0   502   501  0.000000000E+00  0.000000000E+00  2.903511687E+02  2.903511687E+02  0.000000000E+00  0.00000E+00  9.000E+00
      21    -1     0     0   512   502  0.000000000E+00  0.000000000E+00 -1.322628694E+02  1.322628694E+02  0.000000000E+00  0.00000E+00  9.000E+00
      25     1     1     2     0     0  1.188323162E+02  5.105083859E+01  6.960894174E+00  1.800021154E+02  1.250000000E+02  0.00000E+00  9.000E+00
      25     1     1     2     0     0 -9.786267415E+01 -5.245871446E+01  1.432428245E+02  2.201647712E+02  1.250000000E+02  0.00000E+00  9.000E+00
      21     1     1     2   512   501 -2.096964204E+01  1.407875871E+00  7.884580657E+00  2.244715157E+01  4.380028980E-07  0.00000E+00  9.000E+00
#rwgt            1           1   3.4818344939536734E-002           7      435982           0
</event>
<event>
      5   9999  3.79277E-02  1.78039E+02 -1.00000E+00  1.13518E-01
       4    -1     0     0   502     0  0.000000000E+00  0.000000000E+00  8.410215628E+02  8.410215628E+02  0.000000000E+00  0.00000E+00  9.000E+00
      21    -1     0     0   501   502  0.000000000E+00  0.000000000E+00 -8.730142227E+02  8.730142227E+02  0.000000000E+00  0.00000E+00  9.000E+00
      25     1     1     2     0     0 -2.790756468E+02  9.177223440E+01 -5.465622128E+02  6.329775763E+02  1.250000000E+02  0.00000E+00  9.000E+00
      25     1     1     2     0     0  1.568817805E+02  3.771399023E+01 -2.346366583E+02  3.109881019E+02  1.250000000E+02  0.00000E+00  9.000E+00
       4     1     1     2   501     0  1.221938663E+02 -1.294862246E+02  7.492062112E+02  7.700701074E+02  0.000000000E+00  0.00000E+00  9.000E+00
#rwgt            1           1   4.2645226368990333E-002           7      436148           0
</event>
<event>
      5   9999  3.79277E-02  7.39412E+00 -1.00000E+00  2.12245E-01
      21    -1     0     0   511   501  0.000000000E+00  0.000000000E+00  1.591513939E+03  1.591513939E+03  0.000000000E+00  0.00000E+00  9.000E+00
      21    -1     0     0   501   502  0.000000000E+00  0.000000000E+00 -3.696760248E+01  3.696760248E+01  0.000000000E+00  0.00000E+00  9.000E+00
      25     1     1     2     0     0 -1.777393103E+01 -1.308555797E+01  1.191313083E+03  1.198056345E+03  1.250000000E+02  0.00000E+00  9.000E+00
      25     1     1     2     0     0  1.345363229E+01  7.084887386E+00  8.461738870E+01  1.517112333E+02  1.250000000E+02  0.00000E+00  9.000E+00
      21     1     1     2   511   502  4.320298740E+00  6.000670580E+00  2.786158646E+02  2.787139627E+02  3.814697266E-06  0.00000E+00  9.000E+00
#rwgt            1           1   5.3015059194021726E-002           7      436276           0
</event>
<event>
      5   9999 -3.79277E-02  3.94926E+01 -1.00000E+00  1.45185E-01
      21    -1     0     0   502   501  0.000000000E+00  0.000000000E+00  4.165124781E+02  4.165124781E+02  0.000000000E+00  0.00000E+00  9.000E+00
      21    -1     0     0   512   502  0.000000000E+00  0.000000000E+00 -3.120991600E+02  3.120991600E+02  0.000000000E+00  0.00000E+00  9.000E+00
      25     1     1     2     0     0  6.890759982E+01 -2.766095324E+02  5.303463374E+01  3.157511094E+02  1.250000000E+02  0.00000E+00  9.000E+00
      25     1     1     2     0     0 -1.066803435E+02  2.881370342E+02  1.034901673E+02  3.474749788E+02  1.250000000E+02  0.00000E+00  9.000E+00
      21     1     1     2   512   501  3.777274368E+01 -1.152750184E+01 -5.211148299E+01  6.538554981E+01  0.000000000E+00  0.00000E+00  9.000E+00
#rwgt            1           1  -5.1512140932350146E-002           7      436568           0
</event>
<event>
      5   9999  3.79277E-02  1.61977E+01 -1.00000E+00  1.74297E-01
      21    -1     0     0   502   501  0.000000000E+00  0.000000000E+00  1.385501875E+02  1.385501875E+02  0.000000000E+00  0.00000E+00  9.000E+00
      21    -1     0     0   501   511  0.000000000E+00  0.000000000E+00 -5.103016906E+02  5.103016906E+02  0.000000000E+00  0.00000E+00  9.000E+00
      25     1     1     2     0     0  1.872879756E+02  5.352775767E+01 -4.483369728E+01  2.357478888E+02  1.250000000E+02  0.00000E+00  9.000E+00
      25     1     1     2     0     0 -1.941163757E+02 -3.883968610E+01 -2.894498954E+02  3.722847438E+02  1.250000000E+02  0.00000E+00  9.000E+00
      21     1     1     2   502   511  6.828400070E+00 -1.468807157E+01 -3.746791040E+01  4.081924551E+01  4.768371582E-07  0.00000E+00  9.000E+00
#rwgt            1           1   4.5525359811859824E-002           7      436734           0
</event>
<event>
      5   9999  3.79277E-02  4.81787E+01 -1.00000E+00  1.40001E-01
      21    -1     0     0   502   501  0.000000000E+00  0.000000000E+00  2.326939118E+03  2.326939118E+03  0.000000000E+00  0.00000E+00  9.000E+00
      21    -1     0     0   501   512  0.000000000E+00  0.000000000E+00 -1.074212137E+03  1.074212137E+03  0.000000000E+00  0.00000E+00  9.000E+00
      25     1     1     2     0     0  9.638344951E+01  3.057248052E+02  5.426723314E+02  6.425540328E+02  1.250000000E+02  0.00000E+00  9.000E+00
      25     1     1     2     0     0 -7.758193746E+01 -2.613661197E+02  1.720780803E+03  1.746723441E+03  1.250000000E+02  0.00000E+00  9.000E+00
      21     1     1     2   502   512 -1.880151204E+01 -4.435868554E+01 -1.010726155E+03  1.011873781E+03  1.525878906E-05  0.00000E+00  9.000E+00
#rwgt            1           1   8.8483897051106833E-002           7      436974           0
</event>
<event>
      5   9999  3.79277E-02  4.84203E+01 -1.00000E+00  1.39876E-01
      21    -1     0     0   502   501  0.000000000E+00  0.000000000E+00  4.209730322E+02  4.209730322E+02  0.000000000E+00  0.00000E+00  9.000E+00
      21    -1     0     0   511   502  0.000000000E+00  0.000000000E+00 -1.791407900E+02  1.791407900E+02  0.000000000E+00  0.00000E+00  9.000E+00
      25     1     1     2     0     0  9.377163146E+01  6.657370571E+01  3.265082230E+02  3.680459168E+02  1.250000000E+02  0.00000E+00  9.000E+00
      25     1     1     2     0     0 -1.086083516E+02 -2.048250515E+01 -7.377080696E+01  1.824347527E+02  1.250000000E+02  0.00000E+00  9.000E+00
      21     1     1     2   511   501  1.483672011E+01 -4.609120056E+01 -1.090517387E+01  4.963315273E+01  5.331201500E-07  0.00000E+00  9.000E+00
#rwgt            1           1   3.8146150207587555E-002           7      437082           0
</event>
<event>
      5   9999  3.79277E-02  1.64244E+01 -1.00000E+00  1.73751E-01
      21    -1     0     0   512   501  0.000000000E+00  0.000000000E+00  1.651730945E+02  1.651730945E+02  0.000000000E+00  0.00000E+00  9.000E+00
      21    -1     0     0   501   502  0.000000000E+00  0.000000000E+00 -2.515480751E+02  2.515480751E+02  0.000000000E+00  0.00000E+00  9.000E+00
      25     1     1     2     0     0  7.430850866E+01 -1.229472443E+02 -7.566662456E+01  2.049102667E+02  1.250000000E+02  0.00000E+00  9.000E+00
      25     1     1     2     0     0 -6.365916642E+01  1.354513640E+02 -1.175747252E+01  1.953530129E+02  1.250000000E+02  0.00000E+00  9.000E+00
      21     1     1     2   512   502 -1.064934224E+01 -1.250411972E+01  1.049116497E+00  1.645789007E+01  1.781919709E-07  0.00000E+00  9.000E+00
#rwgt            1           1   3.5256494345186788E-002           7      437229           0
</event>
<event>
      5   9999  3.79277E-02  1.93387E+01 -1.00000E+00  1.67583E-01
      21    -1     0     0   502   501  0.000000000E+00  0.000000000E+00  2.897699749E+02  2.897699749E+02  0.000000000E+00  0.00000E+00  9.000E+00
      21    -1     0     0   501   511  0.000000000E+00  0.000000000E+00 -3.497222535E+02  3.497222535E+02  0.000000000E+00  0.00000E+00  9.000E+00
      25     1     1     2     0     0  1.456894246E+02 -1.795204010E+02  9.756495173E+01  2.803513913E+02  1.250000000E+02  0.00000E+00  9.000E+00
      25     1     1     2     0     0 -1.635326015E+02  1.720633982E+02 -8.103357559E+01  2.802501831E+02  1.250000000E+02  0.00000E+00  9.000E+00
      21     1     1     2   502   511  1.784317693E+01  7.457002760E+00 -7.648365468E+01  7.889065399E+01  1.348699152E-06  0.00000E+00  9.000E+00
#rwgt            1           1   4.0887824319147878E-002           7      437506           0
</event>
<event>
      5   9999  3.79277E-02  1.08737E+02 -1.00000E+00  1.22214E-01
      21    -1     0     0   502   501  0.000000000E+00  0.000000000E+00  6.529673511E+01  6.529673511E+01  0.000000000E+00  0.00000E+00  9.000E+00
       1    -1     0     0   501     0  0.000000000E+00  0.000000000E+00 -1.380894392E+03  1.380894392E+03  0.000000000E+00  0.00000E+00  9.000E+00
      25     1     1     2     0     0 -1.005771678E+02  7.619255952E+01 -1.849348779E+02  2.564117428E+02  1.250000000E+02  0.00000E+00  9.000E+00
      25     1     1     2     0     0  2.083639927E+02 -9.053511340E+01 -7.327594533E+02  7.772860327E+02  1.250000000E+02  0.00000E+00  9.000E+00
       1     1     1     2   502     0 -1.077868250E+02  1.434255388E+01 -3.979033254E+02  4.124933513E+02  7.629394531E-06  0.00000E+00  9.000E+00
#rwgt            1           1   2.9220996974075181E-002           7      437709           0
</event>
<event>
      5   9999  3.79277E-02  8.33537E+00 -1.00000E+00  2.05366E-01
      21    -1     0     0   502   501  0.000000000E+00  0.000000000E+00  9.944304430E+02  9.944304430E+02  0.000000000E+00  0.00000E+00  9.000E+00
      21    -1     0     0   511   502  0.000000000E+00  0.000000000E+00 -2.615431285E+01  2.615431285E+01  0.000000000E+00  0.00000E+00  9.000E+00
      25     1     1     2     0     0  5.297454299E+01 -2.786599837E-01  6.829676382E+02  6.963305068E+02  1.250000000E+02  0.00000E+00  9.000E+00
      25     1     1     2     0     0 -6.045678373E+01  3.952131638E+00  2.835330436E+02  3.157318939E+02  1.250000000E+02  0.00000E+00  9.000E+00
      21     1     1     2   511   501  7.482240737E+00 -3.673471655E+00  1.775448388E+00  8.522355157E+00  2.230201594E-07  0.00000E+00  9.000E+00
#rwgt            1           1  0.11709210060565796                7      437795           0
</event>
<event>
      5   9999  3.79277E-02  1.11472E+02 -1.00000E+00  1.21743E-01
      21    -1     0     0   502   501  0.000000000E+00  0.000000000E+00  2.851190820E+02  2.851190820E+02  0.000000000E+00  0.00000E+00  9.000E+00
      21    -1     0     0   501   512  0.000000000E+00  0.000000000E+00 -6.104846855E+02  6.104846855E+02  0.000000000E+00  0.00000E+00  9.000E+00
      25     1     1     2     0     0  2.223003827E+02  1.611923158E+02 -3.245690527E+01  3.034450090E+02  1.250000000E+02  0.00000E+00  9.000E+00
      25     1     1     2     0     0 -1.569349760E+02 -7.089580979E+01  6.079524508E+01  2.213049127E+02  1.250000000E+02  0.00000E+00  9.000E+00
      21     1     1     2   502   512 -6.536540664E+01 -9.029650603E+01 -3.537039433E+02  3.708538458E+02  5.394796609E-06  0.00000E+00  9.000E+00
#rwgt            1           1   3.6519699852794581E-002           7      438266           0
</event>
<event>
      5   9999  3.79277E-02  1.36941E+01 -1.00000E+00  1.81193E-01
      21    -1     0     0   502   511  0.000000000E+00  0.000000000E+00  8.653161375E+01  8.653161375E+01  0.000000000E+00  0.00000E+00  9.000E+00
      21    -1     0     0   501   502  0.000000000E+00  0.000000000E+00 -6.297151491E+02  6.297151491E+02  0.000000000E+00  0.00000E+00  9.000E+00
      25     1     1     2     0     0  6.518747960E+01 -1.136924619E+02 -9.209011161E+01  2.031771937E+02  1.250000000E+02  0.00000E+00  9.000E+00
      25     1     1     2     0     0 -6.247685277E+01  1.271156112E+02 -4.596269151E+02  4.969342380E+02  1.250000000E+02  0.00000E+00  9.000E+00
      21     1     1     2   501   511 -2.710626829E+00 -1.342314934E+01  8.533491412E+00  1.613533116E+01  3.371747881E-07  0.00000E+00  9.000E+00
#rwgt            1           1   3.6394293424734638E-002           7      438469           0
</event>
<event>
      5   9999  3.79277E-02  2.17217E+01 -1.00000E+00  1.63463E-01
      21    -1     0     0   502   512  0.000000000E+00  0.000000000E+00  6.779525747E+02  6.779525747E+02  0.000000000E+00  0.00000E+00  9.000E+00
      21    -1     0     0   501   502  0.000000000E+00  0.000000000E+00 -7.128422112E+02  7.128422112E+02  0.000000000E+00  0.00000E+00  9.000E+00
      25     1     1     2     0     0  1.118875944E+02  5.715395918E+01 -5.119311235E+02  5.417415288E+02  1.250000000E+02  0.00000E+00  9.000E+00
      25     1     1     2     0     0 -9.817396025E+01 -4.030850697E+01 -1.496426096E+02  2.219928215E+02  1.250000000E+02  0.00000E+00  9.000E+00
      21     1     1     2   501   512 -1.371363417E+01 -1.684545220E+01  6.266840966E+02  6.270604356E+02  0.000000000E+00  0.00000E+00  9.000E+00
#rwgt            1           1   3.6760382379310945E-002           7      438631           0
</event>
<event>
      5   9999  3.79277E-02  2.02779E+01 -1.00000E+00  1.65876E-01
      21    -1     0     0   511   501  0.000000000E+00  0.000000000E+00  2.222297968E+02  2.222297968E+02  0.000000000E+00  0.00000E+00  9.000E+00
      21    -1     0     0   501   502  0.000000000E+00  0.000000000E+00 -2.233023441E+02  2.233023441E+02  0.000000000E+00  0.00000E+00  9.000E+00
      25     1     1     2     0     0 -6.522870500E+01  4.219417771E+00 -1.600063956E+02  2.133064323E+02  1.250000000E+02  0.00000E+00  9.000E+00
      25     1     1     2     0     0  7.911019755E+01  1.056217403E+01  1.463612873E+02  2.083665263E+02  1.250000000E+02  0.00000E+00  9.000E+00
      21     1     1     2   511   502 -1.388149255E+01 -1.478159180E+01  1.257256096E+01  2.385918231E+01  4.768371582E-07  0.00000E+00  9.000E+00
#rwgt            1           1   4.0640696010567377E-002           7      438780           0
</event>
<event>
      5   9999  3.79277E-02  7.89774E+01 -1.00000E+00  1.28620E-01
      21    -1     0     0   502   501  0.000000000E+00  0.000000000E+00  2.577089332E+02  2.577089332E+02  0.000000000E+00  0.00000E+00  9.000E+00
       1    -1     0     0   501     0  0.000000000E+00  0.000000000E+00 -3.333086278E+02  3.333086278E+02  0.000000000E+00  0.00000E+00  9.000E+00
      25     1     1     2     0     0  5.641305358E+01 -1.554743846E+02 -2.166120228E+02  2.998340963E+02  1.250000000E+02  0.00000E+00  9.000E+00
      25     1     1     2     0     0  1.351567222E+01  1.187673463E+02  1.163372114E+02  2.084411253E+02  1.250000000E+02  0.00000E+00  9.000E+00
       1     1     1     2   502     0 -6.992872580E+01  3.670703821E+01  2.467511676E+01  8.274233942E+01  1.507891493E-06  0.00000E+00  9.000E+00
#rwgt            1           1   3.5719051377382127E-002           7      438968           0
</event>
<event>
      5   9999  3.79277E-02  7.00101E+01 -1.00000E+00  1.31218E-01
      21    -1     0     0   502   501  0.000000000E+00  0.000000000E+00  3.696641959E+02  3.696641959E+02  0.000000000E+00  0.00000E+00  9.000E+00
      21    -1     0     0   501   511  0.000000000E+00  0.000000000E+00 -4.206817098E+02  4.206817098E+02  0.000000000E+00  0.00000E+00  9.000E+00
      25     1     1     2     0     0 -1.124652362E+02 -1.696446326E+01  2.400441063E+02  2.935683828E+02  1.250000000E+02  0.00000E+00  9.000E+00
      25     1     1     2     0     0  1.724503838E+02 -1.913530494E+01 -1.768248825E+01  2.145762455E+02  1.250000000E+02  0.00000E+00  9.000E+00
      21     1     1     2   502   511 -5.998514753E+01  3.609976819E+01 -2.733791319E+02  2.822012774E+02  3.814697266E-06  0.00000E+00  9.000E+00
#rwgt            1           1  0.10886862441321021                7      439080           0
</event>
<event>
      5   9999  3.79277E-02  6.10588E+01 -1.00000E+00  1.34299E-01
      21    -1     0     0   512   501  0.000000000E+00  0.000000000E+00  1.148961226E+03  1.148961226E+03  0.000000000E+00  0.00000E+00  9.000E+00
      21    -1     0     0   501   502  0.000000000E+00  0.000000000E+00 -9.506432250E+01  9.506432250E+01  0.000000000E+00  0.00000E+00  9.000E+00
      25     1     1     2     0     0 -7.579677367E+01 -1.692258972E+02  1.114504521E+02  2.498574763E+02  1.250000000E+02  0.00000E+00  9.000E+00
      25     1     1     2     0     0  1.557532503E+01  1.793035730E+02  4.793228343E+02  5.270367554E+02  1.250000000E+02  0.00000E+00  9.000E+00
      21     1     1     2   512   502  6.022144863E+01 -1.007767583E+01  4.631236169E+02  4.671313166E+02  0.000000000E+00  0.00000E+00  9.000E+00
#rwgt            1           1   3.6419449126330175E-002           7      439152           0
</event>
<event>
      5   9999  3.79277E-02  6.06544E+01 -1.00000E+00  1.34452E-01
      21    -1     0     0   502   501  0.000000000E+00  0.000000000E+00  4.731354165E+02  4.731354165E+02  0.000000000E+00  0.00000E+00  9.000E+00
      21    -1     0     0   501   511  0.000000000E+00  0.000000000E+00 -3.498862432E+02  3.498862432E+02  0.000000000E+00  0.00000E+00  9.000E+00
      25     1     1     2     0     0  3.188314315E+02 -1.224243805E+02  1.715803497E+02  4.021268793E+02  1.250000000E+02  0.00000E+00  9.000E+00
      25     1     1     2     0     0 -2.586004210E+02  1.152701064E+02  4.174949246E+01  3.122969665E+02  1.250000000E+02  0.00000E+00  9.000E+00
      21     1     1     2   502   511 -6.023101054E+01  7.154274078E+00 -9.008066891E+01  1.085978139E+02  9.536743164E-07  0.00000E+00  9.000E+00
#rwgt            1           1   4.3231927186542382E-002           7      439288           0
</event>
<event>
      5   9999  3.79277E-02  4.84511E+01 -1.00000E+00  1.39860E-01
      21    -1     0     0   512   501  0.000000000E+00  0.000000000E+00  2.131659108E+02  2.131659108E+02  0.000000000E+00  0.00000E+00  9.000E+00
      21    -1     0     0   501   502  0.000000000E+00  0.000000000E+00 -4.750158699E+02  4.750158699E+02  0.000000000E+00  0.00000E+00  9.000E+00
      25     1     1     2     0     0  2.541525678E+01  2.022388135E+01  1.311174026E+01  1.298147079E+02  1.250000000E+02  0.00000E+00  9.000E+00
      25     1     1     2     0     0 -5.886164257E+01 -5.527879730E+01 -3.986541188E+02  4.255238475E+02  1.250000000E+02  0.00000E+00  9.000E+00
      21     1     1     2   512   502  3.344638580E+01  3.505491595E+01  1.236924195E+02  1.328432252E+02  2.336015456E-06  0.00000E+00  9.000E+00
#rwgt            1           1   4.5087893078077736E-002           7      439449           0
</event>
<event>
      5   9999  3.79277E-02  4.38212E+01 -1.00000E+00  1.42425E-01
      -1    -1     0     0     0   501  0.000000000E+00  0.000000000E+00  4.108791981E+02  4.108791981E+02  0.000000000E+00  0.00000E+00  9.000E+00
      21    -1     0     0   501   502  0.000000000E+00  0.000000000E+00 -1.838810555E+02  1.838810555E+02  0.000000000E+00  0.00000E+00  9.000E+00
      25     1     1     2     0     0 -1.137908467E+02 -9.998457656E+01 -1.828102375E+01  1.972421562E+02  1.250000000E+02  0.00000E+00  9.000E+00
      25     1     1     2     0     0  1.201742041E+02  5.663077147E+01  3.886768112E+01  1.865062472E+02  1.250000000E+02  0.00000E+00  9.000E+00
      -1     1     1     2     0   502 -6.383357380E+00  4.335380508E+01  2.064114853E+02  2.110118502E+02  2.697398305E-06  0.00000E+00  9.000E+00
#rwgt            1           1   2.6297816461361888E-002           7      439619           0
</event>
<event>
      5   9999 -3.79277E-02  2.05556E+01 -1.00000E+00  1.65393E-01
      21    -1     0     0   502   501  0.000000000E+00  0.000000000E+00  9.033659878E+02  9.033659878E+02  0.000000000E+00  0.00000E+00  9.000E+00
      21    -1     0     0   501   511  0.000000000E+00  0.000000000E+00 -1.258059956E+02  1.258059956E+02  0.000000000E+00  0.00000E+00  9.000E+00
      25     1     1     2     0     0  6.899394206E+01  2.599885956E+02  5.037074116E+02  5.845514437E+02  1.250000000E+02  0.00000E+00  9.000E+00
      25     1     1     2     0     0 -6.829047350E+01 -2.394450011E+02  3.012729041E+02  4.103508987E+02  1.250000000E+02  0.00000E+00  9.000E+00
      21     1     1     2   502   511 -7.034685557E-01 -2.054359457E+01 -2.742032360E+01  3.426964097E+01  9.536743164E-07  0.00000E+00  9.000E+00
#rwgt            1           1 -0.42660578731227122                7      439720           0
</event>
<event>
      5   9999  3.79277E-02  2.64091E+01 -1.00000E+00  1.56988E-01
      21    -1     0     0   502   512  0.000000000E+00  0.000000000E+00  9.603431633E+02  9.603431633E+02  0.000000000E+00  0.00000E+00  9.000E+00
      21    -1     0     0   501   502  0.000000000E+00  0.000000000E+00 -4.776944628E+01  4.776944628E+01  0.000000000E+00  0.00000E+00  9.000E+00
      25     1     1     2     0     0 -4.954319200E+01 -1.120493039E+02  3.476812093E+02  3.892515867E+02  1.250000000E+02  0.00000E+00  9.000E+00
      25     1     1     2     0     0  3.013064254E+01  1.299543770E+02  2.907407748E+02  3.434402333E+02  1.250000000E+02  0.00000E+00  9.000E+00
      21     1     1     2   501   512  1.941254946E+01 -1.790507303E+01  2.741517329E+02  2.754207897E+02  5.394796609E-06  0.00000E+00  9.000E+00
#rwgt            1           1   3.7954117121362735E-002           7      439999           0
</event>
<event>
      5   9999  3.79277E-02  1.30146E+02 -1.00000E+00  1.18891E-01
      21    -1     0     0   502   501  0.000000000E+00  0.000000000E+00  1.611758902E+03  1.611758902E+03  0.000000000E+00  0.00000E+00  9.000E+00
       2    -1     0     0   501     0  0.000000000E+00  0.000000000E+00 -1.792953432E+02  1.792953432E+02  0.000000000E+00  0.00000E+00  9.000E+00
      25     1     1     2     0     0 -7.814296378E+01 -1.542940545E+02  3.342220580E+02  3.965379706E+02  1.250000000E+02  0.00000E+00  9.000E+00
      25     1     1     2     0     0  2.082865988E+02  1.535509939E+02  1.197081220E+03  1.231092874E+03  1.250000000E+02  0.00000E+00  9.000E+00
       2     1     1     2   502     0 -1.301436350E+02  7.430606831E-01 -9.883971959E+01  1.634234012E+02  5.560829062E-06  0.00000E+00  9.000E+00
#rwgt            2          13   3.3719549519382365E-004           7      440123           0
</event>
<event>
      5   9999  3.79277E-02  8.80334E+01 -1.00000E+00  1.26370E-01
      21    -1     0     0   502   501  0.000000000E+00  0.000000000E+00  1.504463561E+02  1.504463561E+02  0.000000000E+00  0.00000E+00  9.000E+00
       2    -1     0     0   501     0  0.000000000E+00  0.000000000E+00 -2.614770190E+03  2.614770190E+03  0.000000000E+00  0.00000E+00  9.000E+00
      25     1     1     2     0     0 -1.290972055E+02  7.046319477E+01 -3.289382409E+01  1.958013124E+02  1.250000000E+02  0.00000E+00  9.000E+00
      25     1     1     2     0     0  6.636924852E+01 -1.322295546E+02 -6.939916218E+01  2.057444433E+02  1.250000000E+02  0.00000E+00  9.000E+00
       2     1     1     2   502     0  6.272795695E+01  6.176635981E+01 -2.362030848E+03  2.363670791E+03  4.315837288E-05  0.00000E+00  9.000E+00
#rwgt            1           1   2.9506742900982742E-002           7      440457           0
</event>
<event>
      5   9999  3.79277E-02  8.64902E+01 -1.00000E+00  1.26731E-01
      -2    -1     0     0     0   501  0.000000000E+00  0.000000000E+00  3.776840979E+02  3.776840979E+02  0.000000000E+00  0.00000E+00  9.000E+00
      21    -1     0     0   501   502  0.000000000E+00  0.000000000E+00 -1.159237928E+03  1.159237928E+03  0.000000000E+00  0.00000E+00  9.000E+00
      25     1     1     2     0     0 -1.570334525E+02 -1.529058303E+02 -3.787163909E+02  4.550723051E+02  1.250000000E+02  0.00000E+00  9.000E+00
      25     1     1     2     0     0  1.990410065E+02  7.730208454E+01 -7.156953260E+02  7.572567161E+02  1.250000000E+02  0.00000E+00  9.000E+00
      -2     1     1     2     0   502 -4.200755397E+01  7.560374572E+01  3.128578871E+02  3.245930043E+02  1.078959322E-05  0.00000E+00  9.000E+00
#rwgt            1           1   3.6831195706481676E-002           7      440507           0
</event>
<event>
      5   9999  3.79277E-02  7.93032E+01 -1.00000E+00  1.28534E-01
      21    -1     0     0   502   501  0.000000000E+00  0.000000000E+00  3.095236812E+02  3.095236812E+02  0.000000000E+00  0.00000E+00  9.000E+00
      21    -1     0     0   501   511  0.000000000E+00  0.000000000E+00 -7.996530227E+02  7.996530227E+02  0.000000000E+00  0.00000E+00  9.000E+00
      25     1     1     2     0     0  5.419188535E+01  2.160784842E+02 -3.703639041E+02  4.499123173E+02  1.250000000E+02  0.00000E+00  9.000E+00
      25     1     1     2     0     0 -1.315855268E+02 -1.987805109E+02  1.964632695E+02  3.332435426E+02  1.250000000E+02  0.00000E+00  9.000E+00
      21     1     1     2   502   511  7.739364150E+01 -1.729797325E+01 -3.162287069E+02  3.260208440E+02  3.814697266E-06  0.00000E+00  9.000E+00
#rwgt            1           1   3.4531600257881039E-002           7      440572           0
</event>
<event>
      5   9999  3.79277E-02  7.27327E+01 -1.00000E+00  1.30384E-01
      21    -1     0     0   512   501  0.000000000E+00  0.000000000E+00  3.863093113E+02  3.863093113E+02  0.000000000E+00  0.00000E+00  9.000E+00
      21    -1     0     0   501   502  0.000000000E+00  0.000000000E+00 -4.639685724E+02  4.639685724E+02  0.000000000E+00  0.00000E+00  9.000E+00
      25     1     1     2     0     0 -3.930069813E+01  2.934924338E+02 -1.842985286E+02  3.705041177E+02  1.250000000E+02  0.00000E+00  9.000E+00
      25     1     1     2     0     0  4.839650290E+01 -3.656541343E+02  6.177626552E+01  3.943177328E+02  1.250000000E+02  0.00000E+00  9.000E+00
      21     1     1     2   512   502 -9.095804767E+00  7.216170044E+01  4.486300197E+01  8.545603326E+01  0.000000000E+00  0.00000E+00  9.000E+00
#rwgt            1           1  0.45271777664143437                7      440656           0
</event>
<event>
      5   9999  3.79277E-02  6.09248E+01 -1.00000E+00  1.34349E-01
      21    -1     0     0   502   501  0.000000000E+00  0.000000000E+00  7.972202490E+02  7.972202490E+02  0.000000000E+00  0.00000E+00  9.000E+00
      21    -1     0     0   501   511  0.000000000E+00  0.000000000E+00 -7.993167188E+01  7.993167188E+01  0.000000000E+00  0.00000E+00  9.000E+00
      25     1     1     2     0     0  7.343730757E+01 -6.584477768E+01  3.210436065E+02  3.583609495E+02  1.250000000E+02  0.00000E+00  9.000E+00
      25     1     1     2     0     0 -1.343328350E+02  6.773391777E+01  4.118172634E+02  4.559075044E+02  1.250000000E+02  0.00000E+00  9.000E+00
      21     1     1     2   502   511  6.089552739E+01 -1.889140090E+00 -1.557229277E+01  6.288346689E+01  7.539457465E-07  0.00000E+00  9.000E+00
#rwgt            1           1  0.16573766310974941                7      440815           0
</event>
<event>
      5   9999  3.79277E-02  2.93410E+01 -1.00000E+00  1.53713E-01
      21    -1     0     0   502   501  0.000000000E+00  0.000000000E+00  1.385937076E+02  1.385937076E+02  0.000000000E+00  0.00000E+00  9.000E+00
      21    -1     0     0   501   512  0.000000000E+00  0.000000000E+00 -2.853690037E+02  2.853690037E+02  0.000000000E+00  0.00000E+00  9.000E+00
      25     1     1     2     0     0 -4.544162815E+01  5.627652640E+01  6.000854488E+01  1.563905830E+02  1.250000000E+02  0.00000E+00  9.000E+00
      25     1     1     2     0     0  1.800567898E+01 -4.587636739E+01 -1.929725192E+02  2.351430176E+02  1.250000000E+02  0.00000E+00  9.000E+00
      21     1     1     2   502   512  2.743594916E+01 -1.040015901E+01 -1.381132169E+01  3.242911070E+01  6.951036328E-07  0.00000E+00  9.000E+00
#rwgt            1           1   2.1482926965926630E-002           7      440932           0
</event>
<event>
      5   9999  3.79277E-02  5.92285E+01 -1.00000E+00  1.35004E-01
      21    -1     0     0   502   501  0.000000000E+00  0.000000000E+00  6.397007532E+01  6.397007532E+01  0.000000000E+00  0.00000E+00  9.000E+00
      21    -1     0     0   501   511  0.000000000E+00  0.000000000E+00 -2.170416096E+03  2.170416096E+03  0.000000000E+00  0.00000E+00  9.000E+00
      25     1     1     2     0     0  2.050773852E+02 -3.651151301E+01 -3.697749236E+02  4.424345360E+02  1.250000000E+02  0.00000E+00  9.000E+00
      25     1     1     2     0     0 -1.683329045E+02 -9.941218715E+00 -3.810636585E+02  4.350509239E+02  1.250000000E+02  0.00000E+00  9.000E+00
      21     1     1     2   502   511 -3.674448078E+01  4.645273172E+01 -1.355607438E+03  1.356900711E+03  1.525878906E-05  0.00000E+00  9.000E+00
#rwgt            1           1   2.5934689089046722E-002           7      441117           0
</event>
<event>
      5   9999  3.79277E-02  1.37400E+01 -1.00000E+00  1.81050E-01
      21    -1     0     0   502   501  0.000000000E+00  0.000000000E+00  1.681568193E+03  1.681568193E+03  0.000000000E+00  0.00000E+00  9.000E+00
      21    -1     0     0   512   502  0.000000000E+00  0.000000000E+00 -8.090655382E+01  8.090655382E+01  0.000000000E+00  0.00000E+00  9.000E+00
      25     1     1     2     0     0  1.053378376E+02  3.364730915E+01  1.453120860E+03  1.462673386E+03  1.250000000E+02  0.00000E+00  9.000E+00
      25     1     1     2     0     0 -9.371454531E+01 -4.097435388E+01  1.933745408E+02  2.519524295E+02  1.250000000E+02  0.00000E+00  9.000E+00
      21     1     1     2   512   501 -1.162329224E+01  7.327044734E+00 -4.583376154E+01  4.784893106E+01  1.168007728E-06  0.00000E+00  9.000E+00
#rwgt            1           1   3.6446666545506989E-002           7      441257           0
</event>
<event>
      5   9999  3.79277E-02  2.62883E+01 -1.00000E+00  1.57134E-01
      21    -1     0     0   502   501  0.000000000E+00  0.000000000E+00  7.640060544E+01  7.640060544E+01  0.000000000E+00  0.00000E+00  9.000E+00
      21    -1     0     0   501   511  0.000000000E+00  0.000000000E+00 -5.798605068E+02  5.798605068E+02  0.000000000E+00  0.00000E+00  9.000E+00
      25     1     1     2     0     0  3.146626231E+01  1.148950231E+02 -1.822885692E+02  2.510878620E+02  1.250000000E+02  0.00000E+00  9.000E+00
      25     1     1     2     0     0 -1.283071906E+01 -1.334365669E+02 -1.644089523E+02  2.462219493E+02  1.250000000E+02  0.00000E+00  9.000E+00
      21     1     1     2   502   511 -1.863554325E+01  1.854154377E+01 -1.567623798E+02  1.589513008E+02  2.697398305E-06  0.00000E+00  9.000E+00
#rwgt            1           1   4.0021426251195362E-002           7      441449           0
</event>
<event>
      5   9999  3.79277E-02  7.73733E+01 -1.00000E+00  1.29055E-01
      21    -1     0     0   502   512  0.000000000E+00  0.000000000E+00  1.296908618E+02  1.296908618E+02  0.000000000E+00  0.00000E+00  9.000E+00
      21    -1     0     0   501   502  0.000000000E+00  0.000000000E+00 -6.155784817E+02  6.155784817E+02  0.000000000E+00  0.00000E+00  9.000E+00
      25     1     1     2     0     0 -2.386880336E+01  1.652255427E+02 -6.037790151E+01  2.171167675E+02  1.250000000E+02  0.00000E+00  9.000E+00
      25     1     1     2     0     0  9.548295307E+01 -1.359332068E+02 -3.922434212E+02  4.439309997E+02  1.250000000E+02  0.00000E+00  9.000E+00
      21     1     1     2   501   512 -7.161414971E+01 -2.929233589E+01 -3.326629720E+01  8.422157628E+01  4.768371582E-07  0.00000E+00  9.000E+00
#rwgt            1           1   8.2867937417796897E-002           7      441643           0
</event>
<event>
      5   9999  3.79277E-02  1.97467E+01 -1.00000E+00  1.66827E-01
      21    -1     0     0   502   511  0.000000000E+00  0.000000000E+00  3.481198256E+02  3.481198256E+02  0.000000000E+00  0.00000E+00  9.000E+00
      21    -1     0     0   501   502  0.000000000E+00  0.000000000E+00 -3.532567972E+02  3.532567972E+02  0.000000000E+00  0.00000E+00  9.000E+00
      25     1     1     2     0     0 -1.973059670E+02 -2.390668993E+01  5.761552527E+01  2.417555029E+02  1.250000000E+02  0.00000E+00  9.000E+00
      25     1     1     2     0     0  2.095703328E+02  3.938301069E+01 -2.018539838E+02  3.191250173E+02  1.250000000E+02  0.00000E+00  9.000E+00
      21     1     1     2   501   511 -1.226436578E+01 -1.547632076E+01  1.391014869E+02  1.404961025E+02  1.907348633E-06  0.00000E+00  9.000E+00
#rwgt            1           1   3.8709859252426246E-002           7      441691           0
</event>
<event>
      5   9999  3.79277E-02  5.29100E+01 -1.00000E+00  1.37688E-01
      21    -1     0     0   502   501  0.000000000E+00  0.000000000E+00  1.437717492E+02  1.437717492E+02  0.000000000E+00  0.00000E+00  9.000E+00
      21    -1     0     0   512   502  0.000000000E+00  0.000000000E+00 -4.559991305E+02  4.559991305E+02  0.000000000E+00  0.00000E+00  9.000E+00
      25     1     1     2     0     0 -1.225190763E+02  9.582478521E+01 -1.443070203E+02  2.462576488E+02  1.250000000E+02  0.00000E+00  9.000E+00
      25     1     1     2     0     0  1.400916638E+02 -4.591813329E+01 -1.752002013E+01  1.940775627E+02  1.250000000E+02  0.00000E+00  9.000E+00
      21     1     1     2   512   501 -1.757258752E+01 -4.990665192E+01 -1.504003409E+02  1.594356682E+02  2.697398305E-06  0.00000E+00  9.000E+00
#rwgt            1           1   3.8239161784298120E-002           7      441891           0
</event>
<event>
      5   9999  3.79277E-02  5.86119E+00 -1.00000E+00  2.27062E-01
      21    -1     0     0   502   501  0.000000000E+00  0.000000000E+00  1.307956252E+03  1.307956252E+03  0.000000000E+00  0.00000E+00  9.000E+00
      21    -1     0     0   501   511  0.000000000E+00  0.000000000E+00 -9.384216056E+01  9.384216056E+01  0.000000000E+00  0.00000E+00  9.000E+00
      25     1     1     2     0     0  6.702100434E+01  2.997829185E+02  4.530892734E+02  5.614948824E+02  1.250000000E+02  0.00000E+00  9.000E+00
      25     1     1     2     0     0 -7.265654878E+01 -2.981722556E+02  7.646811305E+02  8.333954040E+02  1.250000000E+02  0.00000E+00  9.000E+00
      21     1     1     2   502   511  5.635544439E+00 -1.610662915E+00 -3.656312031E+00  6.908126650E+00  1.332800375E-07  0.00000E+00  9.000E+00
#rwgt            1           1   3.8766167416146233E-002           7      442041           0
</event>
<event>
      5   9999  3.79277E-02  5.69828E+01 -1.00000E+00  1.35912E-01
      21    -1     0     0   512   501  0.000000000E+00  0.000000000E+00  1.865237925E+03  1.865237925E+03  0.000000000E+00  0.00000E+00  9.000E+00
      21    -1     0     0   501   502  0.000000000E+00  0.000000000E+00 -2.736100980E+01  2.736100980E+01  0.000000000E+00  0.00000E+00  9.000E+00
      25     1     1     2     0     0  6.532912502E+01  7.359701915E+01  3.760819252E+02  4.083467035E+02  1.250000000E+02  0.00000E+00  9.000E+00
      25     1     1     2     0     0 -1.195483331E+02 -9.112733092E+01  9.978825252E+02  1.016853248E+03  1.250000000E+02  0.00000E+00  9.000E+00
      21     1     1     2   512   502  5.421920805E+01  1.753031177E+01  4.639124649E+02  4.673989831E+02  0.000000000E+00  0.00000E+00  9.000E+00
#rwgt            1           1   5.0683728129361817E-002           7      442724           0
</event>
<event>
      5   9999 -3.79277E-02  3.47440E+01 -1.00000E+00  1.48739E-01
      21    -1     0     0   511   501  0.000000000E+00  0.000000000E+00  1.284075883E+03  1.284075883E+03  0.000000000E+00  0.00000E+00  9.000E+00
      21    -1     0     0   501   502  0.000000000E+00  0.000000000E+00 -6.774742355E+01  6.774742355E+01  0.000000000E+00  0.00000E+00  9.000E+00
      25     1     1     2     0     0  1.741814093E+02 -4.714957300E+01  2.508365602E+02  3.333260049E+02  1.250000000E+02  0.00000E+00  9.000E+00
      25     1     1     2     0     0 -1.707347071E+02  1.257691784E+01  4.067031645E+02  4.586294617E+02  1.250000000E+02  0.00000E+00  9.000E+00
      21     1     1     2   511   502 -3.446702281E+00  3.457265516E+01  5.587887350E+02  5.598678403E+02  7.629394531E-06  0.00000E+00  9.000E+00
#rwgt            1           1  -6.9515188376511231E-002           7      442903           0
</event>
<event>
      5   9999  3.79277E-02  2.77046E+01 -1.00000E+00  1.55480E-01
      21    -1     0     0   512   501  0.000000000E+00  0.000000000E+00  3.385639378E+02  3.385639378E+02  0.000000000E+00  0.00000E+00  9.000E+00
      21    -1     0     0   501   502  0.000000000E+00  0.000000000E+00 -4.470002460E+02  4.470002460E+02  0.000000000E+00  0.00000E+00  9.000E+00
      25     1     1     2     0     0  2.323279612E+02  7.788211258E+01 -6.366841172E+01  2.823483162E+02  1.250000000E+02  0.00000E+00  9.000E+00
      25     1     1     2     0     0 -2.538337945E+02 -9.534757513E+01 -1.909612388E+02  3.544205835E+02  1.250000000E+02  0.00000E+00  9.000E+00
      21     1     1     2   512   502  2.150583333E+01  1.746546256E+01  1.461933423E+02  1.487952841E+02  0.000000000E+00  0.00000E+00  9.000E+00
#rwgt            1           1   7.1404315816253311E-002           7      443200           0
</event>
<event>
      5   9999  3.79277E-02  7.73448E+01 -1.00000E+00  1.29063E-01
      21    -1     0     0   502   501  0.000000000E+00  0.000000000E+00  8.233666322E+02  8.233666322E+02  0.000000000E+00  0.00000E+00  9.000E+00
      21    -1     0     0   501   511  0.000000000E+00  0.000000000E+00 -9.475180130E+01  9.475180130E+01  0.000000000E+00  0.00000E+00  9.000E+00
      25     1     1     2     0     0 -1.595974115E+02  1.489617008E+02  5.162662336E+02  5.742967404E+02  1.250000000E+02  0.00000E+00  9.000E+00
      25     1     1     2     0     0  1.227668868E+02 -8.094902376E+01  1.549508531E+02  2.475059995E+02  1.250000000E+02  0.00000E+00  9.000E+00
      21     1     1     2   502   511  3.683052477E+01 -6.801267701E+01  5.739774426E+01  9.631569361E+01  0.000000000E+00  0.00000E+00  9.000E+00
#rwgt            1           1   3.5667937591124160E-002           7      443365           0
</event>
<event>
      5   9999  3.79277E-02  2.24143E+02 -1.00000E+00  1.09875E-01
      21    -1     0     0   502   501  0.000000000E+00  0.000000000E+00  4.513799736E+02  4.513799736E+02  0.000000000E+00  0.00000E+00  9.000E+00
       1    -1     0     0   501     0  0.000000000E+00  0.000000000E+00 -2.007350230E+03  2.007350230E+03  0.000000000E+00  0.00000E+00  9.000E+00
      25     1     1     2     0     0 -1.765372909E+01 -8.277513429E+01  1.765989466E+02  2.323264190E+02  1.250000000E+02  0.00000E+00  9.000E+00
      25     1     1     2     0     0  2.393198116E+02  4.954535783E+01  1.619185479E+02  3.187025742E+02  1.250000000E+02  0.00000E+00  9.000E+00
       1     1     1     2   502     0 -2.216660825E+02  3.322977646E+01 -1.894487751E+03  1.907701211E+03  3.737624730E-05  0.00000E+00  9.000E+00
#rwgt            1           1   3.5298271935100080E-002           7      443588           0
</event>
<event>
      5   9999  3.79277E-02  1.92602E+02 -1.00000E+00  1.12247E-01
      21    -1     0     0   502   501  0.000000000E+00  0.000000000E+00  2.293723401E+03  2.293723401E+03  0.000000000E+00  0.00000E+00  9.000E+00
      21    -1     0     0   511   502  0.000000000E+00  0.000000000E+00 -5.861573618E+01  5.861573618E+01  0.000000000E+00  0.00000E+00  9.000E+00
      25     1     1     2     0     0  1.053578526E+02  2.431943231E+02  1.621870566E+03  1.648130118E+03  1.250000000E+02  0.00000E+00  9.000E+00
      25     1     1     2     0     0  7.133554207E+00 -8.685746657E+01  2.418945397E+02  2.858899709E+02  1.250000000E+02  0.00000E+00  9.000E+00
      21     1     1     2   511   501 -1.124914068E+02 -1.563368565E+02  3.713425598E+02  4.183190481E+02  0.000000000E+00  0.00000E+00  9.000E+00
#rwgt            1           1   4.2424822775697542E-002           7      443668           0
</event>
<event>
      5   9999  3.79277E-02  1.29368E+01 -1.00000E+00  1.83660E-01
      21    -1     0     0   502   501  0.000000000E+00  0.000000000E+00  1.161443170E+02  1.161443170E+02  0.000000000E+00  0.00000E+00  9.000E+00
      21    -1     0     0   512   502  0.000000000E+00  0.000000000E+00 -8.413451341E+02  8.413451341E+02  0.000000000E+00  0.00000E+00  9.000E+00
      25     1     1     2     0     0  9.459029843E+01 -5.616596831E+01  1.839959871E+01  1.675275672E+02  1.250000000E+02  0.00000E+00  9.000E+00
      25     1     1     2     0     0 -8.683400806E+01  4.581221121E+01 -2.503712551E+02  2.965630945E+02  1.250000000E+02  0.00000E+00  9.000E+00
      21     1     1     2   512   501 -7.756290372E+00  1.035375710E+01 -4.932291607E+02  4.933987893E+02  5.394796609E-06  0.00000E+00  9.000E+00
#rwgt            1           1   4.8339689854444270E-002           7      443818           0
</event>
<event>
      5   9999  3.79277E-02  1.30200E+02 -1.00000E+00  1.18883E-01
      21    -1     0     0   502   501  0.000000000E+00  0.000000000E+00  5.975680787E+02  5.975680787E+02  0.000000000E+00  0.00000E+00  9.000E+00
      21    -1     0     0   511   502  0.000000000E+00  0.000000000E+00 -2.399431630E+02  2.399431630E+02  0.000000000E+00  0.00000E+00  9.000E+00
      25     1     1     2     0     0 -5.847207292E+01  1.352478862E+02  2.457834945E+02  3.126427677E+02  1.250000000E+02  0.00000E+00  9.000E+00
      25     1     1     2     0     0 -7.031018190E+01 -1.160844721E+02  2.655933991E+02  3.233944650E+02  1.250000000E+02  0.00000E+00  9.000E+00
      21     1     1     2   511   501  1.287822548E+02 -1.916341405E+01 -1.537519779E+02  2.014740090E+02  3.303624740E-06  0.00000E+00  9.000E+00
#rwgt            1           1   3.3026712219927749E-002           7      443997           0
</event>
<event>
      5   9999  3.79277E-02  6.98013E+01 -1.00000E+00  1.31283E-01
      21    -1     0     0   502   501  0.000000000E+00  0.000000000E+00  7.388349549E+02  7.388349549E+02  0.000000000E+00  0.00000E+00  9.000E+00
      21    -1     0     0   501   512  0.000000000E+00  0.000000000E+00 -2.643043272E+02  2.643043272E+02  0.000000000E+00  0.00000E+00  9.000E+00
      25     1     1     2     0     0 -9.780958536E+01  8.362594837E+01  3.553498485E+02  3.980684980E+02  1.250000000E+02  0.00000E+00  9.000E+00
      25     1     1     2     0     0  1.333743854E+02 -1.436873412E+02  3.182403724E+02  3.941277881E+02  1.250000000E+02  0.00000E+00  9.000E+00
      21     1     1     2   502   512 -3.556480006E+01  6.006139287E+01 -1.990595932E+02  2.109429960E+02  5.394796609E-06  0.00000E+00  9.000E+00
#rwgt            1           1   4.7091791761309697E-002           7      444055           0
</event>
<event>
      5   9999  3.79277E-02  6.51485E+01 -1.00000E+00  1.32820E-01
      21    -1     0     0   502   501  0.000000000E+00  0.000000000E+00  6.878332562E+02  6.878332562E+02  0.000000000E+00  0.00000E+00  9.000E+00
      21    -1     0     0   511   502  0.000000000E+00  0.000000000E+00 -1.922699160E+02  1.922699160E+02  0.000000000E+00  0.00000E+00  9.000E+00
      25     1     1     2     0     0  1.454125580E+01  2.117559719E+02  1.957025655E+02  3.146053621E+02  1.250000000E+02  0.00000E+00  9.000E+00
      25     1     1     2     0     0  4.918427571E+01 -1.982138879E+02  3.879755406E+02  4.559143104E+02  1.250000000E+02  0.00000E+00  9.000E+00
      21     1     1     2   511   501 -6.372553151E+01 -1.354208395E+01 -8.811476592E+01  1.095834996E+02  9.536743164E-07  0.00000E+00  9.000E+00
#rwgt            1           1   2.7110545845886163E-002           7      444230           0
</event>
<event>
      5   9999  3.79277E-02  8.22660E+01 -1.00000E+00  1.27765E-01
      -1    -1     0     0     0   501  0.000000000E+00  0.000000000E+00  9.700134846E+01  9.700134846E+01  0.000000000E+00  0.00000E+00  9.000E+00
      21    -1     0     0   501   502  0.000000000E+00  0.000000000E+00 -9.737542463E+02  9.737542463E+02  0.000000000E+00  0.00000E+00  9.000E+00
      25     1     1     2     0     0 -5.415578523E+01 -7.449835382E+01 -8.012789318E+02  8.161836683E+02  1.250000000E+02  0.00000E+00  9.000E+00
      25     1     1     2     0     0 -2.525068222E+01  9.599985442E+01 -6.185659607E+01  1.711864699E+02  1.250000000E+02  0.00000E+00  9.000E+00
      -1     1     1     2     0   502  7.940646745E+01 -2.150150060E+01 -1.361736993E+01  8.338545655E+01  1.238859277E-06  0.00000E+00  9.000E+00
#rwgt            1           1   4.4912051415615030E-002           7      444360           0
</event>
<event>
      5   9999  3.79277E-02  2.90637E+01 -1.00000E+00  1.54002E-01
      21    -1     0     0   502   511  0.000000000E+00  0.000000000E+00  8.360962089E+01  8.360962089E+01  0.000000000E+00  0.00000E+00  9.000E+00
      21    -1     0     0   501   502  0.000000000E+00  0.000000000E+00 -1.106498808E+03  1.106498808E+03  0.000000000E+00  0.00000E+00  9.000E+00
      25     1     1     2     0     0 -6.284300939E+01 -2.121296735E+02 -8.030464114E+02  8.422925745E+02  1.250000000E+02  0.00000E+00  9.000E+00
      25     1     1     2     0     0  3.562954218E+01  2.019255078E+02 -2.011819760E+02  3.132771336E+02  1.250000000E+02  0.00000E+00  9.000E+00
      21     1     1     2   501   511  2.721346722E+01  1.020416572E+01 -1.866080006E+01  3.453872109E+01  7.152557373E-07  0.00000E+00  9.000E+00
#rwgt            1           1   3.9115515354844796E-002           7      444422           0
</event>
<event>
      5   9999  3.79277E-02  3.35400E+01 -1.00000E+00  1.49750E-01
      21    -1     0     0   512   501  0.000000000E+00  0.000000000E+00  3.144179287E+02  3.144179287E+02  0.000000000E+00  0.00000E+00  9.000E+00
      21    -1     0     0   501   502  0.000000000E+00  0.000000000E+00 -3.772045690E+02  3.772045690E+02  0.000000000E+00  0.00000E+00  9.000E+00
      25     1     1     2     0     0  1.792453308E+02  1.978082800E+02 -1.425345293E+02  3.274112037E+02  1.250000000E+02  0.00000E+00  9.000E+00
      25     1     1     2     0     0 -1.632606897E+02 -2.272942815E+02  3.529491799E+01  3.085246739E+02  1.250000000E+02  0.00000E+00  9.000E+00
      21     1     1     2   512   502 -1.598464117E+01  2.948600150E+01  4.445297095E+01  5.568662015E+01  4.768371582E-07  0.00000E+00  9.000E+00
#rwgt            1           1   4.2992396569620395E-002           7      444573           0
</event>
<event>
      5   9999  3.79277E-02  1.31544E+01 -1.00000E+00  1.82929E-01
      21    -1     0     0   502   511  0.000000000E+00  0.000000000E+00  1.279460698E+03  1.279460698E+03  0.000000000E+00  0.00000E+00  9.000E+00
      21    -1     0     0   501   502  0.000000000E+00  0.000000000E+00 -2.778580180E+01  2.778580180E+01  0.000000000E+00  0.00000E+00  9.000E+00
      25     1     1     2     0     0 -3.305662787E+01 -1.074067993E+02  7.273782023E+02  7.465473933E+02  1.250000000E+02  0.00000E+00  9.000E+00
      25     1     1     2     0     0  3.829056006E+01  1.194751504E+02  4.233888804E+02  4.589374931E+02  1.250000000E+02  0.00000E+00  9.000E+00
      21     1     1     2   501   511 -5.233932194E+00 -1.206835110E+01  1.009078130E+02  1.017616129E+02  1.348699152E-06  0.00000E+00  9.000E+00
#rwgt            1           1   3.1907150073332530E-002           7      444768           0
</event>
<event>
      5   9999  3.79277E-02  6.90311E+01 -1.00000E+00  1.31528E-01
      21    -1     0     0   502   501  0.000000000E+00  0.000000000E+00  1.605777093E+03  1.605777093E+03  0.000000000E+00  0.00000E+00  9.000E+00
      21    -1     0     0   512   502  0.000000000E+00  0.000000000E+00 -7.721509026E+01  7.721509026E+01  0.000000000E+00  0.00000E+00  9.000E+00
      25     1     1     2     0     0  9.845790870E+01  5.307572313E+01  9.177010512E+02  9.329047173E+02  1.250000000E+02  0.00000E+00  9.000E+00
      25     1     1     2     0     0 -1.035552462E+02 -1.219183946E+02  6.427492021E+02  6.740469722E+02  1.250000000E+02  0.00000E+00  9.000E+00
      21     1     1     2   512   501  5.097337509E+00  6.884267149E+01 -3.188825009E+01  7.604049422E+01  2.454669509E-06  0.00000E+00  9.000E+00
#rwgt            1           1  0.43546308474248835                7      444983           0
</event>
<event>
      5   9999  3.79277E-02  7.50421E+01 -1.00000E+00  1.29709E-01
       2    -1     0     0   502     0  0.000000000E+00  0.000000000E+00  8.725302092E+01  8.725302092E+01  0.000000000E+00  0.00000E+00  9.000E+00
      21    -1     0     0   501   502  0.000000000E+00  0.000000000E+00 -1.208215181E+03  1.208215181E+03  0.000000000E+00  0.00000E+00  9.000E+00
      25     1     1     2     0     0  2.731478096E+00 -3.297742916E+01 -5.766102800E+01  1.415795393E+02  1.250000000E+02  0.00000E+00  9.000E+00
      25     1     1     2     0     0  7.121585551E+01  2.020619804E+01 -1.068816314E+03  1.078644196E+03  1.250000000E+02  0.00000E+00  9.000E+00
       2     1     1     2   501     0 -7.394733361E+01  1.277123112E+01  5.515182100E+00  7.524446641E+01  1.205429340E-06  0.00000E+00  9.000E+00
#rwgt            1           1   5.0749585292976934E-002           7      445075           0
</event>
<event>
      5   9999  3.79277E-02  1.28588E+02 -1.00000E+00  1.19108E-01
      21    -1     0     0   502   501  0.000000000E+00  0.000000000E+00  1.157300324E+03  1.157300324E+03  0.000000000E+00  0.00000E+00  9.000E+00
      21    -1     0     0   511   502  0.000000000E+00  0.000000000E+00 -9.603778487E+01  9.603778487E+01  0.000000000E+00  0.00000E+00  9.000E+00
      25     1     1     2     0     0 -1.507709987E+02  1.142596393E+02  2.370480782E+02  3.280304111E+02  1.250000000E+02  0.00000E+00  9.000E+00
      25     1     1     2     0     0  2.199123964E+02 -5.842309172E+00  7.084824219E+02  7.523084054E+02  1.250000000E+02  0.00000E+00  9.000E+00
      21     1     1     2   511   501 -6.914139768E+01 -1.084173301E+02  1.157320394E+02  1.729992928E+02  2.336015456E-06  0.00000E+00  9.000E+00
#rwgt            1           1   2.1807093115947172E-002           7      445152           0
</event>
<event>
      5   9999  3.79277E-02  9.96644E+01 -1.00000E+00  1.23894E-01
      21    -1     0     0   502   512  0.000000000E+00  0.000000000E+00  3.538754611E+02  3.538754611E+02  0.000000000E+00  0.00000E+00  9.000E+00
      21    -1     0     0   501   502  0.000000000E+00  0.000000000E+00 -2.517643788E+02  2.517643788E+02  0.000000000E+00  0.00000E+00  9.000E+00
      25     1     1     2     0     0  8.837098588E+01  8.141461966E+01  1.113901919E+02  2.060838332E+02  1.250000000E+02  0.00000E+00  9.000E+00
      25     1     1     2     0     0 -1.442336945E+02 -1.639515942E+02 -9.415144078E+01  2.686502888E+02  1.250000000E+02  0.00000E+00  9.000E+00
      21     1     1     2   501   512  5.586270865E+01  8.253697450E+01  8.487233117E+01  1.309057179E+02  1.651812370E-06  0.00000E+00  9.000E+00
#rwgt            1           1   3.5961530230842705E-002           7      445272           0
</event>
<event>
      5   9999  3.79277E-02  5.71714E+01 -1.00000E+00  1.35834E-01
      21    -1     0     0   502   501  0.000000000E+00  0.000000000E+00  2.119768190E+02  2.119768190E+02  0.000000000E+00  0.00000E+00  9.000E+00
      21    -1     0     0   501   511  0.000000000E+00  0.000000000E+00 -2.166697518E+02  2.166697518E+02  0.000000000E+00  0.00000E+00  9.000E+00
      25     1     1     2     0     0  9.242478382E+01 -8.687622654E+01 -6.160348013E+01  1.884404632E+02  1.250000000E+02  0.00000E+00  9.000E+00
      25     1     1     2     0     0 -1.060352594E+02  3.134849904E+01  7.093978707E+01  1.813385178E+02  1.250000000E+02  0.00000E+00  9.000E+00
      21     1     1     2   502   511  1.361047560E+01  5.552772750E+01 -1.402923977E+01  5.886758985E+01  9.078709013E-07  0.00000E+00  9.000E+00
#rwgt            1           1   4.3977809097029176E-002           7      445407           0
</event>
<event>
      5   9999  3.79277E-02  3.46723E+01 -1.00000E+00  1.48798E-01
      21    -1     0     0   512   501  0.000000000E+00  0.000000000E+00  4.182735125E+02  4.182735125E+02  0.000000000E+00  0.00000E+00  9.000E+00
      21    -1     0     0   501   502  0.000000000E+00  0.000000000E+00 -2.088778378E+02  2.088778378E+02  0.000000000E+00  0.00000E+00  9.000E+00
      25     1     1     2     0     0  1.753646835E+02  8.472930988E+01 -7.149329023E+01  2.422150258E+02  1.250000000E+02  0.00000E+00  9.000E+00
      25     1     1     2     0     0 -1.505233080E+02 -6.054096377E+01  1.621187361E+02  2.612086506E+02  1.250000000E+02  0.00000E+00  9.000E+00
      21     1     1     2   512   502 -2.484137548E+01 -2.418834611E+01  1.187702288E+02  1.237276738E+02  1.907348633E-06  0.00000E+00  9.000E+00
#rwgt            1           1   2.0711127993643805E-002           7      445508           0
</event>
<event>
      5   9999  3.79277E-02  5.61327E+01 -1.00000E+00  1.36268E-01
      21    -1     0     0   502   501  0.000000000E+00  0.000000000E+00  8.393421685E+02  8.393421685E+02  0.000000000E+00  0.00000E+00  9.000E+00
      21    -1     0     0   501   511  0.000000000E+00  0.000000000E+00 -8.408790986E+01  8.408790986E+01  0.000000000E+00  0.00000E+00  9.000E+00
      25     1     1     2     0     0 -1.306983322E+01  9.980628603E+01  9.348105487E+01  1.857305115E+02  1.250000000E+02  0.00000E+00  9.000E+00
      25     1     1     2     0     0  6.436612319E+01 -1.226003849E+02  6.551346797E+02  6.811756754E+02  1.250000000E+02  0.00000E+00  9.000E+00
      21     1     1     2   502   511 -5.129628997E+01  2.279409887E+01  6.638524076E+00  5.652389150E+01  9.794042543E-07  0.00000E+00  9.000E+00
#rwgt            2          11   1.8680477880150539E-003           7      445641           0
</event>
<event>
      5   9999  3.79277E-02  1.23268E+02 -1.00000E+00  1.19875E-01
      21    -1     0     0   502   512  0.000000000E+00  0.000000000E+00  1.177957075E+03  1.177957075E+03  0.000000000E+00  0.00000E+00  9.000E+00
      21    -1     0     0   501   502  0.000000000E+00  0.000000000E+00 -1.072456871E+02  1.072456871E+02  0.000000000E+00  0.00000E+00  9.000E+00
      25     1     1     2     0     0 -2.061666421E+02 -2.242817872E+01  4.043883587E+02  4.713413330E+02  1.250000000E+02  0.00000E+00  9.000E+00
      25     1     1     2     0     0  1.463511981E+02 -8.535446403E+01  9.784007845E+01  2.321674798E+02  1.250000000E+02  0.00000E+00  9.000E+00
      21     1     1     2   501   512  5.981544402E+01  1.077826427E+02  5.684829505E+02  5.816939491E+02  7.629394531E-06  0.00000E+00  9.000E+00
#rwgt            1           1   4.1696635145994337E-002           7      445736           0
</event>
<event>
      5   9999 -3.79277E-02  5.47274E+01 -1.00000E+00  1.36873E-01
      21    -1     0     0   502   501  0.000000000E+00  0.000000000E+00  8.326968532E+02  8.326968532E+02  0.000000000E+00  0.00000E+00  9.000E+00
      21    -1     0     0   511   502  0.000000000E+00  0.000000000E+00 -6.138139125E+01  6.138139125E+01  0.000000000E+00  0.00000E+00  9.000E+00
      25     1     1     2     0     0 -1.429253910E+02  4.434865280E+01  2.894720893E+02  3.490179951E+02  1.250000000E+02  0.00000E+00  9.000E+00
      25     1     1     2     0     0  1.219950683E+02 -9.491558297E+01  3.989089735E+02  4.456962348E+02  1.250000000E+02  0.00000E+00  9.000E+00
      21     1     1     2   511   501  2.093032266E+01  5.056693018E+01  8.293439920E+01  9.936401464E+01  9.536743164E-07  0.00000E+00  9.000E+00
#rwgt            1           1  -1.1564380304192851E-002           7      445917           0
</event>
<event>
      5   9999  3.79277E-02  1.02425E+02 -1.00000E+00  1.23362E-01
      21    -1     0     0   502   501  0.000000000E+00  0.000000000E+00  7.071971472E+02  7.071971472E+02  0.000000000E+00  0.00000E+00  9.000E+00
      21    -1     0     0   512   502  0.000000000E+00  0.000000000E+00 -1.881166507E+02  1.881166507E+02  0.000000000E+00  0.00000E+00  9.000E+00
      25     1     1     2     0     0 -5.528609231E+01  1.255613882E+02  3.382911278E+02  3.858602096E+02  1.250000000E+02  0.00000E+00  9.000E+00
      25     1     1     2     0     0  5.355667860E+00 -2.149914323E+02  2.746334587E+02  3.705381705E+02  1.250000000E+02  0.00000E+00  9.000E+00
      21     1     1     2   512   501  4.993042445E+01  8.943004418E+01 -9.384409002E+01  1.389154179E+02  3.015782986E-06  0.00000E+00  9.000E+00
#rwgt            1           1   4.3409863467553600E-002           7      446071           0
</event>
<event>
      5   9999  3.79277E-02  9.77990E+01 -1.00000E+00  1.24264E-01
      21    -1     0     0   502   501  0.000000000E+00  0.000000000E+00  2.860598888E+03  2.860598888E+03  0.000000000E+00  0.00000E+00  9.000E+00
      21    -1     0     0   511   502  0.000000000E+00  0.000000000E+00 -8.386844624E+01  8.386844624E+01  0.000000000E+00  0.00000E+00  9.000E+00
      25     1     1     2     0     0 -6.888579532E+01  1.597484952E+02  9.457121062E+02  9.696706772E+02  1.250000000E+02  0.00000E+00  9.000E+00
      25     1     1     2     0     0  1.612528256E+02 -1.918883930E+02  1.853420895E+03  1.874464628E+03  1.250000000E+02  0.00000E+00  9.000E+00
      21     1     1     2   511   501 -9.236703026E+01  3.213989780E+01 -2.240255935E+01  1.003320287E+02  5.174287418E-06  0.00000E+00  9.000E+00
#rwgt            2          11   4.0145077602608634E-003           7      446179           0
</event>
<event>
      5   9999  3.79277E-02  1.88506E+01 -1.00000E+00  1.68518E-01
      21    -1     0     0   502   512  0.000000000E+00  0.000000000E+00  8.769978759E+02  8.769978759E+02  0.000000000E+00  0.00000E+00  9.000E+00
      21    -1     0     0   501   502  0.000000000E+00  0.000000000E+00 -1.360298395E+02  1.360298395E+02  0.000000000E+00  0.00000E+00  9.000E+00
      25     1     1     2     0     0 -1.026245698E+02  1.346739492E+02 -1.188133976E+01  2.107962076E+02  1.250000000E+02  0.00000E+00  9.000E+00
      25     1     1     2     0     0  1.212745514E+02 -1.319309241E+02  4.650864978E+02  5.138518620E+02  1.250000000E+02  0.00000E+00  9.000E+00
      21     1     1     2   501   512 -1.864998158E+01 -2.743025037E+00  2.877628783E+02  2.883796458E+02  3.814697266E-06  0.00000E+00  9.000E+00
#rwgt            1           1   3.1662816306885604E-002           7      446199           0
</event>
<event>
      5   9999  3.79277E-02  1.53783E+01 -1.00000E+00  1.76370E-01
      21    -1     0     0   502   501  0.000000000E+00  0.000000000E+00  2.083172700E+01  2.083172700E+01  0.000000000E+00  0.00000E+00  9.000E+00
       2    -1     0     0   501     0  0.000000000E+00  0.000000000E+00 -3.388652206E+03  3.388652206E+03  0.000000000E+00  0.00000E+00  9.000E+00
      25     1     1     2     0     0 -1.277478610E+02  7.408347230E+01 -9.755874698E+02  9.945872451E+02  1.250000000E+02  0.00000E+00  9.000E+00
      25     1     1     2     0     0  1.430024329E+02 -7.213636413E+01 -9.025804693E+02  9.251647715E+02  1.250000000E+02  0.00000E+00  9.000E+00
       2     1     1     2   502     0 -1.525457192E+01 -1.947108167E+00 -1.489652540E+03  1.489731916E+03  2.157918644E-05  0.00000E+00  9.000E+00
#rwgt            1           1   7.8415396389595840E-002           7      446338           0
</event>
<event>
      5   9999  3.79277E-02  6.07226E+01 -1.00000E+00  1.34426E-01
      21    -1     0     0   502   501  0.000000000E+00  0.000000000E+00  1.342455267E+03  1.342455267E+03  0.000000000E+00  0.00000E+00  9.000E+00
      21    -1     0     0   511   502  0.000000000E+00  0.000000000E+00 -2.127141171E+02  2.127141171E+02  0.000000000E+00  0.00000E+00  9.000E+00
      25     1     1     2     0     0 -9.896993969E+01 -2.617610545E+02  5.500765401E+02  6.297008009E+02  1.250000000E+02  0.00000E+00  9.000E+00
      25     1     1     2     0     0  1.134570563E+02  2.027919519E+02  7.230849058E+02  7.697232362E+02  1.250000000E+02  0.00000E+00  9.000E+00
      21     1     1     2   511   501 -1.448711665E+01  5.896910264E+01 -1.434202964E+02  1.557453467E+02  3.303624740E-06  0.00000E+00  9.000E+00
#rwgt            1           1   2.4159399285250675E-002           7      446483           0
</event>
<event>
      5   9999  3.79277E-02  8.77456E+01 -1.00000E+00  1.26436E-01
      21    -1     0     0   502   501  0.000000000E+00  0.000000000E+00  1.545371484E+02  1.545371484E+02  0.000000000E+00  0.00000E+00  9.000E+00
       2    -1     0     0   501     0  0.000000000E+00  0.000000000E+00 -3.752120749E+03  3.752120749E+03  0.000000000E+00  0.00000E+00  9.000E+00
      25     1     1     2     0     0  1.060682518E+01  3.897792588E+01  1.072905816E+02  1.696114747E+02  1.250000000E+02  0.00000E+00  9.000E+00
      25     1     1     2     0     0 -9.776504715E+01 -2.884169915E+01 -4.040074281E+02  4.350136205E+02  1.250000000E+02  0.00000E+00  9.000E+00
       2     1     1     2   502     0  8.715822198E+01 -1.013622673E+01 -3.300866754E+03  3.302032802E+03  7.475249459E-05  0.00000E+00  9.000E+00
#rwgt            1           1   3.6955387084299844E-002           7      446599           0
</event>
<event>
      5   9999  3.79277E-02  1.81100E+01 -1.00000E+00  1.70007E-01
      21    -1     0     0   502   501  0.000000000E+00  0.000000000E+00  1.315778517E+02  1.315778517E+02  0.000000000E+00  0.00000E+00  9.000E+00
      21    -1     0     0   501   511  0.000000000E+00  0.000000000E+00 -2.985249989E+02  2.985249989E+02  0.000000000E+00  0.00000E+00  9.000E+00
      25     1     1     2     0     0 -8.521651576E+01 -2.841204144E+01 -1.928105445E+02  2.467184726E+02  1.250000000E+02  0.00000E+00  9.000E+00
      25     1     1     2     0     0  9.074175320E+01  1.116549741E+01  4.052746064E+01  1.600818827E+02  1.250000000E+02  0.00000E+00  9.000E+00
      21     1     1     2   502   511 -5.525237433E+00  1.724654404E+01 -1.466406341E+01  2.330249526E+01  3.371747881E-07  0.00000E+00  9.000E+00
#rwgt            1           1   4.9461453105671752E-002           7      446730           0
</event>
<event>
      5   9999  3.79277E-02  1.18803E+02 -1.00000E+00  1.20553E-01
       1    -1     0     0   502     0  0.000000000E+00  0.000000000E+00  6.642793485E+02  6.642793485E+02  0.000000000E+00  0.00000E+00  9.000E+00
      21    -1     0     0   501   502  0.000000000E+00  0.000000000E+00 -1.342238752E+03  1.342238752E+03  0.000000000E+00  0.00000E+00  9.000E+00
      25     1     1     2     0     0  1.605810571E+02  1.017594202E+02 -4.960358050E+02  5.457268322E+02  1.250000000E+02  0.00000E+00  9.000E+00
      25     1     1     2     0     0 -7.534215467E+01 -1.845151259E+02 -7.987254665E+02  8.326521739E+02  1.250000000E+02  0.00000E+00  9.000E+00
       1     1     1     2   501     0 -8.523890244E+01  8.275570578E+01  6.168018681E+02  6.281390943E+02  0.000000000E+00  0.00000E+00  9.000E+00
#rwgt            1           1  0.16763333152427745                7      446885           0
</event>
<event>
      5   9999  3.79277E-02  4.09142E+02 -1.00000E+00  1.01391E-01
      21    -1     0     0   511   501  0.000000000E+00  0.000000000E+00  5.420144562E+02  5.420144562E+02  0.000000000E+00  0.00000E+00  9.000E+00
      21    -1     0     0   501   502  0.000000000E+00  0.000000000E+00 -2.106716765E+03  2.106716765E+03  0.000000000E+00  0.00000E+00  9.000E+00
      25     1     1     2     0     0  3.527219701E+01 -5.182864521E+02 -1.236800286E+03  1.347280566E+03  1.250000000E+02  0.00000E+00  9.000E+00
      25     1     1     2     0     0  1.438208473E+02  1.504244243E+02 -7.046335758E+02  7.452821075E+02  1.250000000E+02  0.00000E+00  9.000E+00
      21     1     1     2   511   502 -1.790930443E+02  3.678620278E+02  3.767315537E+02  5.561685478E+02  5.394796609E-06  0.00000E+00  9.000E+00
#rwgt            2          11   2.3913438283532061E-003           7      446937           0
</event>
<event>
      5   9999  3.79277E-02  5.51497E+01 -1.00000E+00  1.36689E-01
      21    -1     0     0   512   501  0.000000000E+00  0.000000000E+00  1.313765313E+03  1.313765313E+03  0.000000000E+00  0.00000E+00  9.000E+00
      21    -1     0     0   501   502  0.000000000E+00  0.000000000E+00 -6.982679634E+02  6.982679634E+02  0.000000000E+00  0.00000E+00  9.000E+00
      25     1     1     2     0     0 -6.816278592E+01 -7.208100722E+01 -6.419900076E+02  6.615270265E+02  1.250000000E+02  0.00000E+00  9.000E+00
      25     1     1     2     0     0  1.330245862E+01  7.772272576E+01  7.318526592E+01  1.649207708E+02  1.250000000E+02  0.00000E+00  9.000E+00
      21     1     1     2   512   502  5.486032730E+01 -5.641718541E+00  1.184302091E+03  1.185585479E+03  1.525878906E-05  0.00000E+00  9.000E+00
#rwgt            1           1   3.1572680680125802E-002           7      447017           0
</event>
<event>
      5   9999  3.79277E-02  3.42648E+01 -1.00000E+00  1.49136E-01
      21    -1     0     0   502   511  0.000000000E+00  0.000000000E+00  2.095712934E+02  2.095712934E+02  0.000000000E+00  0.00000E+00  9.000E+00
      21    -1     0     0   501   502  0.000000000E+00  0.000000000E+00 -2.319571921E+02  2.319571921E+02  0.000000000E+00  0.00000E+00  9.000E+00
      25     1     1     2     0     0  7.808292817E+01  2.779909605E+01  1.017190273E+02  1.812222225E+02  1.250000000E+02  0.00000E+00  9.000E+00
      25     1     1     2     0     0 -1.099462319E+02 -4.040105857E+01 -1.412150177E+02  2.220069834E+02  1.250000000E+02  0.00000E+00  9.000E+00
      21     1     1     2   501   511  3.186330376E+01  1.260196252E+01  1.711009168E+01  3.829927967E+01  9.233911863E-07  0.00000E+00  9.000E+00
#rwgt            1           1   3.7582636148644273E-002           7      447286           0
</event>
<event>
      5   9999  3.79277E-02  1.47784E+01 -1.00000E+00  1.77995E-01
      21    -1     0     0   512   501  0.000000000E+00  0.000000000E+00  6.715709214E+02  6.715709214E+02  0.000000000E+00  0.00000E+00  9.000E+00
      21    -1     0     0   501   502  0.000000000E+00  0.000000000E+00 -8.834300543E+01  8.834300543E+01  0.000000000E+00  0.00000E+00  9.000E+00
      25     1     1     2     0     0  1.555633433E+02 -1.630334947E+01  3.558165329E+02  4.082844083E+02  1.250000000E+02  0.00000E+00  9.000E+00
      25     1     1     2     0     0 -1.670021660E+02  6.946226719E+00  1.151010755E+02  2.383510669E+02  1.250000000E+02  0.00000E+00  9.000E+00
      21     1     1     2   512   502  1.143882270E+01  9.357122750E+00  1.123103075E+02  1.132784516E+02  0.000000000E+00  0.00000E+00  9.000E+00
#rwgt            1           1   3.1955431443376051E-002           7      447360           0
</event>
<event>
      5   9999  3.79277E-02  9.51396E+00 -1.00000E+00  1.98292E-01
      21    -1     0     0   502   501  0.000000000E+00  0.000000000E+00  1.834896038E+03  1.834896038E+03  0.000000000E+00  0.00000E+00  9.000E+00
      21    -1     0     0   511   502  0.000000000E+00  0.000000000E+00 -4.637155613E+01  4.637155613E+01  0.000000000E+00  0.00000E+00  9.000E+00
      25     1     1     2     0     0  2.328469353E+02  9.827319049E+01  1.019105351E+03  1.057391144E+03  1.250000000E+02  0.00000E+00  9.000E+00
      25     1     1     2     0     0 -2.263261807E+02 -1.052010417E+02  7.628493642E+02  8.123145645E+02  1.250000000E+02  0.00000E+00  9.000E+00
      21     1     1     2   511   501 -6.520754624E+00  6.927851170E+00  6.569766656E+00  1.156188551E+01  3.039252468E-07  0.00000E+00  9.000E+00
#rwgt            1           1   3.5088072184450335E-002           7      447828           0
</event>
<event>
      5   9999  3.79277E-02  4.96303E+01 -1.00000E+00  1.39260E-01
      21    -1     0     0   502   512  0.000000000E+00  0.000000000E+00  7.880572784E+02  7.880572784E+02  0.000000000E+00  0.00000E+00  9.000E+00
      21    -1     0     0   501   502  0.000000000E+00  0.000000000E+00 -1.176057346E+02  1.176057346E+02  0.000000000E+00  0.00000E+00  9.000E+00
      25     1     1     2     0     0  1.282961255E+01  2.958627933E+01  3.238684739E+02  3.486484408E+02  1.250000000E+02  0.00000E+00  9.000E+00
      25     1     1     2     0     0  3.399656867E+00  1.731547665E+01 -6.531637620E+01  1.421358941E+02  1.250000000E+02  0.00000E+00  9.000E+00
      21     1     1     2   501   512 -1.622926942E+01 -4.690175598E+01  4.118994461E+02  4.148786781E+02  5.394796609E-06  0.00000E+00  9.000E+00
#rwgt            1           1   4.8028254904711278E-002           7      448140           0
</event>
<event>
      5   9999  3.79277E-02  3.05781E+01 -1.00000E+00  1.52466E-01
      21    -1     0     0   502   511  0.000000000E+00  0.000000000E+00  2.467992970E+02  2.467992970E+02  0.000000000E+00  0.00000E+00  9.000E+00
      21    -1     0     0   501   502  0.000000000E+00  0.000000000E+00 -3.005911560E+02  3.005911560E+02  0.000000000E+00  0.00000E+00  9.000E+00
      25     1     1     2     0     0  1.947823836E+01 -9.410758445E-01  1.222805583E+02  1.759483513E+02  1.250000000E+02  0.00000E+00  9.000E+00
      25     1     1     2     0     0 -3.193300480E+01 -2.698557068E+01 -2.548614989E+02  2.869273801E+02  1.250000000E+02  0.00000E+00  9.000E+00
      21     1     1     2   501   511  1.245476644E+01  2.792664653E+01  7.878908154E+01  8.451472158E+01  9.536743164E-07  0.00000E+00  9.000E+00
#rwgt            1           1   3.7147395066583086E-002           7      448372           0
</event>
<event>
      5   9999  3.79277E-02  2.87813E+01 -1.00000E+00  1.54301E-01
      21    -1     0     0   502   501  0.000000000E+00  0.000000000E+00  2.685529586E+02  2.685529586E+02  0.000000000E+00  0.00000E+00  9.000E+00
      21    -1     0     0   501   512  0.000000000E+00  0.000000000E+00 -2.731553891E+02  2.731553891E+02  0.000000000E+00  0.00000E+00  9.000E+00
      25     1     1     2     0     0  9.744078208E+01 -1.164910864E+02 -1.586331931E+01  1.973360690E+02  1.250000000E+02  0.00000E+00  9.000E+00
      25     1     1     2     0     0 -8.168169365E+01  9.240762852E+01  1.323610926E+02  2.198989034E+02  1.250000000E+02  0.00000E+00  9.000E+00
      21     1     1     2   502   512 -1.575908843E+01  2.408345785E+01 -1.211002038E+02  1.244733754E+02  1.348699152E-06  0.00000E+00  9.000E+00
#rwgt            1           1   2.7052471045076413E-002           7      448502           0
</event>
<event>
      5   9999  3.79277E-02  7.07146E+01 -1.00000E+00  1.30998E-01
      21    -1     0     0   511   501  0.000000000E+00  0.000000000E+00  7.947397342E+02  7.947397342E+02  0.000000000E+00  0.00000E+00  9.000E+00
      21    -1     0     0   501   502  0.000000000E+00  0.000000000E+00 -8.338802514E+01  8.338802514E+01  0.000000000E+00  0.00000E+00  9.000E+00
      25     1     1     2     0     0  7.347573444E+01 -1.148244165E+02  1.548664303E+02  2.412300591E+02  1.250000000E+02  0.00000E+00  9.000E+00
      25     1     1     2     0     0 -1.337133735E+02  1.518647029E+02  4.515861638E+02  5.103892804E+02  1.250000000E+02  0.00000E+00  9.000E+00
      21     1     1     2   511   502  6.023763903E+01 -3.704028638E+01  1.048991150E+02  1.265084199E+02  1.348699152E-06  0.00000E+00  9.000E+00
#rwgt            1           1   3.7267782026407160E-002           7      448738           0
</event>
<event>
      5   9999  3.79277E-02  1.38228E+01 -1.00000E+00  1.80794E-01
      21    -1     0     0   502   512  0.000000000E+00  0.000000000E+00  1.048174658E+02  1.048174658E+02  0.000000000E+00  0.00000E+00  9.000E+00
      21    -1     0     0   501   502  0.000000000E+00  0.000000000E+00 -4.042807682E+02  4.042807682E+02  0.000000000E+00  0.00000E+00  9.000E+00
      25     1     1     2     0     0 -8.669868009E+01  1.036886024E+02 -2.506862794E+02  3.110250763E+02  1.250000000E+02  0.00000E+00  9.000E+00
      25     1     1     2     0     0  7.989363485E+01 -9.165688890E+01 -5.509036590E+01  1.828768071E+02  1.250000000E+02  0.00000E+00  9.000E+00
      21     1     1     2   501   512  6.805045239E+00 -1.203171350E+01  6.313342897E+00  1.519635052E+01  2.920019320E-07  0.00000E+00  9.000E+00
#rwgt            1           1   3.2271005127213960E-002           7      448827           0
</event>
<event>
      5   9999 -3.79277E-02  3.59510E+01 -1.00000E+00  1.47774E-01
      21    -1     0     0   502   501  0.000000000E+00  0.000000000E+00  2.404782952E+02  2.404782952E+02  0.000000000E+00  0.00000E+00  9.000E+00
      21    -1     0     0   511   502  0.000000000E+00  0.000000000E+00 -2.799317340E+02  2.799317340E+02  0.000000000E+00  0.00000E+00  9.000E+00
      25     1     1     2     0     0  8.862317585E+01 -1.750115685E+02 -5.345003742E+01  2.386734651E+02  1.250000000E+02  0.00000E+00  9.000E+00
      25     1     1     2     0     0 -5.815261682E+01  1.559322186E+02  6.614580255E+01  2.183960871E+02  1.250000000E+02  0.00000E+00  9.000E+00
      21     1     1     2   511   501 -3.047055903E+01  1.907934993E+01 -5.214920399E+01  6.334047709E+01  9.536743164E-07  0.00000E+00  9.000E+00
#rwgt            1           1 -0.18722073228385258                7      449077           0
</event>
<event>
      5   9999  3.79277E-02  2.36163E+01 -1.00000E+00  1.60626E-01
       1    -1     0     0   502     0  0.000000000E+00  0.000000000E+00  7.618935146E+02  7.618935146E+02  0.000000000E+00  0.00000E+00  9.000E+00
      21    -1     0     0   501   502  0.000000000E+00  0.000000000E+00 -1.638266184E+02  1.638266184E+02  0.000000000E+00  0.00000E+00  9.000E+00
      25     1     1     2     0     0 -2.603140963E+02 -6.977028371E+01  1.049892871E+02  3.150858163E+02  1.250000000E+02  0.00000E+00  9.000E+00
      25     1     1     2     0     0  2.838779924E+02  7.134285164E+01  3.826868732E+02  4.977456780E+02  1.250000000E+02  0.00000E+00  9.000E+00
       1     1     1     2   501     0 -2.356389608E+01 -1.572567923E+00  1.103907360E+02  1.128886387E+02  1.907348633E-06  0.00000E+00  9.000E+00
#rwgt            1           1   3.3796290436088089E-002           7      449239           0
</event>
<event>
      5   9999  3.79277E-02  7.46167E+01 -1.00000E+00  1.29831E-01
      21    -1     0     0   511   501  0.000000000E+00  0.000000000E+00  1.389549568E+02  1.389549568E+02  0.000000000E+00  0.00000E+00  9.000E+00
      21    -1     0     0   501   502  0.000000000E+00  0.000000000E+00 -2.302347560E+02  2.302347560E+02  0.000000000E+00  0.00000E+00  9.000E+00
      25     1     1     2     0     0  5.275300664E+01  3.935709283E+01 -3.512685315E+01  1.455704513E+02  1.250000000E+02  0.00000E+00  9.000E+00
      25     1     1     2     0     0  2.165238885E+00  1.115666815E+01 -7.558068890E+01  1.465148458E+02  1.250000000E+02  0.00000E+00  9.000E+00
      21     1     1     2   511   502 -5.491824552E+01 -5.051376098E+01  1.942774284E+01  7.710441577E+01  8.259061849E-07  0.00000E+00  9.000E+00
#rwgt            1           1   6.9646396382205128E-003           7      449950           0
</event>
<event>
      5   9999  3.79277E-02  2.76220E+01 -1.00000E+00  1.55573E-01
      21    -1     0     0   502   501  0.000000000E+00  0.000000000E+00  8.982469305E+02  8.982469305E+02  0.000000000E+00  0.00000E+00  9.000E+00
      21    -1     0     0   512   502  0.000000000E+00  0.000000000E+00 -5.430072294E+01  5.430072294E+01  0.000000000E+00  0.00000E+00  9.000E+00
      25     1     1     2     0     0  1.023974435E+02  1.886191803E+01  6.477600936E+02  6.678765958E+02  1.250000000E+02  0.00000E+00  9.000E+00
      25     1     1     2     0     0 -1.170117929E+02 -4.230114865E+01  1.826742593E+02  2.539213103E+02  1.250000000E+02  0.00000E+00  9.000E+00
      21     1     1     2   512   501  1.461434943E+01  2.343923062E+01  1.351185473E+01  3.074974731E+01  3.371747881E-07  0.00000E+00  9.000E+00
#rwgt            1           1   4.2789063932710182E-002           7      450009           0
</event>
<event>
      5   9999  3.79277E-02  1.32890E+02 -1.00000E+00  1.18517E-01
      21    -1     0     0   502   501  0.000000000E+00  0.000000000E+00  1.404555106E+02  1.404555106E+02  0.000000000E+00  0.00000E+00  9.000E+00
       3    -1     0     0   501     0  0.000000000E+00  0.000000000E+00 -8.295453970E+02  8.295453970E+02  0.000000000E+00  0.00000E+00  9.000E+00
      25     1     1     2     0     0  2.295535832E+02  1.270243952E+02 -1.396756134E+02  3.224349880E+02  1.250000000E+02  0.00000E+00  9.000E+00
      25     1     1     2     0     0 -1.681805993E+02 -9.155856323E+00 -3.277351778E+02  3.891065284E+02  1.250000000E+02  0.00000E+00  9.000E+00
       3     1     1     2   502     0 -6.137298382E+01 -1.178685389E+02 -2.216790953E+02  2.584593912E+02  3.814697266E-06  0.00000E+00  9.000E+00
#rwgt            1           1   3.7314869047674531E-002           7      450180           0
</event>
<event>
      5   9999  3.79277E-02  7.80876E+01 -1.00000E+00  1.28860E-01
      21    -1     0     0   502   501  0.000000000E+00  0.000000000E+00  2.982504694E+02  2.982504694E+02  0.000000000E+00  0.00000E+00  9.000E+00
      21    -1     0     0   501   511  0.000000000E+00  0.000000000E+00 -1.589254443E+02  1.589254443E+02  0.000000000E+00  0.00000E+00  9.000E+00
      25     1     1     2     0     0 -8.604957659E+01  1.088848074E+02 -2.779465841E+00  1.867970994E+02  1.250000000E+02  0.00000E+00  9.000E+00
      25     1     1     2     0     0  3.207706633E+01 -5.245217969E+01  1.315158341E+02  1.915765746E+02  1.250000000E+02  0.00000E+00  9.000E+00
      21     1     1     2   502   511  5.397251026E+01 -5.643262767E+01  1.058865691E+01  7.880223972E+01  2.092114541E-06  0.00000E+00  9.000E+00
#rwgt            1           1   2.8857909820226256E-002           7      450219           0
</event>
<event>
      5   9999  3.79277E-02  2.49575E+02 -1.00000E+00  1.08256E-01
      21    -1     0     0   502   501  0.000000000E+00  0.000000000E+00  6.591653788E+01  6.591653788E+01  0.000000000E+00  0.00000E+00  9.000E+00
       2    -1     0     0   501     0  0.000000000E+00  0.000000000E+00 -3.350076793E+03  3.350076793E+03  0.000000000E+00  0.00000E+00  9.000E+00
      25     1     1     2     0     0 -1.195018290E+02  1.573344380E+02 -4.697442807E+02  5.247089686E+02  1.250000000E+02  0.00000E+00  9.000E+00
      25     1     1     2     0     0 -9.725568723E+01 -2.810429710E+02 -8.177554418E+02  8.790863341E+02  1.250000000E+02  0.00000E+00  9.000E+00
       2     1     1     2   502     0  2.167575162E+02  1.237085330E+02 -1.996660533E+03  2.012198029E+03  2.157918644E-05  0.00000E+00  9.000E+00
#rwgt            1           1   3.4108187893694186E-002           7      450379           0
</event>
<event>
      5   9999  3.79277E-02  8.29536E+01 -1.00000E+00  1.27592E-01
       1    -1     0     0   502     0  0.000000000E+00  0.000000000E+00  1.462075835E+02  1.462075835E+02  0.000000000E+00  0.00000E+00  9.000E+00
      21    -1     0     0   501   502  0.000000000E+00  0.000000000E+00 -7.554021320E+02  7.554021320E+02  0.000000000E+00  0.00000E+00  9.000E+00
      25     1     1     2     0     0  6.852455035E+01  9.307582702E+01 -4.267394275E+02  4.594456034E+02  1.250000000E+02  0.00000E+00  9.000E+00
      25     1     1     2     0     0 -1.050919964E+02 -1.675346703E+02 -2.446285726E+02  3.384971669E+02  1.250000000E+02  0.00000E+00  9.000E+00
       1     1     1     2   501     0  3.656744601E+01  7.445884329E+01  6.217345148E+01  1.036669452E+02  6.743495762E-07  0.00000E+00  9.000E+00
#rwgt            1           1   3.7162114881621786E-002           7      450416           0
</event>
<event>
      5   9999 -3.79277E-02  3.56032E+01 -1.00000E+00  1.48048E-01
      21    -1     0     0   511   501  0.000000000E+00  0.000000000E+00  3.132328500E+02  3.132328500E+02  0.000000000E+00  0.00000E+00  9.000E+00
      21    -1     0     0   501   502  0.000000000E+00  0.000000000E+00 -5.691742651E+02  5.691742651E+02  0.000000000E+00  0.00000E+00  9.000E+00
      25     1     1     2     0     0 -1.048524759E+02  5.640034229E+01 -7.447856982E+01  1.880082383E+02  1.250000000E+02  0.00000E+00  9.000E+00
      25     1     1     2     0     0  1.350597880E+02 -7.524455242E+01 -4.139404448E+02  4.592108239E+02  1.250000000E+02  0.00000E+00  9.000E+00
      21     1     1     2   511   502 -3.020731212E+01  1.884421013E+01  2.324775995E+02  2.351880529E+02  0.000000000E+00  0.00000E+00  9.000E+00
#rwgt            1           1  -9.0409012443883829E-002           7      450483           0
</event>
<event>
      5   9999  3.79277E-02  9.51311E+00 -1.00000E+00  1.98297E-01
      21    -1     0     0   502   512  0.000000000E+00  0.000000000E+00  8.354920363E+02  8.354920363E+02  0.000000000E+00  0.00000E+00  9.000E+00
      21    -1     0     0   501   502  0.000000000E+00  0.000000000E+00 -3.768116479E+02  3.768116479E+02  0.000000000E+00  0.00000E+00  9.000E+00
      25     1     1     2     0     0  1.912915032E+02 -1.166127989E+02  2.127101835E+02  3.332590677E+02  1.250000000E+02  0.00000E+00  9.000E+00
      25     1     1     2     0     0 -1.875930544E+02  1.078480566E+02 -2.671655391E+02  3.658206974E+02  1.250000000E+02  0.00000E+00  9.000E+00
      21     1     1     2   501   512 -3.698448768E+00  8.764742332E+00  5.131357441E+02  5.132239190E+02  0.000000000E+00  0.00000E+00  9.000E+00
#rwgt            1           1   2.5778072794098914E-002           7      450707           0
</event>
<event>
      5   9999  3.79277E-02  3.13777E+01 -1.00000E+00  1.51698E-01
      21    -1     0     0   502   501  0.000000000E+00  0.000000000E+00  7.676286191E+01  7.676286191E+01  0.000000000E+00  0.00000E+00  9.000E+00
      21    -1     0     0   511   502  0.000000000E+00  0.000000000E+00 -6.637849264E+02  6.637849264E+02  0.000000000E+00  0.00000E+00  9.000E+00
      25     1     1     2     0     0 -2.755037230E+01  1.659330903E+02 -3.439517495E+02  4.027662094E+02  1.250000000E+02  0.00000E+00  9.000E+00
      25     1     1     2     0     0  2.536465165E+01 -1.346315799E+02 -1.467958568E+02  2.365228349E+02  1.250000000E+02  0.00000E+00  9.000E+00
      21     1     1     2   511   501  2.185720658E+00 -3.130151047E+01 -9.627445819E+01  1.012587440E+02  1.348699152E-06  0.00000E+00  9.000E+00
#rwgt            1           1   4.5201682536679021E-002           7      451064           0
</event>
<event>
      5   9999  3.79277E-02  1.12472E+02 -1.00000E+00  1.21575E-01
      21    -1     0     0   502   501  0.000000000E+00  0.000000000E+00  1.728240571E+02  1.728240571E+02  0.000000000E+00  0.00000E+00  9.000E+00
      21    -1     0     0   501   512  0.000000000E+00  0.000000000E+00 -3.782764323E+02  3.782764323E+02  0.000000000E+00  0.00000E+00  9.000E+00
      25     1     1     2     0     0  1.142008201E+02  1.325822985E+02 -5.172123326E+01  2.211786137E+02  1.250000000E+02  0.00000E+00  9.000E+00
      25     1     1     2     0     0 -1.791671334E+01 -7.445047319E+01 -9.330137307E+00  1.468874843E+02  1.250000000E+02  0.00000E+00  9.000E+00
      21     1     1     2   502   512 -9.628410673E+01 -5.813182527E+01 -1.444010046E+02  1.830343914E+02  2.697398305E-06  0.00000E+00  9.000E+00
#rwgt            2          11   2.1077711801090271E-003           7      451212           0
</event>
<event>
      5   9999  3.79277E-02  8.85012E+01 -1.00000E+00  1.26262E-01
      21    -1     0     0   502   501  0.000000000E+00  0.000000000E+00  2.342441456E+02  2.342441456E+02  0.000000000E+00  0.00000E+00  9.000E+00
       2    -1     0     0   501     0  0.000000000E+00  0.000000000E+00 -6.682102049E+02  6.682102049E+02  0.000000000E+00  0.00000E+00  9.000E+00
      25     1     1     2     0     0 -1.227888970E+02 -8.107818939E+01  7.495731765E+01  2.071095978E+02  1.250000000E+02  0.00000E+00  9.000E+00
      25     1     1     2     0     0  1.582635384E+02 -2.111103927E-03 -2.479356608E+01  2.031921960E+02  1.250000000E+02  0.00000E+00  9.000E+00
       2     1     1     2   502     0 -3.547464137E+01  8.108030049E+01 -4.841298109E+02  4.921525568E+02  5.394796609E-06  0.00000E+00  9.000E+00
#rwgt            1           1   5.0743911895875807E-002           7      451502           0
</event>
<event>
      5   9999  3.79277E-02  2.80731E+01 -1.00000E+00  1.55070E-01
      21    -1     0     0   502   501  0.000000000E+00  0.000000000E+00  6.598908003E+02  6.598908003E+02  0.000000000E+00  0.00000E+00  9.000E+00
      21    -1     0     0   501   511  0.000000000E+00  0.000000000E+00 -1.357997641E+02  1.357997641E+02  0.000000000E+00  0.00000E+00  9.000E+00
      25     1     1     2     0     0 -9.129065927E+01 -2.547238295E+01  4.167708507E+02  4.453153588E+02  1.250000000E+02  0.00000E+00  9.000E+00
      25     1     1     2     0     0  1.002305901E+02  5.208393597E+01  1.953577463E+02  2.579700692E+02  1.250000000E+02  0.00000E+00  9.000E+00
      21     1     1     2   502   511 -8.939930789E+00 -2.661155302E+01 -8.803756083E+01  9.240513640E+01  1.348699152E-06  0.00000E+00  9.000E+00
#rwgt            1           1   4.9641795888000995E-002           7      451584           0
</event>
<event>
      5   9999  3.79277E-02  2.78524E+01 -1.00000E+00  1.55315E-01
      21    -1     0     0   512   501  0.000000000E+00  0.000000000E+00  3.872233038E+02  3.872233038E+02  0.000000000E+00  0.00000E+00  9.000E+00
      21    -1     0     0   501   502  0.000000000E+00  0.000000000E+00 -1.038601573E+02  1.038601573E+02  0.000000000E+00  0.00000E+00  9.000E+00
      25     1     1     2     0     0  3.877826803E+01 -1.086891116E+02  2.225522981E+02  2.801278323E+02  1.250000000E+02  0.00000E+00  9.000E+00
      25     1     1     2     0     0 -2.885670210E+01  8.266379947E+01  9.913159768E+00  1.529355542E+02  1.250000000E+02  0.00000E+00  9.000E+00
      21     1     1     2   512   502 -9.921565922E+00  2.602531215E+01  5.089768873E+01  5.802007463E+01  6.743495762E-07  0.00000E+00  9.000E+00
#rwgt            1           1   3.8365612342391872E-002           7      451942           0
</event>
<event>
      5   9999  3.79277E-02  1.62833E+02 -1.00000E+00  1.14998E-01
      21    -1     0     0   502   501  0.000000000E+00  0.000000000E+00  2.785996532E+02  2.785996532E+02  0.000000000E+00  0.00000E+00  9.000E+00
      21    -1     0     0   511   502  0.000000000E+00  0.000000000E+00 -5.127094199E+02  5.127094199E+02  0.000000000E+00  0.00000E+00  9.000E+00
      25     1     1     2     0     0  9.372815718E+01 -1.688191402E+02  1.724316507E+01  2.306668513E+02  1.250000000E+02  0.00000E+00  9.000E+00
      25     1     1     2     0     0 -2.565357846E+02  1.716931756E+02 -1.297779962E+02  3.574303899E+02  1.250000000E+02  0.00000E+00  9.000E+00
      21     1     1     2   511   501  1.628076274E+02 -2.874035386E+00 -1.215749357E+02  2.032118318E+02  4.046097457E-06  0.00000E+00  9.000E+00
#rwgt            1           1   3.3858976864637680E-002           7      452093           0
</event>
<event>
      5   9999  3.79277E-02  5.49807E+01 -1.00000E+00  1.36763E-01
      21    -1     0     0   512   501  0.000000000E+00  0.000000000E+00  6.577286214E+02  6.577286214E+02  0.000000000E+00  0.00000E+00  9.000E+00
      21    -1     0     0   501   502  0.000000000E+00  0.000000000E+00 -1.111089540E+02  1.111089540E+02  0.000000000E+00  0.00000E+00  9.000E+00
      25     1     1     2     0     0  1.755711785E+02 -3.861835756E+01  4.456995214E+02  4.965779694E+02  1.250000000E+02  0.00000E+00  9.000E+00
      25     1     1     2     0     0 -1.229742963E+02  2.260435951E+01  2.505666189E+01  1.785678328E+02  1.250000000E+02  0.00000E+00  9.000E+00
      21     1     1     2   512   502 -5.259688221E+01  1.601399805E+01  7.586348410E+01  9.369177323E+01  1.348699152E-06  0.00000E+00  9.000E+00
#rwgt            2          11   2.9292294422596709E-003           7      452295           0
</event>
<event>
      5   9999  3.79277E-02  3.77014E+01 -1.00000E+00  1.46452E-01
      21    -1     0     0   502   511  0.000000000E+00  0.000000000E+00  2.502256187E+02  2.502256187E+02  0.000000000E+00  0.00000E+00  9.000E+00
      21    -1     0     0   501   502  0.000000000E+00  0.000000000E+00 -3.187268658E+02  3.187268658E+02  0.000000000E+00  0.00000E+00  9.000E+00
      25     1     1     2     0     0 -4.267239506E+00  9.134178497E+01  4.951593248E+01  1.625987656E+02  1.250000000E+02  0.00000E+00  9.000E+00
      25     1     1     2     0     0  8.078137841E+00 -1.288500616E+02 -2.278753058E+02  2.902063915E+02  1.250000000E+02  0.00000E+00  9.000E+00
      21     1     1     2   501   511 -3.810898336E+00  3.750827660E+01  1.098581262E+02  1.161473273E+02  0.000000000E+00  0.00000E+00  9.000E+00
#rwgt            1           1   4.1228289469804141E-002           7      452315           0
</event>
<event>
      5   9999  3.79277E-02  1.92248E+01 -1.00000E+00  1.67798E-01
       2    -1     0     0   502     0  0.000000000E+00  0.000000000E+00  7.397725094E+02  7.397725094E+02  0.000000000E+00  0.00000E+00  9.000E+00
      21    -1     0     0   501   502  0.000000000E+00  0.000000000E+00 -9.017514735E+01  9.017514735E+01  0.000000000E+00  0.00000E+00  9.000E+00
      25     1     1     2     0     0  1.332985868E+02 -4.470888727E+01  9.646137490E+01  2.114171107E+02  1.250000000E+02  0.00000E+00  9.000E+00
      25     1     1     2     0     0 -1.217092806E+02  2.936997604E+01  2.088723193E+02  2.737305066E+02  1.250000000E+02  0.00000E+00  9.000E+00
       2     1     1     2   501     0 -1.158930615E+01  1.533891124E+01  3.442636679E+02  3.448000395E+02  5.394796609E-06  0.00000E+00  9.000E+00
#rwgt            1           1   5.2579654682948826E-002           7      452467           0
</event>
<event>
      5   9999  3.79277E-02  2.94178E+01 -1.00000E+00  1.53633E-01
      21    -1     0     0   502   501  0.000000000E+00  0.000000000E+00  2.413880672E+02  2.413880672E+02  0.000000000E+00  0.00000E+00  9.000E+00
      21    -1     0     0   511   502  0.000000000E+00  0.000000000E+00 -2.190461961E+02  2.190461961E+02  0.000000000E+00  0.00000E+00  9.000E+00
      25     1     1     2     0     0  4.598658150E+01 -1.343622621E+02 -9.561441249E+01  2.119790061E+02  1.250000000E+02  0.00000E+00  9.000E+00
      25     1     1     2     0     0 -6.764162782E+01  1.144508634E+02  1.208890813E+02  2.188916625E+02  1.250000000E+02  0.00000E+00  9.000E+00
      21     1     1     2   511   501  2.165504632E+01  1.991139870E+01 -2.932797783E+00  2.956359471E+01  4.064494877E-07  0.00000E+00  9.000E+00
#rwgt            1           1   4.5122605127283243E-002           7      452813           0
</event>
<event>
      5   9999  3.79277E-02  2.62196E+01 -1.00000E+00  1.57217E-01
      21    -1     0     0   502   501  0.000000000E+00  0.000000000E+00  1.473003903E+02  1.473003903E+02  0.000000000E+00  0.00000E+00  9.000E+00
      21    -1     0     0   512   502  0.000000000E+00  0.000000000E+00 -7.002548742E+02  7.002548742E+02  0.000000000E+00  0.00000E+00  9.000E+00
      25     1     1     2     0     0 -1.450814788E+02  1.812148734E+02 -1.091124823E+02  2.853383949E+02  1.250000000E+02  0.00000E+00  9.000E+00
      25     1     1     2     0     0  1.625590799E+02 -2.007596499E+02 -2.967792857E+02  4.128351195E+02  1.250000000E+02  0.00000E+00  9.000E+00
      21     1     1     2   512   501 -1.747760115E+01  1.954477648E+01 -1.470627159E+02  1.493817500E+02  0.000000000E+00  0.00000E+00  9.000E+00
#rwgt            1           1   2.5963871219979374E-002           7      452988           0
</event>
<event>
      5   9999  3.79277E-02  5.77139E+01 -1.00000E+00  1.35611E-01
      21    -1     0     0   502   501  0.000000000E+00  0.000000000E+00  1.567964811E+03  1.567964811E+03  0.000000000E+00  0.00000E+00  9.000E+00
      21    -1     0     0   511   502  0.000000000E+00  0.000000000E+00 -5.791796399E+01  5.791796399E+01  0.000000000E+00  0.00000E+00  9.000E+00
      25     1     1     2     0     0 -1.209141411E+02 -1.658288325E+02  7.376206001E+02  7.757761152E+02  1.250000000E+02  0.00000E+00  9.000E+00
      25     1     1     2     0     0  1.644069474E+02  2.037665364E+02  6.982146650E+02  7.560946793E+02  1.250000000E+02  0.00000E+00  9.000E+00
      21     1     1     2   511   501 -4.349280627E+01 -3.793770391E+01  7.421158169E+01  9.401198026E+01  1.348699152E-06  0.00000E+00  9.000E+00
#rwgt            1           1   2.8168193822383478E-002           7      453147           0
</event>
<event>
      5   9999  3.79277E-02  4.08111E+01 -1.00000E+00  1.44302E-01
       2    -1     0     0   502     0  0.000000000E+00  0.000000000E+00  2.119312613E+02  2.119312613E+02  0.000000000E+00  0.00000E+00  9.000E+00
      21    -1     0     0   501   502  0.000000000E+00  0.000000000E+00 -2.460390712E+03  2.460390712E+03  0.000000000E+00  0.00000E+00  9.000E+00
      25     1     1     2     0     0 -2.137096361E+02  1.861443860E+02 -1.615530584E+03  1.644957632E+03  1.250000000E+02  0.00000E+00  9.000E+00
      25     1     1     2     0     0  2.283838161E+02 -2.242260813E+02 -7.919040512E+02  8.632343420E+02  1.250000000E+02  0.00000E+00  9.000E+00
       2     1     1     2   501     0 -1.467418004E+01  3.808169521E+01  1.589751853E+02  1.641299991E+02  7.629394531E-06  0.00000E+00  9.000E+00
#rwgt            1           1   5.6613666522629301E-002           7      453290           0
</event>
<event>
      5   9999  3.79277E-02  3.64719E+01 -1.00000E+00  1.47372E-01
      21    -1     0     0   502   511  0.000000000E+00  0.000000000E+00  3.011279809E+02  3.011279809E+02  0.000000000E+00  0.00000E+00  9.000E+00
      21    -1     0     0   501   502  0.000000000E+00  0.000000000E+00 -2.143822817E+02  2.143822817E+02  0.000000000E+00  0.00000E+00  9.000E+00
      25     1     1     2     0     0 -1.516490674E+02  9.433933001E+01  1.257111243E+02  2.516458536E+02  1.250000000E+02  0.00000E+00  9.000E+00
      25     1     1     2     0     0  1.510181632E+02 -5.787284323E+01 -6.991580130E+01  2.160300231E+02  1.250000000E+02  0.00000E+00  9.000E+00
      21     1     1     2   501   511  6.309042261E-01 -3.646648678E+01  3.095037620E+01  4.783438601E+01  5.840038640E-07  0.00000E+00  9.000E+00
#rwgt            1           1   2.1251366586663031E-002           7      453495           0
</event>
<event>
      5   9999  3.79277E-02  9.35488E+00 -1.00000E+00  1.99166E-01
      21    -1     0     0   502   501  0.000000000E+00  0.000000000E+00  3.678767901E+02  3.678767901E+02  0.000000000E+00  0.00000E+00  9.000E+00
      21    -1     0     0   512   502  0.000000000E+00  0.000000000E+00 -2.402131927E+02  2.402131927E+02  0.000000000E+00  0.00000E+00  9.000E+00
      25     1     1     2     0     0 -2.215785550E+02 -6.072520226E+01  5.827552567E+00  2.616172138E+02  1.250000000E+02  0.00000E+00  9.000E+00
      25     1     1     2     0     0  2.201902595E+02  5.147390876E+01  1.621799694E+02  3.050584471E+02  1.250000000E+02  0.00000E+00  9.000E+00
      21     1     1     2   512   501  1.388295429E+00  9.251293505E+00 -4.034392464E+01  4.141432181E+01  0.000000000E+00  0.00000E+00  9.000E+00
#rwgt            1           1   3.1581891195536803E-002           7      453680           0
</event>
<event>
      5   9999  3.79277E-02  4.60945E+01 -1.00000E+00  1.41121E-01
      21    -1     0     0   502   501  0.000000000E+00  0.000000000E+00  7.849899636E+02  7.849899636E+02  0.000000000E+00  0.00000E+00  9.000E+00
      21    -1     0     0   501   511  0.000000000E+00  0.000000000E+00 -8.223264097E+01  8.223264097E+01  0.000000000E+00  0.00000E+00  9.000E+00
      25     1     1     2     0     0  6.961640191E+01 -5.244207627E+01  5.306284177E+01  1.613607138E+02  1.250000000E+02  0.00000E+00  9.000E+00
      25     1     1     2     0     0 -3.740319422E+01  1.947221853E+01  6.463179567E+02  6.596438944E+02  1.250000000E+02  0.00000E+00  9.000E+00
      21     1     1     2   502   511 -3.221320770E+01  3.296985774E+01  3.376524075E+00  4.621799632E+01  1.090944124E-06  0.00000E+00  9.000E+00
#rwgt            1           1   3.5642789526133548E-002           7      453975           0
</event>
<event>
      5   9999  3.79277E-02  9.79457E+01 -1.00000E+00  1.24235E-01
      21    -1     0     0   502   512  0.000000000E+00  0.000000000E+00  3.952856573E+02  3.952856573E+02  0.000000000E+00  0.00000E+00  9.000E+00
      21    -1     0     0   501   502  0.000000000E+00  0.000000000E+00 -4.861835111E+02  4.861835111E+02  0.000000000E+00  0.00000E+00  9.000E+00
      25     1     1     2     0     0 -7.368207516E+01  1.459867458E+02  1.895915292E+02  2.798412516E+02  1.250000000E+02  0.00000E+00  9.000E+00
      25     1     1     2     0     0  1.708478359E+02 -1.583223270E+02 -3.794107371E+02  4.624202090E+02  1.250000000E+02  0.00000E+00  9.000E+00
      21     1     1     2   501   512 -9.716576073E+01  1.233558121E+01  9.892135405E+01  1.392077078E+02  1.348699152E-06  0.00000E+00  9.000E+00
#rwgt            1           1   2.5735216889402321E-002           7      454088           0
</event>
<event>
      5   9999  3.79277E-02  8.98729E+01 -1.00000E+00  1.25950E-01
      21    -1     0     0   502   501  0.000000000E+00  0.000000000E+00  5.577356008E+01  5.577356008E+01  0.000000000E+00  0.00000E+00  9.000E+00
      21    -1     0     0   501   511  0.000000000E+00  0.000000000E+00 -1.395434045E+03  1.395434045E+03  0.000000000E+00  0.00000E+00  9.000E+00
      25     1     1     2     0     0  8.494688429E+01 -2.097726572E+02 -6.680562286E+02  7.163411655E+02  1.250000000E+02  0.00000E+00  9.000E+00
      25     1     1     2     0     0 -2.837933282E+01  1.399354083E+02 -3.207402476E+02  3.726749408E+02  1.250000000E+02  0.00000E+00  9.000E+00
      21     1     1     2   502   511 -5.656755147E+01  6.983724888E+01 -3.508640083E+02  3.621914984E+02  5.394796609E-06  0.00000E+00  9.000E+00
#rwgt            1           1   3.9456064317070369E-002           7      454181           0
</event>
<event>
      5   9999  3.79277E-02  2.67732E+01 -1.00000E+00  1.56554E-01
      21    -1     0     0   502   501  0.000000000E+00  0.000000000E+00  2.585233153E+02  2.585233153E+02  0.000000000E+00  0.00000E+00  9.000E+00
      21    -1     0     0   501   512  0.000000000E+00  0.000000000E+00 -2.658929487E+02  2.658929487E+02  0.000000000E+00  0.00000E+00  9.000E+00
      25     1     1     2     0     0 -1.170354618E+02  5.827834943E+01  1.241641973E+02  2.193978424E+02  1.250000000E+02  0.00000E+00  9.000E+00
      25     1     1     2     0     0  1.377067668E+02 -4.126368403E+01 -2.142640778E+01  1.917027287E+02  1.250000000E+02  0.00000E+00  9.000E+00
      21     1     1     2   502   512 -2.067130499E+01 -1.701466540E+01 -1.101074229E+02  1.133156930E+02  1.348699152E-06  0.00000E+00  9.000E+00
#rwgt            1           1   3.5661341051539355E-002           7      454249           0
</event>
<event>
      5   9999  3.79277E-02  6.96737E+01 -1.00000E+00  1.31324E-01
      21    -1     0     0   502   501  0.000000000E+00  0.000000000E+00  2.439254013E+03  2.439254013E+03  0.000000000E+00  0.00000E+00  9.000E+00
      21    -1     0     0   511   502  0.000000000E+00  0.000000000E+00 -1.704039865E+01  1.704039865E+01  0.000000000E+00  0.00000E+00  9.000E+00
      25     1     1     2     0     0  5.074522125E+00 -1.085360909E+02  9.073844385E+02  9.223759283E+02  1.250000000E+02  0.00000E+00  9.000E+00
      25     1     1     2     0     0  6.376067540E+01  9.775901803E+01  1.121910458E+03  1.134870180E+03  1.250000000E+02  0.00000E+00  9.000E+00
      21     1     1     2   511   501 -6.883519753E+01  1.077707288E+01  3.929187175E+02  3.990483032E+02  1.078959322E-05  0.00000E+00  9.000E+00
#rwgt            1           1   9.7544945855853563E-002           7      454417           0
</event>
<event>
      5   9999 -3.79277E-02  1.96803E+01 -1.00000E+00  1.66949E-01
      21    -1     0     0   502   501  0.000000000E+00  0.000000000E+00  1.140411552E+03  1.140411552E+03  0.000000000E+00  0.00000E+00  9.000E+00
      21    -1     0     0   512   502  0.000000000E+00  0.000000000E+00 -1.336170276E+02  1.336170276E+02  0.000000000E+00  0.00000E+00  9.000E+00
      25     1     1     2     0     0 -6.594021755E+01  2.875925351E+02  8.067405765E+02  8.680512291E+02  1.250000000E+02  0.00000E+00  9.000E+00
      25     1     1     2     0     0  5.323696115E+01 -3.026238386E+02  1.781612607E+02  3.765392364E+02  1.250000000E+02  0.00000E+00  9.000E+00
      21     1     1     2   512   501  1.270325641E+01  1.503130354E+01  2.189268705E+01  2.943811400E+01  0.000000000E+00  0.00000E+00  9.000E+00
#rwgt            1           1  -8.0553310215357388E-002           7      454540           0
</event>
<event>
      5   9999 -3.79277E-02  2.28181E+01 -1.00000E+00  1.61780E-01
      21    -1     0     0   502   501  0.000000000E+00  0.000000000E+00  2.932513205E+02  2.932513205E+02  0.000000000E+00  0.00000E+00  9.000E+00
      21    -1     0     0   501   511  0.000000000E+00  0.000000000E+00 -4.759626596E+02  4.759626596E+02  0.000000000E+00  0.00000E+00  9.000E+00
      25     1     1     2     0     0 -1.129689085E+02  2.069788729E+02  9.806946996E+01  2.843322863E+02  1.250000000E+02  0.00000E+00  9.000E+00
      25     1     1     2     0     0  1.257172643E+02 -2.259035640E+02 -1.021355028E+02  3.047850253E+02  1.250000000E+02  0.00000E+00  9.000E+00
      21     1     1     2   502   511 -1.274835578E+01  1.892469107E+01 -1.786453063E+02  1.800966684E+02  1.907348633E-06  0.00000E+00  9.000E+00
#rwgt            1           1 -0.15750234647693348                7      454857           0
</event>
<event>
      5   9999  3.79277E-02  5.34026E+01 -1.00000E+00  1.37464E-01
      21    -1     0     0   502   501  0.000000000E+00  0.000000000E+00  1.613871256E+02  1.613871256E+02  0.000000000E+00  0.00000E+00  9.000E+00
      21    -1     0     0   501   512  0.000000000E+00  0.000000000E+00 -1.389333308E+03  1.389333308E+03  0.000000000E+00  0.00000E+00  9.000E+00
      25     1     1     2     0     0 -2.616262405E+02  2.543347357E+01 -3.223888264E+02  4.343439958E+02  1.250000000E+02  0.00000E+00  9.000E+00
      25     1     1     2     0     0  2.658882339E+02 -7.866569425E+01 -1.167945918E+02  3.258079511E+02  1.250000000E+02  0.00000E+00  9.000E+00
      21     1     1     2   502   512 -4.261993386E+00  5.323222068E+01 -7.887627643E+02  7.905684867E+02  0.000000000E+00  0.00000E+00  9.000E+00
#rwgt            1           1   4.7940021051589107E-002           7      455067           0
</event>
<event>
      5   9999  3.79277E-02  1.26032E+02 -1.00000E+00  1.19471E-01
      21    -1     0     0   502   511  0.000000000E+00  0.000000000E+00  2.198089703E+03  2.198089703E+03  0.000000000E+00  0.00000E+00  9.000E+00
      21    -1     0     0   501   502  0.000000000E+00  0.000000000E+00 -1.975192870E+03  1.975192870E+03  0.000000000E+00  0.00000E+00  9.000E+00
      25     1     1     2     0     0 -1.031770463E+02  3.023842863E+01 -2.340768344E+01  1.665316339E+02  1.250000000E+02  0.00000E+00  9.000E+00
      25     1     1     2     0     0  2.178021883E+02 -8.263132847E+01 -1.869045495E+03  1.887649807E+03  1.250000000E+02  0.00000E+00  9.000E+00
      21     1     1     2   501   511 -1.146251420E+02  5.239289984E+01  2.115350011E+03  2.119101132E+03  3.051757812E-05  0.00000E+00  9.000E+00
#rwgt            2          11   2.1390948401585688E-002           7      455216           0
</event>
<event>
      5   9999  3.79277E-02  4.97306E+01 -1.00000E+00  1.39210E-01
      21    -1     0     0   502   512  0.000000000E+00  0.000000000E+00  6.441566742E+02  6.441566742E+02  0.000000000E+00  0.00000E+00  9.000E+00
      21    -1     0     0   501   502  0.000000000E+00  0.000000000E+00 -8.708455636E+01  8.708455636E+01  0.000000000E+00  0.00000E+00  9.000E+00
      25     1     1     2     0     0  3.967007760E+01 -1.722728182E+01  4.597462665E+02  4.783953635E+02  1.250000000E+02  0.00000E+00  9.000E+00
      25     1     1     2     0     0  5.130110843E-01  4.652664754E+01 -1.081637351E+01  1.338169871E+02  1.250000000E+02  0.00000E+00  9.000E+00
      21     1     1     2   501   512 -4.018308869E+01 -2.929936573E+01  1.081422248E+02  1.190288798E+02  2.336015456E-06  0.00000E+00  9.000E+00
#rwgt            1           1   4.7354673304662018E-002           7      455476           0
</event>
<event>
      5   9999  3.79277E-02  9.32392E+01 -1.00000E+00  1.25211E-01
      21    -1     0     0   511   501  0.000000000E+00  0.000000000E+00  1.060062924E+02  1.060062924E+02  0.000000000E+00  0.00000E+00  9.000E+00
      21    -1     0     0   501   502  0.000000000E+00  0.000000000E+00 -8.233924802E+02  8.233924802E+02  0.000000000E+00  0.00000E+00  9.000E+00
      25     1     1     2     0     0  1.212637531E+01 -1.442214766E+02 -6.641954188E+02  6.911782966E+02  1.250000000E+02  0.00000E+00  9.000E+00
      25     1     1     2     0     0 -2.623835967E+01  5.205635664E+01 -4.275079582E+01  1.443985676E+02  1.250000000E+02  0.00000E+00  9.000E+00
      21     1     1     2   511   502  1.411198436E+01  9.216512000E+01 -1.043997315E+01  9.382190835E+01  2.437239683E-06  0.00000E+00  9.000E+00
#rwgt            1           1   5.3393394097575951E-002           7      455575           0
</event>
<event>
      5   9999  3.79277E-02  2.91151E+01 -1.00000E+00  1.53949E-01
      21    -1     0     0   502   512  0.000000000E+00  0.000000000E+00  4.344103491E+02  4.344103491E+02  0.000000000E+00  0.00000E+00  9.000E+00
      21    -1     0     0   501   502  0.000000000E+00  0.000000000E+00 -2.276233157E+02  2.276233157E+02  0.000000000E+00  0.00000E+00  9.000E+00
      25     1     1     2     0     0 -6.277825404E+01  2.238140761E+02  2.008343145E+02  3.316523356E+02  1.250000000E+02  0.00000E+00  9.000E+00
      25     1     1     2     0     0  3.395348212E+01 -2.279152758E+02 -5.039973056E+01  2.669519521E+02  1.250000000E+02  0.00000E+00  9.000E+00
      21     1     1     2   501   512  2.882477192E+01  4.101199715E+00  5.635244946E+01  6.342937707E+01  6.743495762E-07  0.00000E+00  9.000E+00
#rwgt            1           1   3.0374541116242004E-002           7      455662           0
</event>
<event>
      5   9999 -3.79277E-02  3.05982E+01 -1.00000E+00  1.52447E-01
      21    -1     0     0   502   501  0.000000000E+00  0.000000000E+00  1.633584051E+02  1.633584051E+02  0.000000000E+00  0.00000E+00  9.000E+00
      21    -1     0     0   501   511  0.000000000E+00  0.000000000E+00 -6.289124312E+02  6.289124312E+02  0.000000000E+00  0.00000E+00  9.000E+00
      25     1     1     2     0     0 -1.129769489E+02  2.477281658E+02 -2.784116364E+02  4.089878658E+02  1.250000000E+02  0.00000E+00  9.000E+00
      25     1     1     2     0     0  8.280325525E+01 -2.528075219E+02 -1.364114730E+02  3.240387510E+02  1.250000000E+02  0.00000E+00  9.000E+00
      21     1     1     2   502   511  3.017369361E+01  5.079356094E+00 -5.073091654E+01  5.924421944E+01  9.536743164E-07  0.00000E+00  9.000E+00
#rwgt            1           1  -3.4570709155829528E-002           7      455848           0
</event>
<event>
      5   9999  3.79277E-02  4.71393E+01 -1.00000E+00  1.40551E-01
      21    -1     0     0   502   501  0.000000000E+00  0.000000000E+00  7.236989744E+02  7.236989744E+02  0.000000000E+00  0.00000E+00  9.000E+00
      21    -1     0     0   501   512  0.000000000E+00  0.000000000E+00 -4.586032502E+02  4.586032502E+02  0.000000000E+00  0.00000E+00  9.000E+00
      25     1     1     2     0     0  1.838601081E+02  8.778903449E+01  4.140319713E+02  4.780783693E+02  1.250000000E+02  0.00000E+00  9.000E+00
      25     1     1     2     0     0 -1.696074252E+02 -4.285601048E+01  2.343567139E+02  3.180430563E+02  1.250000000E+02  0.00000E+00  9.000E+00
      21     1     1     2   502   512 -1.425268292E+01 -4.493302401E+01 -3.832929609E+02  3.861807990E+02  0.000000000E+00  0.00000E+00  9.000E+00
#rwgt            1           1   5.8695626604713523E-002           7      456069           0
</event>
<event>
      5   9999  3.79277E-02  1.20988E+02 -1.00000E+00  1.20217E-01
       1    -1     0     0   502     0  0.000000000E+00  0.000000000E+00  8.277375659E+02  8.277375659E+02  0.000000000E+00  0.00000E+00  9.000E+00
      21    -1     0     0   501   502  0.000000000E+00  0.000000000E+00 -2.047284163E+02  2.047284163E+02  0.000000000E+00  0.00000E+00  9.000E+00
      25     1     1     2     0     0 -1.676530482E+02 -1.031696807E+02 -4.597607954E+00  2.332330714E+02  1.250000000E+02  0.00000E+00  9.000E+00
      25     1     1     2     0     0  4.784132452E+01  8.634047799E+01 -8.084332808E-01  1.592768785E+02  1.250000000E+02  0.00000E+00  9.000E+00
       1     1     1     2   501     0  1.198117237E+02  1.682920269E+01  6.284151908E+02  6.399560323E+02  0.000000000E+00  0.00000E+00  9.000E+00
#rwgt            1           1   4.2641894242254681E-002           7      456181           0
</event>
<event>
      5   9999  3.79277E-02  2.34374E+01 -1.00000E+00  1.60879E-01
      21    -1     0     0   511   501  0.000000000E+00  0.000000000E+00  4.379561726E+02  4.379561726E+02  0.000000000E+00  0.00000E+00  9.000E+00
      21    -1     0     0   501   502  0.000000000E+00  0.000000000E+00 -7.733012663E+01  7.733012663E+01  0.000000000E+00  0.00000E+00  9.000E+00
      25     1     1     2     0     0 -1.508758687E+01 -9.426381147E+01  2.459227994E+02  2.919183528E+02  1.250000000E+02  0.00000E+00  9.000E+00
      25     1     1     2     0     0 -1.908882397E+00  1.104017100E+02  9.083425909E+01  1.899158867E+02  1.250000000E+02  0.00000E+00  9.000E+00
      21     1     1     2   511   502  1.699646926E+01 -1.613789854E+01  2.386898755E+01  3.345205978E+01  5.840038640E-07  0.00000E+00  9.000E+00
#rwgt            1           1   3.8741889661271796E-002           7      456239           0
</event>
<event>
      5   9999  3.79277E-02  5.83917E+01 -1.00000E+00  1.35337E-01
      21    -1     0     0   502   501  0.000000000E+00  0.000000000E+00  1.617936187E+02  1.617936187E+02  0.000000000E+00  0.00000E+00  9.000E+00
       2    -1     0     0   501     0  0.000000000E+00  0.000000000E+00 -1.179648369E+03  1.179648369E+03  0.000000000E+00  0.00000E+00  9.000E+00
      25     1     1     2     0     0  2.094383531E+02 -6.245309549E+01 -1.129745625E+02  2.759584474E+02  1.250000000E+02  0.00000E+00  9.000E+00
      25     1     1     2     0     0 -2.649065465E+02  4.420848014E+01 -1.982658344E+02  3.564606699E+02  1.250000000E+02  0.00000E+00  9.000E+00
       2     1     1     2   502     0  5.546819333E+01  1.824461535E+01 -7.066143538E+02  7.090228708E+02  7.629394531E-06  0.00000E+00  9.000E+00
#rwgt            1           1   3.9048632200184084E-002           7      456393           0
</event>
<event>
      5   9999  3.79277E-02  1.23340E+01 -1.00000E+00  1.85783E-01
      21    -1     0     0   511   501  0.000000000E+00  0.000000000E+00  1.966188659E+02  1.966188659E+02  0.000000000E+00  0.00000E+00  9.000E+00
      21    -1     0     0   501   502  0.000000000E+00  0.000000000E+00 -3.496302976E+02  3.496302976E+02  0.000000000E+00  0.00000E+00  9.000E+00
      25     1     1     2     0     0 -1.681081006E+02  3.606525848E+01 -2.034523113E+02  2.942428917E+02  1.250000000E+02  0.00000E+00  9.000E+00
      25     1     1     2     0     0  1.626608105E+02 -4.713117930E+01  1.110275993E+01  2.107798819E+02  1.250000000E+02  0.00000E+00  9.000E+00
      21     1     1     2   511   502  5.447290163E+00  1.106592082E+01  3.933811964E+01  4.122638997E+01  4.768371582E-07  0.00000E+00  9.000E+00
#rwgt            1           1   2.9222350596830371E-002           7      456506           0
</event>
<event>
      5   9999  3.79277E-02  3.04304E+01 -1.00000E+00  1.52611E-01
      21    -1     0     0   512   501  0.000000000E+00  0.000000000E+00  1.364807894E+03  1.364807894E+03  0.000000000E+00  0.00000E+00  9.000E+00
      21    -1     0     0   501   502  0.000000000E+00  0.000000000E+00 -4.346575117E+01  4.346575117E+01  0.000000000E+00  0.00000E+00  9.000E+00
      25     1     1     2     0     0 -1.477861436E+02  2.117082124E+01  2.768125237E+02  3.384362882E+02  1.250000000E+02  0.00000E+00  9.000E+00
      25     1     1     2     0     0  1.542933901E+02  8.555662534E+00  8.490773945E+02  8.720304303E+02  1.250000000E+02  0.00000E+00  9.000E+00
      21     1     1     2   512   502 -6.507246428E+00 -2.972648378E+01  1.954522250E+02  1.978069269E+02  2.697398305E-06  0.00000E+00  9.000E+00
#rwgt            1           1   2.0431179261077029E-002           7      456746           0
</event>
<event>
      5   9999  3.79277E-02  9.55863E+01 -1.00000E+00  1.24716E-01
      21    -1     0     0   502   511  0.000000000E+00  0.000000000E+00  3.803527628E+02  3.803527628E+02  0.000000000E+00  0.00000E+00  9.000E+00
      21    -1     0     0   501   502  0.000000000E+00  0.000000000E+00 -2.722258095E+02  2.722258095E+02  0.000000000E+00  0.00000E+00  9.000E+00
      25     1     1     2     0     0 -1.775796978E+02 -4.835701860E+01 -1.025834791E+02  2.449924907E+02  1.250000000E+02  0.00000E+00  9.000E+00
      25     1     1     2     0     0  1.333640655E+02 -3.638803827E+01  1.161648671E+01  1.867351227E+02  1.250000000E+02  0.00000E+00  9.000E+00
      21     1     1     2   501   511  4.421563234E+01  8.474505687E+01  1.990939458E+02  2.208509589E+02  2.697398305E-06  0.00000E+00  9.000E+00
#rwgt            1           1   4.0055788957476260E-002           7      456909           0
</event>
<event>
      5   9999  3.79277E-02  3.20792E+01 -1.00000E+00  1.51046E-01
      21    -1     0     0   512   501  0.000000000E+00  0.000000000E+00  3.110870915E+02  3.110870915E+02  0.000000000E+00  0.00000E+00  9.000E+00
      21    -1     0     0   501   502  0.000000000E+00  0.000000000E+00 -2.396846685E+02  2.396846685E+02  0.000000000E+00  0.00000E+00  9.000E+00
      25     1     1     2     0     0  9.812250017E+01 -1.580357408E+02 -7.363229228E+01  2.359025961E+02  1.250000000E+02  0.00000E+00  9.000E+00
      25     1     1     2     0     0 -1.283525940E+02  1.687696376E+02  1.181973772E+02  2.730443168E+02  1.250000000E+02  0.00000E+00  9.000E+00
      21     1     1     2   512   502  3.023009383E+01 -1.073389680E+01  2.683733820E+01  4.182484710E+01  8.259061849E-07  0.00000E+00  9.000E+00
#rwgt            1           1   3.9284836829025498E-002           7      456945           0
</event>
<event>
      5   9999  3.79277E-02  3.20704E+02 -1.00000E+00  1.04659E-01
      21    -1     0     0   502   511  0.000000000E+00  0.000000000E+00  2.478158148E+02  2.478158148E+02  0.000000000E+00  0.00000E+00  9.000E+00
      21    -1     0     0   501   502  0.000000000E+00  0.000000000E+00 -1.047562814E+03  1.047562814E+03  0.000000000E+00  0.00000E+00  9.000E+00
      25     1     1     2     0     0 -2.597347336E+01 -1.516549441E+01 -5.320006159E+02  5.473155112E+02  1.250000000E+02  0.00000E+00  9.000E+00
      25     1     1     2     0     0  1.685974303E+02  3.024098894E+02 -2.047938501E+02  4.212390719E+02  1.250000000E+02  0.00000E+00  9.000E+00
      21     1     1     2   501   511 -1.426239569E+02 -2.872443949E+02 -6.295253346E+01  3.268240459E+02  3.234066955E-06  0.00000E+00  9.000E+00
#rwgt            1           1   3.8257906096097243E-002           7      457082           0
</event>
<event>
      5   9999  3.79277E-02  6.66334E+01 -1.00000E+00  1.32314E-01
      21    -1     0     0   502   501  0.000000000E+00  0.000000000E+00  7.015990958E+02  7.015990958E+02  0.000000000E+00  0.00000E+00  9.000E+00
      21    -1     0     0   501   512  0.000000000E+00  0.000000000E+00 -1.213204957E+02  1.213204957E+02  0.000000000E+00  0.00000E+00  9.000E+00
      25     1     1     2     0     0 -8.472396677E+01 -2.185940039E+02  1.459658458E+02  3.031377859E+02  1.250000000E+02  0.00000E+00  9.000E+00
      25     1     1     2     0     0  8.172403520E+01  1.520281548E+02  3.710780771E+02  4.279197555E+02  1.250000000E+02  0.00000E+00  9.000E+00
      21     1     1     2   502   512  2.999931575E+00  6.656584911E+01  6.323467713E+01  9.186205010E+01  1.168007728E-06  0.00000E+00  9.000E+00
#rwgt            1           1   3.9453313986639656E-002           7      457118           0
</event>
<event>
      5   9999  3.79277E-02  5.13173E+01 -1.00000E+00  1.38434E-01
      21    -1     0     0   502   501  0.000000000E+00  0.000000000E+00  3.012751324E+02  3.012751324E+02  0.000000000E+00  0.00000E+00  9.000E+00
      21    -1     0     0   511   502  0.000000000E+00  0.000000000E+00 -1.270470967E+03  1.270470967E+03  0.000000000E+00  0.00000E+00  9.000E+00
      25     1     1     2     0     0  8.912230382E+01 -1.121083156E+02 -3.016398881E+02  3.565426784E+02  1.250000000E+02  0.00000E+00  9.000E+00
      25     1     1     2     0     0 -1.403679354E+02  1.093973625E+02  2.297937353E+02  3.163875803E+02  1.250000000E+02  0.00000E+00  9.000E+00
      21     1     1     2   511   501  5.124563158E+01  2.710953060E+00 -8.973496820E+02  8.988158409E+02  1.078959322E-05  0.00000E+00  9.000E+00
#rwgt            1           1   8.3499924522052293E-002           7      457238           0
</event>
<event>
      5   9999  3.79277E-02  1.88955E+01 -1.00000E+00  1.68431E-01
      -2    -1     0     0     0   501  0.000000000E+00  0.000000000E+00  1.386737953E+02  1.386737953E+02  0.000000000E+00  0.00000E+00  9.000E+00
      21    -1     0     0   501   502  0.000000000E+00  0.000000000E+00 -4.058708536E+02  4.058708536E+02  0.000000000E+00  0.00000E+00  9.000E+00
      25     1     1     2     0     0 -1.728358800E+01 -8.511098249E+01 -1.465367088E+02  2.112832430E+02  1.250000000E+02  0.00000E+00  9.000E+00
      25     1     1     2     0     0  2.408176215E+01  1.027412486E+02 -1.961674883E+02  2.554258775E+02  1.250000000E+02  0.00000E+00  9.000E+00
      -2     1     1     2     0   502 -6.798174141E+00 -1.763026615E+01  7.550713880E+01  7.783552830E+01  2.336015456E-06  0.00000E+00  9.000E+00
#rwgt            1           1   4.0960788555939494E-002           7      457513           0
</event>
<event>
      5   9999  3.79277E-02  6.76906E+00 -1.00000E+00  2.17634E-01
      21    -1     0     0   502   501  0.000000000E+00  0.000000000E+00  6.985771730E+01  6.985771730E+01  0.000000000E+00  0.00000E+00  9.000E+00
      21    -1     0     0   511   502  0.000000000E+00  0.000000000E+00 -4.146751255E+02  4.146751255E+02  0.000000000E+00  0.00000E+00  9.000E+00
      25     1     1     2     0     0  1.645329040E+01 -8.494383710E+01 -2.594747742E+02  3.007296538E+02  1.250000000E+02  0.00000E+00  9.000E+00
      25     1     1     2     0     0 -1.275273815E+01  9.061183010E+01 -7.680557382E+01  1.729081613E+02  1.250000000E+02  0.00000E+00  9.000E+00
      21     1     1     2   511   501 -3.700552246E+00 -5.667993003E+00 -8.537060178E+00  1.089502768E+01  1.192092896E-07  0.00000E+00  9.000E+00
#rwgt            1           1   2.8280441253661255E-002           7      457654           0
</event>
<event>
      5   9999  3.79277E-02  2.08027E+01 -1.00000E+00  1.64971E-01
      21    -1     0     0   512   501  0.000000000E+00  0.000000000E+00  1.913073145E+02  1.913073145E+02  0.000000000E+00  0.00000E+00  9.000E+00
      21    -1     0     0   501   502  0.000000000E+00  0.000000000E+00 -3.634855250E+02  3.634855250E+02  0.000000000E+00  0.00000E+00  9.000E+00
      25     1     1     2     0     0  4.439202538E+01 -2.209421324E+02 -8.502653873E+01  2.713679975E+02  1.250000000E+02  0.00000E+00  9.000E+00
      25     1     1     2     0     0 -3.813836273E+01  2.011016654E+02 -9.902162850E+01  2.594738859E+02  1.250000000E+02  0.00000E+00  9.000E+00
      21     1     1     2   512   502 -6.253662646E+00  1.984046700E+01  1.186995668E+01  2.395095611E+01  2.384185791E-07  0.00000E+00  9.000E+00
#rwgt            1           1  0.15777691824122839                7      457958           0
</event>
<event>
      5   9999  3.79277E-02  3.56750E+02 -1.00000E+00  1.03204E-01
      21    -1     0     0   502   501  0.000000000E+00  0.000000000E+00  6.634886344E+02  6.634886344E+02  0.000000000E+00  0.00000E+00  9.000E+00
      21    -1     0     0   511   502  0.000000000E+00  0.000000000E+00 -4.131992218E+02  4.131992218E+02  0.000000000E+00  0.00000E+00  9.000E+00
      25     1     1     2     0     0  6.878520573E+01  2.079406399E+02  1.287537679E+02  2.831488072E+02  1.250000000E+02  0.00000E+00  9.000E+00
      25     1     1     2     0     0 -4.000668672E+02 -7.556593036E+01  9.078629678E+01  4.354662556E+02  1.250000000E+02  0.00000E+00  9.000E+00
      21     1     1     2   511   501  3.312816615E+02 -1.323747096E+02  3.074934801E+01  3.580727934E+02  6.852201397E-06  0.00000E+00  9.000E+00
#rwgt            1           1  0.10056960396740140                7      458158           0
</event>
<event>
      5   9999  3.79277E-02  1.95755E+01 -1.00000E+00  1.67141E-01
      21    -1     0     0   512   501  0.000000000E+00  0.000000000E+00  2.158371592E+03  2.158371592E+03  0.000000000E+00  0.00000E+00  9.000E+00
      21    -1     0     0   501   502  0.000000000E+00  0.000000000E+00 -1.857677204E+01  1.857677204E+01  0.000000000E+00  0.00000E+00  9.000E+00
      25     1     1     2     0     0  1.324209765E+02  7.047586762E+01  9.370781018E+02  9.572055849E+02  1.250000000E+02  0.00000E+00  9.000E+00
      25     1     1     2     0     0 -1.218279905E+02 -5.401407115E+01  1.050345770E+03  1.066119513E+03  1.250000000E+02  0.00000E+00  9.000E+00
      21     1     1     2   512   502 -1.059298599E+01 -1.646179647E+01  1.523709485E+02  1.536232666E+02  0.000000000E+00  0.00000E+00  9.000E+00
#rwgt            1           1  0.10502644151201974                7      458200           0
</event>
<event>
      5   9999  3.79277E-02  4.17855E+01 -1.00000E+00  1.43674E-01
      21    -1     0     0   511   501  0.000000000E+00  0.000000000E+00  2.157458192E+02  2.157458192E+02  0.000000000E+00  0.00000E+00  9.000E+00
      21    -1     0     0   501   502  0.000000000E+00  0.000000000E+00 -2.932353243E+02  2.932353243E+02  0.000000000E+00  0.00000E+00  9.000E+00
      25     1     1     2     0     0 -1.148711943E+02 -2.293682254E+01  5.722069917E+01  1.806120082E+02  1.250000000E+02  0.00000E+00  9.000E+00
      25     1     1     2     0     0  8.726587800E+01  5.430513983E+01 -1.960091734E+02  2.541829612E+02  1.250000000E+02  0.00000E+00  9.000E+00
      21     1     1     2   511   502  2.760531626E+01 -3.136831728E+01  6.129896918E+01  7.418617417E+01  1.168007728E-06  0.00000E+00  9.000E+00
#rwgt            1           1   4.2150495546299335E-002           7      458448           0
</event>
<event>
      5   9999  3.79277E-02  1.87842E+01 -1.00000E+00  1.68648E-01
      21    -1     0     0   502   512  0.000000000E+00  0.000000000E+00  6.492892163E+01  6.492892163E+01  0.000000000E+00  0.00000E+00  9.000E+00
      21    -1     0     0   501   502  0.000000000E+00  0.000000000E+00 -1.054775442E+03  1.054775442E+03  0.000000000E+00  0.00000E+00  9.000E+00
      25     1     1     2     0     0  1.411761784E+02  5.661659841E+01 -4.992963736E+02  5.367103700E+02  1.250000000E+02  0.00000E+00  9.000E+00
      25     1     1     2     0     0 -1.589592756E+02 -5.056610099E+01 -5.129942392E+02  5.537265312E+02  1.250000000E+02  0.00000E+00  9.000E+00
      21     1     1     2   501   512  1.778309715E+01 -6.050497421E+00  2.244409253E+01  2.926746236E+01  5.840038640E-07  0.00000E+00  9.000E+00
#rwgt            1           1   4.4585427494264203E-002           7      458647           0
</event>
<event>
      5   9999  3.79277E-02  2.11977E+01 -1.00000E+00  1.64312E-01
      21    -1     0     0   511   501  0.000000000E+00  0.000000000E+00  1.251060867E+02  1.251060867E+02  0.000000000E+00  0.00000E+00  9.000E+00
      21    -1     0     0   501   502  0.000000000E+00  0.000000000E+00 -2.328589164E+02  2.328589164E+02  0.000000000E+00  0.00000E+00  9.000E+00
      25     1     1     2     0     0 -3.894845738E+01  2.656685691E+01 -1.520842057E+02  2.024287179E+02  1.250000000E+02  0.00000E+00  9.000E+00
      25     1     1     2     0     0  2.405724016E+01 -1.148065433E+01  3.974922443E+01  1.338490085E+02  1.250000000E+02  0.00000E+00  9.000E+00
      21     1     1     2   511   502  1.489121722E+01 -1.508620259E+01  4.582151619E+00  2.168727674E+01  5.331201500E-07  0.00000E+00  9.000E+00
#rwgt            1           1   5.6477826345825308E-002           7      458794           0
</event>
<event>
      5   9999  3.79277E-02  5.32135E+01 -1.00000E+00  1.37549E-01
      21    -1     0     0   502   501  0.000000000E+00  0.000000000E+00  1.445706421E+03  1.445706421E+03  0.000000000E+00  0.00000E+00  9.000E+00
      -2    -1     0     0     0   502  0.000000000E+00  0.000000000E+00 -6.160074399E+01  6.160074399E+01  0.000000000E+00  0.00000E+00  9.000E+00
      25     1     1     2     0     0  6.436390237E+01  1.299624282E+02  8.177805880E+02  8.398946570E+02  1.250000000E+02  0.00000E+00  9.000E+00
      25     1     1     2     0     0 -2.070408994E+01 -1.603843444E+02  5.778776005E+02  6.129594754E+02  1.250000000E+02  0.00000E+00  9.000E+00
      -2     1     1     2     0   501 -4.365981243E+01  3.042191626E+01 -1.155251176E+01  5.445303240E+01  1.743881564E-06  0.00000E+00  9.000E+00
#rwgt            1           1   4.0821990138626793E-002           7      458969           0
</event>
<event>
      5   9999  3.79277E-02  1.47811E+02 -1.00000E+00  1.16647E-01
      21    -1     0     0   511   501  0.000000000E+00  0.000000000E+00  2.136152753E+02  2.136152753E+02  0.000000000E+00  0.00000E+00  9.000E+00
      21    -1     0     0   501   502  0.000000000E+00  0.000000000E+00 -3.074837222E+02  3.074837222E+02  0.000000000E+00  0.00000E+00  9.000E+00
      25     1     1     2     0     0 -1.557204874E+01 -2.752761234E+01 -8.517567429E+01  1.545320473E+02  1.250000000E+02  0.00000E+00  9.000E+00
      25     1     1     2     0     0  1.930445176E+01  1.752915983E+02 -2.612169097E+01  2.177318282E+02  1.250000000E+02  0.00000E+00  9.000E+00
      21     1     1     2   511   502 -3.732403012E+00 -1.477639859E+02  1.742891835E+01  1.488351221E+02  1.634515429E-06  0.00000E+00  9.000E+00
#rwgt            1           1   1.4823511787092443E-002           7      459047           0
</event>
<event>
      5   9999  3.79277E-02  4.62199E+01 -1.00000E+00  1.41052E-01
      21    -1     0     0   502   501  0.000000000E+00  0.000000000E+00  8.680466732E+02  8.680466732E+02  0.000000000E+00  0.00000E+00  9.000E+00
      21    -1     0     0   501   512  0.000000000E+00  0.000000000E+00 -1.747173855E+02  1.747173855E+02  0.000000000E+00  0.00000E+00  9.000E+00
      25     1     1     2     0     0 -2.093095314E+02 -4.814824755E+01  7.331115385E+02  7.740841438E+02  1.250000000E+02  0.00000E+00  9.000E+00
      25     1     1     2     0     0  1.671091576E+02  6.700054441E+01 -2.782531280E+01  2.209384338E+02  1.250000000E+02  0.00000E+00  9.000E+00
      21     1     1     2   502   512  4.220037382E+01 -1.885229686E+01 -1.195693802E+01  4.774148106E+01  8.259061849E-07  0.00000E+00  9.000E+00
#rwgt            1           1   3.5064661494747254E-002           7      459109           0
</event>
<event>
      5   9999  3.79277E-02  1.30634E+02 -1.00000E+00  1.18824E-01
      21    -1     0     0   502   501  0.000000000E+00  0.000000000E+00  2.613186919E+02  2.613186919E+02  0.000000000E+00  0.00000E+00  9.000E+00
      21    -1     0     0   501   511  0.000000000E+00  0.000000000E+00 -4.925073446E+02  4.925073446E+02  0.000000000E+00  0.00000E+00  9.000E+00
      25     1     1     2     0     0  1.341203497E+02  7.666331458E+01 -9.642477097E+01  2.208806657E+02  1.250000000E+02  0.00000E+00  9.000E+00
      25     1     1     2     0     0 -1.912380849E+01 -1.468643832E+01  1.635654073E+02  2.072680728E+02  1.250000000E+02  0.00000E+00  9.000E+00
      21     1     1     2   502   511 -1.149965413E+02 -6.197687625E+01 -2.983292891E+02  3.256772980E+02  0.000000000E+00  0.00000E+00  9.000E+00
#rwgt            1           1   4.8606911570815051E-002           7      459309           0
</event>
<event>
      5   9999  3.79277E-02  1.22423E+01 -1.00000E+00  1.86120E-01
      21    -1     0     0   502   501  0.000000000E+00  0.000000000E+00  1.500788480E+02  1.500788480E+02  0.000000000E+00  0.00000E+00  9.000E+00
      21    -1     0     0   501   512  0.000000000E+00  0.000000000E+00 -1.533555555E+03  1.533555555E+03  0.000000000E+00  0.00000E+00  9.000E+00
      25     1     1     2     0     0 -1.889082216E+02  1.071340733E+01  4.960511292E+01  2.321352203E+02  1.250000000E+02  0.00000E+00  9.000E+00
      25     1     1     2     0     0  1.780421116E+02 -5.074126774E+00 -1.377868149E+03  1.394944578E+03  1.250000000E+02  0.00000E+00  9.000E+00
      21     1     1     2   502   512  1.086610992E+01 -5.639280556E+00 -5.521367061E+01  5.655460416E+01  6.743495762E-07  0.00000E+00  9.000E+00
#rwgt            1           1  0.15613198901422815                7      459418           0
</event>
<event>
      5   9999  3.79277E-02  1.09656E+02 -1.00000E+00  1.22054E-01
      21    -1     0     0   502   511  0.000000000E+00  0.000000000E+00  3.177556801E+02  3.177556801E+02  0.000000000E+00  0.00000E+00  9.000E+00
      21    -1     0     0   501   502  0.000000000E+00  0.000000000E+00 -5.686701622E+02  5.686701622E+02  0.000000000E+00  0.00000E+00  9.000E+00
      25     1     1     2     0     0  9.114031236E+00  2.443260797E+02 -3.118314996E+02  4.155023260E+02  1.250000000E+02  0.00000E+00  9.000E+00
      25     1     1     2     0     0 -8.511956313E+01 -3.233684069E+02  5.404820901E+01  3.610521783E+02  1.250000000E+02  0.00000E+00  9.000E+00
      21     1     1     2   501   511  7.600553189E+01  7.904232717E+01  6.868808508E+00  1.098713379E+02  9.757700887E-07  0.00000E+00  9.000E+00
#rwgt            1           1   4.6715299353936965E-002           7      459654           0
</event>
<event>
      5   9999  3.79277E-02  2.48235E+01 -1.00000E+00  1.58982E-01
      21    -1     0     0   502   512  0.000000000E+00  0.000000000E+00  5.248699833E+02  5.248699833E+02  0.000000000E+00  0.00000E+00  9.000E+00
      21    -1     0     0   501   502  0.000000000E+00  0.000000000E+00 -2.402041478E+02  2.402041478E+02  0.000000000E+00  0.00000E+00  9.000E+00
      25     1     1     2     0     0  5.990567854E+01 -2.738726287E+02 -3.916307432E+00  3.069775962E+02  1.250000000E+02  0.00000E+00  9.000E+00
      25     1     1     2     0     0 -7.736982125E+01  2.915137168E+02  2.459256419E+02  4.087428992E+02  1.250000000E+02  0.00000E+00  9.000E+00
      21     1     1     2   501   512  1.746414270E+01 -1.764108802E+01  4.265650107E+01  4.935363564E+01  6.743495762E-07  0.00000E+00  9.000E+00
#rwgt            1           1   4.5401185127190123E-002           7      459723           0
</event>
<event>
      5   9999  3.79277E-02  1.30776E+01 -1.00000E+00  1.83185E-01
      21    -1     0     0   511   501  0.000000000E+00  0.000000000E+00  5.854447004E+01  5.854447004E+01  0.000000000E+00  0.00000E+00  9.000E+00
      21    -1     0     0   501   502  0.000000000E+00  0.000000000E+00 -9.711961087E+02  9.711961087E+02  0.000000000E+00  0.00000E+00  9.000E+00
      25     1     1     2     0     0 -5.030899414E+01  1.140814368E+02 -7.255556072E+02  7.467271980E+02  1.250000000E+02  0.00000E+00  9.000E+00
      25     1     1     2     0     0  4.843973697E+01 -1.270247285E+02 -1.943142803E+02  2.680759767E+02  1.250000000E+02  0.00000E+00  9.000E+00
      21     1     1     2   511   502  1.869257169E+00  1.294329170E+01  7.218248816E+00  1.493740400E+01  1.460009660E-07  0.00000E+00  9.000E+00
#rwgt            1           1   5.1901745995005730E-002           7      459913           0
</event>
<event>
      5   9999  3.79277E-02  1.01697E+02 -1.00000E+00  1.23500E-01
      21    -1     0     0   512   501  0.000000000E+00  0.000000000E+00  8.001414381E+02  8.001414381E+02  0.000000000E+00  0.00000E+00  9.000E+00
      21    -1     0     0   501   502  0.000000000E+00  0.000000000E+00 -5.817983376E+01  5.817983376E+01  0.000000000E+00  0.00000E+00  9.000E+00
      25     1     1     2     0     0 -9.934764768E+01  8.026130489E+00  3.276522914E+02  3.645756409E+02  1.250000000E+02  0.00000E+00  9.000E+00
      25     1     1     2     0     0  4.534616192E+01 -9.420060200E+01  2.127918301E+02  2.680212506E+02  1.250000000E+02  0.00000E+00  9.000E+00
      21     1     1     2   512   502  5.400148576E+01  8.617447151E+01  2.015174828E+02  2.257243804E+02  0.000000000E+00  0.00000E+00  9.000E+00
#rwgt            1           1   2.2014859271072034E-002           7      460207           0
</event>
<event>
      5   9999  3.79277E-02  1.84295E+01 -1.00000E+00  1.69354E-01
      21    -1     0     0   502   511  0.000000000E+00  0.000000000E+00  3.418300268E+03  3.418300268E+03  0.000000000E+00  0.00000E+00  9.000E+00
      21    -1     0     0   501   502  0.000000000E+00  0.000000000E+00 -1.848433148E+01  1.848433148E+01  0.000000000E+00  0.00000E+00  9.000E+00
      25     1     1     2     0     0 -6.970225283E+01  1.867879460E+02  1.386249708E+03  1.406080152E+03  1.250000000E+02  0.00000E+00  9.000E+00
      25     1     1     2     0     0  8.752672498E+01 -1.914715140E+02  1.873091411E+03  1.889025861E+03  1.250000000E+02  0.00000E+00  9.000E+00
      21     1     1     2   501   511 -1.782447215E+01  4.683567984E+00  1.404748176E+02  1.416785870E+02  0.000000000E+00  0.00000E+00  9.000E+00
#rwgt            1           1   2.3237636717860957E-002           7      460286           0
</event>
<event>
      5   9999  3.79277E-02  5.75382E+00 -1.00000E+00  2.28335E-01
      21    -1     0     0   502   501  0.000000000E+00  0.000000000E+00  1.056169894E+02  1.056169894E+02  0.000000000E+00  0.00000E+00  9.000E+00
      21    -1     0     0   501   512  0.000000000E+00  0.000000000E+00 -3.173464020E+02  3.173464020E+02  0.000000000E+00  0.00000E+00  9.000E+00
      25     1     1     2     0     0 -3.684948467E+01  5.882725657E+01 -2.312030444E+02  2.718425618E+02  1.250000000E+02  0.00000E+00  9.000E+00
      25     1     1     2     0     0  3.568000142E+01 -5.319354056E+01  2.554172652E+01  1.427585201E+02  1.250000000E+02  0.00000E+00  9.000E+00
      21     1     1     2   502   512  1.169483249E+00 -5.633716012E+00 -6.068094685E+00  8.362309506E+00  8.429369702E-08  0.00000E+00  9.000E+00
#rwgt            1           1   4.0183444559369938E-002           7      460493           0
</event>
<event>
      5   9999  3.79277E-02  5.88808E+01 -1.00000E+00  1.35142E-01
      21    -1     0     0   502   501  0.000000000E+00  0.000000000E+00  7.079972313E+01  7.079972313E+01  0.000000000E+00  0.00000E+00  9.000E+00
      21    -1     0     0   511   502  0.000000000E+00  0.000000000E+00 -7.490896361E+02  7.490896361E+02  0.000000000E+00  0.00000E+00  9.000E+00
      25     1     1     2     0     0  5.620415429E+01 -1.073298879E+02 -4.468405401E+02  4.795519577E+02  1.250000000E+02  0.00000E+00  9.000E+00
      25     1     1     2     0     0 -9.274490513E+01  6.115929476E+01 -9.644391510E+01  1.930505258E+02  1.250000000E+02  0.00000E+00  9.000E+00
      21     1     1     2   511   501  3.654075084E+01  4.617059314E+01 -1.350054577E+02  1.472868757E+02  1.907348633E-06  0.00000E+00  9.000E+00
#rwgt            1           1   5.8406454436229015E-002           7      460855           0
</event>
<event>
      5   9999  3.79277E-02  2.70391E+01 -1.00000E+00  1.56242E-01
      21    -1     0     0   502   501  0.000000000E+00  0.000000000E+00  1.502987964E+03  1.502987964E+03  0.000000000E+00  0.00000E+00  9.000E+00
      21    -1     0     0   501   512  0.000000000E+00  0.000000000E+00 -3.968254352E+01  3.968254352E+01  0.000000000E+00  0.00000E+00  9.000E+00
      25     1     1     2     0     0  1.918398177E+02  7.067262031E+01  7.620556415E+02  7.988434989E+02  1.250000000E+02  0.00000E+00  9.000E+00
      25     1     1     2     0     0 -1.667921821E+02 -6.048800269E+01  6.575180385E+02  6.924112950E+02  1.250000000E+02  0.00000E+00  9.000E+00
      21     1     1     2   502   512 -2.504763561E+01 -1.018461761E+01  4.373174028E+01  5.141571348E+01  4.768371582E-07  0.00000E+00  9.000E+00
#rwgt            1           1   2.8457884286174483E-002           7      460907           0
</event>
<event>
      5   9999  3.79277E-02  3.16160E+01 -1.00000E+00  1.51474E-01
      21    -1     0     0   502   501  0.000000000E+00  0.000000000E+00  1.351174854E+03  1.351174854E+03  0.000000000E+00  0.00000E+00  9.000E+00
      21    -1     0     0   511   502  0.000000000E+00  0.000000000E+00 -2.403191424E+01  2.403191424E+01  0.000000000E+00  0.00000E+00  9.000E+00
      25     1     1     2     0     0 -5.653593952E+01  5.116883641E+00  2.667118776E+02  2.999711996E+02  1.250000000E+02  0.00000E+00  9.000E+00
      25     1     1     2     0     0  3.232158225E+01  1.521138067E+01  9.835929580E+02  9.921472561E+02  1.250000000E+02  0.00000E+00  9.000E+00
      21     1     1     2   511   501  2.421435727E+01 -2.032826431E+01  7.683810454E+01  8.308831288E+01  9.536743164E-07  0.00000E+00  9.000E+00
#rwgt            1           1   4.8746200609770952E-002           7      461104           0
</event>
<event>
      5   9999  3.79277E-02  5.29029E+01 -1.00000E+00  1.37691E-01
      21    -1     0     0   502   501  0.000000000E+00  0.000000000E+00  1.533223858E+02  1.533223858E+02  0.000000000E+00  0.00000E+00  9.000E+00
       2    -1     0     0   501     0  0.000000000E+00  0.000000000E+00 -1.516395237E+03  1.516395237E+03  0.000000000E+00  0.00000E+00  9.000E+00
      25     1     1     2     0     0  1.412054125E+02 -5.392574644E+01 -1.444064999E+02  2.435676331E+02  1.250000000E+02  0.00000E+00  9.000E+00
      25     1     1     2     0     0 -8.897223005E+01  4.553430278E+01  4.112819499E+01  1.652451478E+02  1.250000000E+02  0.00000E+00  9.000E+00
       2     1     1     2   502     0 -5.223318249E+01  8.391443658E+00 -1.259794547E+03  1.260904842E+03  1.525878906E-05  0.00000E+00  9.000E+00
#rwgt            1           1   4.2263628711348179E-002           7      461331           0
</event>
<event>
      5   9999  3.79277E-02  5.00642E+01 -1.00000E+00  1.39044E-01
      21    -1     0     0   502   501  0.000000000E+00  0.000000000E+00  1.192601732E+02  1.192601732E+02  0.000000000E+00  0.00000E+00  9.000E+00
      21    -1     0     0   501   511  0.000000000E+00  0.000000000E+00 -6.438083623E+02  6.438083623E+02  0.000000000E+00  0.00000E+00  9.000E+00
      25     1     1     2     0     0  9.190454266E+01 -9.099758899E+01 -2.459437610E+02  3.046971279E+02  1.250000000E+02  0.00000E+00  9.000E+00
      25     1     1     2     0     0 -8.458115816E+01  1.405232723E+02 -3.437459227E+01  2.090630885E+02  1.250000000E+02  0.00000E+00  9.000E+00
      21     1     1     2   502   511 -7.323384496E+00 -4.952568326E+01 -2.442298358E+02  2.493083191E+02  0.000000000E+00  0.00000E+00  9.000E+00
#rwgt            1           1   2.6792645725382903E-002           7      461468           0
</event>
<event>
      5   9999  3.79277E-02  2.32415E+01 -1.00000E+00  1.61161E-01
      21    -1     0     0   512   501  0.000000000E+00  0.000000000E+00  4.089563750E+02  4.089563750E+02  0.000000000E+00  0.00000E+00  9.000E+00
      21    -1     0     0   501   502  0.000000000E+00  0.000000000E+00 -1.148601664E+02  1.148601664E+02  0.000000000E+00  0.00000E+00  9.000E+00
      25     1     1     2     0     0 -1.088122892E+02 -1.079497671E+02  1.084908633E+02  2.255848707E+02  1.250000000E+02  0.00000E+00  9.000E+00
      25     1     1     2     0     0  1.319237131E+02  1.054938812E+02  1.690714467E+02  2.697090639E+02  1.250000000E+02  0.00000E+00  9.000E+00
      21     1     1     2   512   502 -2.311142395E+01  2.455885855E+00  1.653389865E+01  2.852260677E+01  2.384185791E-07  0.00000E+00  9.000E+00
#rwgt            1           1   2.5534533603202986E-002           7      461678           0
</event>
<event>
      5   9999  3.79277E-02  4.50437E+01 -1.00000E+00  1.41713E-01
      21    -1     0     0   502   501  0.000000000E+00  0.000000000E+00  8.989337635E+02  8.989337635E+02  0.000000000E+00  0.00000E+00  9.000E+00
      21    -1     0     0   511   502  0.000000000E+00  0.000000000E+00 -6.989570922E+01  6.989570922E+01  0.000000000E+00  0.00000E+00  9.000E+00
      25     1     1     2     0     0  1.547907884E+02 -8.445463702E+01  5.206645659E+02  5.637458328E+02  1.250000000E+02  0.00000E+00  9.000E+00
      25     1     1     2     0     0 -1.408477118E+02  4.162331147E+01  3.037477149E+02  3.598030743E+02  1.250000000E+02  0.00000E+00  9.000E+00
      21     1     1     2   511   501 -1.394307663E+01  4.283132555E+01  4.625773479E+00  4.528056552E+01  7.656355249E-07  0.00000E+00  9.000E+00
#rwgt            1           1   3.2799199951662784E-002           7      461818           0
</event>
<event>
      5   9999  3.79277E-02  1.71152E+01 -1.00000E+00  1.72151E-01
      21    -1     0     0   502   501  0.000000000E+00  0.000000000E+00  7.986299758E+01  7.986299758E+01  0.000000000E+00  0.00000E+00  9.000E+00
      -2    -1     0     0     0   502  0.000000000E+00  0.000000000E+00 -1.359054236E+03  1.359054236E+03  0.000000000E+00  0.00000E+00  9.000E+00
      25     1     1     2     0     0  1.948440827E+02 -1.765827760E+02 -5.038088307E+02  5.818883322E+02  1.250000000E+02  0.00000E+00  9.000E+00
      25     1     1     2     0     0 -1.816168951E+02  1.874442017E+02 -4.753542603E+02  5.565129811E+02  1.250000000E+02  0.00000E+00  9.000E+00
      -2     1     1     2     0   501 -1.322718760E+01 -1.086142567E+01 -3.000281471E+02  3.005159199E+02  3.814697266E-06  0.00000E+00  9.000E+00
#rwgt            1           1   3.1815637957634937E-002           7      461970           0
</event>
<event>
      5   9999  3.79277E-02  1.08777E+02 -1.00000E+00  1.22207E-01
      21    -1     0     0   502   501  0.000000000E+00  0.000000000E+00  1.541622403E+03  1.541622403E+03  0.000000000E+00  0.00000E+00  9.000E+00
      21    -1     0     0   511   502  0.000000000E+00  0.000000000E+00 -5.648574475E+01  5.648574475E+01  0.000000000E+00  0.00000E+00  9.000E+00
      25     1     1     2     0     0 -1.724646393E+02 -7.811507829E+01  9.434094678E+02  9.703053340E+02  1.250000000E+02  0.00000E+00  9.000E+00
      25     1     1     2     0     0  1.252576846E+02 -1.988468830E+01  4.552558666E+02  4.888433210E+02  1.250000000E+02  0.00000E+00  9.000E+00
      21     1     1     2   511   501  4.720695464E+01  9.799976658E+01  8.647132420E+01  1.389594931E+02  1.651812370E-06  0.00000E+00  9.000E+00
#rwgt            1           1  0.13995395550656969                7      462203           0
</event>
<event>
      5   9999  3.79277E-02  6.23230E+01 -1.00000E+00  1.33828E-01
      21    -1     0     0   502   501  0.000000000E+00  0.000000000E+00  3.667243187E+02  3.667243187E+02  0.000000000E+00  0.00000E+00  9.000E+00
      21    -1     0     0   512   502  0.000000000E+00  0.000000000E+00 -1.150000069E+02  1.150000069E+02  0.000000000E+00  0.00000E+00  9.000E+00
      25     1     1     2     0     0 -9.994084244E+01  8.819081553E+00  4.399935615E+01  1.662133915E+02  1.250000000E+02  0.00000E+00  9.000E+00
      25     1     1     2     0     0  6.659104324E+01 -6.146839507E+01  2.000742430E+02  2.527200691E+02  1.250000000E+02  0.00000E+00  9.000E+00
      21     1     1     2   512   501  3.334979920E+01  5.264931352E+01  7.650712714E+00  6.279086499E+01  1.264405455E-06  0.00000E+00  9.000E+00
#rwgt            1           1   2.0702507297796897E-002           7      462265           0
</event>
<event>
      5   9999  3.79277E-02  4.21967E+01 -1.00000E+00  1.43415E-01
      21    -1     0     0   502   501  0.000000000E+00  0.000000000E+00  1.255998579E+02  1.255998579E+02  0.000000000E+00  0.00000E+00  9.000E+00
      21    -1     0     0   511   502  0.000000000E+00  0.000000000E+00 -1.865773147E+03  1.865773147E+03  0.000000000E+00  0.00000E+00  9.000E+00
      25     1     1     2     0     0 -8.217202999E+01  3.907921991E+01  2.024249985E+01  1.559300700E+02  1.250000000E+02  0.00000E+00  9.000E+00
      25     1     1     2     0     0  1.079267673E+02 -5.653915588E+00 -1.460778379E+02  2.205535957E+02  1.250000000E+02  0.00000E+00  9.000E+00
      21     1     1     2   511   501 -2.575473731E+01 -3.342530432E+01 -1.614337951E+03  1.614889339E+03  0.000000000E+00  0.00000E+00  9.000E+00
#rwgt            1           1   3.8517298490020752E-002           7      462415           0
</event>
<event>
      5   9999  3.79277E-02  8.43406E+01 -1.00000E+00  1.27249E-01
      21    -1     0     0   502   501  0.000000000E+00  0.000000000E+00  1.850954448E+03  1.850954448E+03  0.000000000E+00  0.00000E+00  9.000E+00
      21    -1     0     0   512   502  0.000000000E+00  0.000000000E+00 -6.001629079E+01  6.001629079E+01  0.000000000E+00  0.00000E+00  9.000E+00
      25     1     1     2     0     0 -3.172272287E+00 -6.275711717E+01  2.216144313E+02  2.620810471E+02  1.250000000E+02  0.00000E+00  9.000E+00
      25     1     1     2     0     0 -8.035928832E+01  5.110343898E+01  1.555507458E+03  1.563424968E+03  1.250000000E+02  0.00000E+00  9.000E+00
      21     1     1     2   512   501  8.353156060E+01  1.165367819E+01  1.381626778E+01  8.546472423E+01  2.528810911E-06  0.00000E+00  9.000E+00
#rwgt            1           1   1.5602082840165689E-002           7      462532           0
</event>
<event>
      5   9999  3.79277E-02  6.90009E+01 -1.00000E+00  1.31538E-01
      21    -1     0     0   502   511  0.000000000E+00  0.000000000E+00  1.264073342E+02  1.264073342E+02  0.000000000E+00  0.00000E+00  9.000E+00
      21    -1     0     0   501   502  0.000000000E+00  0.000000000E+00 -5.906843529E+02  5.906843529E+02  0.000000000E+00  0.00000E+00  9.000E+00
      25     1     1     2     0     0 -1.311033716E+02  1.225332875E+01 -4.690641671E+02  5.029755769E+02  1.250000000E+02  0.00000E+00  9.000E+00
      25     1     1     2     0     0  6.547783008E+01 -3.357024718E+01  4.319745069E+00  1.451136380E+02  1.250000000E+02  0.00000E+00  9.000E+00
      21     1     1     2   501   511  6.562554152E+01  2.131691844E+01  4.674033299E-01  6.900247225E+01  2.014352341E-06  0.00000E+00  9.000E+00
#rwgt            1           1   3.2741409438677219E-002           7      462625           0
</event>
<event>
      5   9999  3.79277E-02  1.93149E+01 -1.00000E+00  1.67628E-01
      21    -1     0     0   502   501  0.000000000E+00  0.000000000E+00  1.409064781E+03  1.409064781E+03  0.000000000E+00  0.00000E+00  9.000E+00
      21    -1     0     0   512   502  0.000000000E+00  0.000000000E+00 -3.085393625E+01  3.085393625E+01  0.000000000E+00  0.00000E+00  9.000E+00
      25     1     1     2     0     0 -4.583243223E+01 -1.219560844E+02  8.502207851E+02  8.691802355E+02  1.250000000E+02  0.00000E+00  9.000E+00
      25     1     1     2     0     0  4.527848115E+01  1.412630405E+02  5.033087649E+02  5.393979053E+02  1.250000000E+02  0.00000E+00  9.000E+00
      21     1     1     2   512   501  5.539510817E-01 -1.930695615E+01  2.468129472E+01  3.134057636E+01  3.371747881E-07  0.00000E+00  9.000E+00
#rwgt            1           1   7.9079064826575007E-002           7      462698           0
</event>
<event>
      5   9999 -3.79277E-02  7.88134E+01 -1.00000E+00  1.28664E-01
      -2    -1     0     0     0   501  0.000000000E+00  0.000000000E+00  4.075674236E+02  4.075674236E+02  0.000000000E+00  0.00000E+00  9.000E+00
      21    -1     0     0   501   502  0.000000000E+00  0.000000000E+00 -2.269140127E+02  2.269140127E+02  0.000000000E+00  0.00000E+00  9.000E+00
      25     1     1     2     0     0 -7.095689338E+01  2.234915810E+02  6.920700683E+01  2.745869212E+02  1.250000000E+02  0.00000E+00  9.000E+00
      25     1     1     2     0     0 -7.853685229E+00 -2.241584386E+02  5.406624885E+01  2.624058788E+02  1.250000000E+02  0.00000E+00  9.000E+00
      -2     1     1     2     0   502  7.881057860E+01  6.668575956E-01  5.738015526E+01  9.748863634E+01  0.000000000E+00  0.00000E+00  9.000E+00
#rwgt            1           1 -0.24509476154682194                7      462870           0
</event>
<event>
      5   9999  3.79277E-02  1.21315E+02 -1.00000E+00  1.20168E-01
      21    -1     0     0   502   501  0.000000000E+00  0.000000000E+00  3.302033332E+02  3.302033332E+02  0.000000000E+00  0.00000E+00  9.000E+00
      21    -1     0     0   511   502  0.000000000E+00  0.000000000E+00 -2.479360507E+02  2.479360507E+02  0.000000000E+00  0.00000E+00  9.000E+00
      25     1     1     2     0     0  1.299728545E+02 -4.435003241E+01  1.002217141E+01  1.859712672E+02  1.250000000E+02  0.00000E+00  9.000E+00
      25     1     1     2     0     0 -1.725020636E+02 -6.926632493E+01  1.287136826E+02  2.583544035E+02  1.250000000E+02  0.00000E+00  9.000E+00
      21     1     1     2   511   501  4.252920905E+01  1.136163573E+02 -5.646857156E+01  1.338137132E+02  3.234066955E-06  0.00000E+00  9.000E+00
#rwgt            1           1   3.3117454577335941E-002           7      462957           0
</event>
<event>
      5   9999  3.79277E-02  6.56413E+01 -1.00000E+00  1.32651E-01
      21    -1     0     0   512   501  0.000000000E+00  0.000000000E+00  7.320576006E+02  7.320576006E+02  0.000000000E+00  0.00000E+00  9.000E+00
      21    -1     0     0   501   502  0.000000000E+00  0.000000000E+00 -1.078286992E+02  1.078286992E+02  0.000000000E+00  0.00000E+00  9.000E+00
      25     1     1     2     0     0  4.406766395E+01  1.966626350E+02  2.115161590E+02  3.177770233E+02  1.250000000E+02  0.00000E+00  9.000E+00
      25     1     1     2     0     0 -1.095414766E+02 -1.919767279E+02  3.356279856E+02  4.208628563E+02  1.250000000E+02  0.00000E+00  9.000E+00
      21     1     1     2   512   502  6.547381265E+01 -4.685907107E+00  7.708475678E+01  1.012464202E+02  2.132480600E-06  0.00000E+00  9.000E+00
#rwgt            2          11   3.2531254258897566E-003           7      463200           0
</event>
<event>
      5   9999  3.79277E-02  4.28067E+01 -1.00000E+00  1.43037E-01
      -2    -1     0     0     0   501  0.000000000E+00  0.000000000E+00  4.916029230E+02  4.916029230E+02  0.000000000E+00  0.00000E+00  9.000E+00
      21    -1     0     0   501   502  0.000000000E+00  0.000000000E+00 -1.638801804E+02  1.638801804E+02  0.000000000E+00  0.00000E+00  9.000E+00
      25     1     1     2     0     0  1.066230082E+02 -5.870320045E+01 -7.648145772E+00  1.746368396E+02  1.250000000E+02  0.00000E+00  9.000E+00
      25     1     1     2     0     0 -1.007938733E+02  1.011111587E+02  5.548097927E+01  1.977018219E+02  1.250000000E+02  0.00000E+00  9.000E+00
      -2     1     1     2     0   502 -5.829134908E+00 -4.240795830E+01  2.798899091E+02  2.831444418E+02  5.394796609E-06  0.00000E+00  9.000E+00
#rwgt            1           1   4.5333217041162020E-002           7      463280           0
</event>
<event>
      5   9999  3.79277E-02  3.02139E+01 -1.00000E+00  1.52826E-01
      21    -1     0     0   511   501  0.000000000E+00  0.000000000E+00  3.582977018E+02  3.582977018E+02  0.000000000E+00  0.00000E+00  9.000E+00
      21    -1     0     0   501   502  0.000000000E+00  0.000000000E+00 -2.155493382E+02  2.155493382E+02  0.000000000E+00  0.00000E+00  9.000E+00
      25     1     1     2     0     0 -2.247502113E+01  5.921639351E+01 -1.342305630E+02  1.940478083E+02  1.250000000E+02  0.00000E+00  9.000E+00
      25     1     1     2     0     0 -5.764093941E+00 -4.847259847E+01  3.876959168E+01  1.396814190E+02  1.250000000E+02  0.00000E+00  9.000E+00
      21     1     1     2   511   502  2.823911507E+01 -1.074379505E+01  2.382093349E+02  2.401178128E+02  0.000000000E+00  0.00000E+00  9.000E+00
#rwgt            1           1   5.4643555858318760E-002           7      463402           0
</event>
<event>
      5   9999  3.79277E-02  1.06371E+01 -1.00000E+00  1.92707E-01
      21    -1     0     0   502   501  0.000000000E+00  0.000000000E+00  2.158402301E+02  2.158402301E+02  0.000000000E+00  0.00000E+00  9.000E+00
       2    -1     0     0   501     0  0.000000000E+00  0.000000000E+00 -8.450995951E+02  8.450995951E+02  0.000000000E+00  0.00000E+00  9.000E+00
      25     1     1     2     0     0 -1.259639582E+01  1.256575958E+02 -7.081846707E+01  1.912818754E+02  1.250000000E+02  0.00000E+00  9.000E+00
      25     1     1     2     0     0  4.909793943E+00 -1.330103940E+02  1.019856482E+02  2.091457468E+02  1.250000000E+02  0.00000E+00  9.000E+00
       2     1     1     2   502     0  7.686601881E+00  7.352798170E+00 -6.604265461E+02  6.605122030E+02  0.000000000E+00  0.00000E+00  9.000E+00
#rwgt            1           1   3.8456842866530089E-002           7      463509           0
</event>
<event>
      5   9999  3.79277E-02  3.51747E+01 -1.00000E+00  1.48390E-01
      21    -1     0     0   502   501  0.000000000E+00  0.000000000E+00  1.107365447E+02  1.107365447E+02  0.000000000E+00  0.00000E+00  9.000E+00
      21    -1     0     0   501   511  0.000000000E+00  0.000000000E+00 -3.621197484E+02  3.621197484E+02  0.000000000E+00  0.00000E+00  9.000E+00
      25     1     1     2     0     0  9.375115635E+01  8.532276372E+01 -1.289526031E+02  2.198249921E+02  1.250000000E+02  0.00000E+00  9.000E+00
      25     1     1     2     0     0 -6.473307192E+01 -1.052027152E+02 -6.843751833E+01  1.885912930E+02  1.250000000E+02  0.00000E+00  9.000E+00
      21     1     1     2   502   511 -2.901808443E+01  1.987995143E+01 -5.399308227E+01  6.444000796E+01  9.536743164E-07  0.00000E+00  9.000E+00
#rwgt            1           1   2.7738776010261246E-002           7      463755           0
</event>
<event>
      5   9999 -3.79277E-02  2.15330E+01 -1.00000E+00  1.63765E-01
      21    -1     0     0   502   512  0.000000000E+00  0.000000000E+00  1.876203607E+02  1.876203607E+02  0.000000000E+00  0.00000E+00  9.000E+00
      21    -1     0     0   501   502  0.000000000E+00  0.000000000E+00 -3.252946145E+02  3.252946145E+02  0.000000000E+00  0.00000E+00  9.000E+00
      25     1     1     2     0     0 -1.014696138E+02  1.353359996E+02 -1.936426481E+02  2.858922707E+02  1.250000000E+02  0.00000E+00  9.000E+00
      25     1     1     2     0     0  1.006563838E+02 -1.138183931E+02  5.868884015E+01  2.053185675E+02  1.250000000E+02  0.00000E+00  9.000E+00
      21     1     1     2   501   512  8.132299480E-01 -2.151760651E+01 -2.720445902E+00  2.170413691E+01  4.369878262E-07  0.00000E+00  9.000E+00
#rwgt            1           1 -0.16146850626216699                7      463921           0
</event>
<event>
      5   9999  3.79277E-02  5.79922E+01 -1.00000E+00  1.35498E-01
      21    -1     0     0   502   501  0.000000000E+00  0.000000000E+00  4.182372461E+02  4.182372461E+02  0.000000000E+00  0.00000E+00  9.000E+00
      21    -1     0     0   511   502  0.000000000E+00  0.000000000E+00 -4.892699221E+02  4.892699221E+02  0.000000000E+00  0.00000E+00  9.000E+00
      25     1     1     2     0     0  1.334612762E+01 -3.042694243E+02  1.514338023E+02  3.623743895E+02  1.250000000E+02  0.00000E+00  9.000E+00
      25     1     1     2     0     0 -2.901177597E+00  3.613132698E+02 -7.903243403E+01  3.904187770E+02  1.250000000E+02  0.00000E+00  9.000E+00
      21     1     1     2   511   501 -1.044495002E+01 -5.704384555E+01 -1.434340443E+02  1.547140018E+02  2.697398305E-06  0.00000E+00  9.000E+00
#rwgt            1           1   2.8652543935877413E-002           7      464105           0
</event>
<event>
      5   9999  3.79277E-02  3.68112E+01 -1.00000E+00  1.47114E-01
      21    -1     0     0   512   501  0.000000000E+00  0.000000000E+00  7.477233280E+02  7.477233280E+02  0.000000000E+00  0.00000E+00  9.000E+00
      21    -1     0     0   501   502  0.000000000E+00  0.000000000E+00 -1.754549063E+02  1.754549063E+02  0.000000000E+00  0.00000E+00  9.000E+00
      25     1     1     2     0     0 -1.742957765E+02 -1.745944672E+02  4.693139686E+02  5.447410824E+02  1.250000000E+02  0.00000E+00  9.000E+00
      25     1     1     2     0     0  1.378494209E+02  1.797643128E+02 -1.071614961E+01  2.589546425E+02  1.250000000E+02  0.00000E+00  9.000E+00
      21     1     1     2   512   502  3.644635558E+01 -5.169845638E+00  1.136706028E+02  1.194825095E+02  0.000000000E+00  0.00000E+00  9.000E+00
#rwgt            1           1   2.8137888230861736E-002           7      464279           0
</event>
<event>
      5   9999  4.33391E-02  5.53720E+01 -1.00000E+00  1.36593E-01
      21    -1     0     0   502   501  0.000000000E+00  0.000000000E+00  3.479336504E+02  3.479336504E+02  0.000000000E+00  0.00000E+00  9.000E+00
      21    -1     0     0   501   511  0.000000000E+00  0.000000000E+00 -5.221986778E+02  5.221986778E+02  0.000000000E+00  0.00000E+00  9.000E+00
      25     1     1     2     0     0  2.922804783E+02 -1.888236174E+02  9.376897036E+01  3.814444341E+02  1.250000000E+02  0.00000E+00  9.000E+00
      25     1     1     2     0     0 -2.461466811E+02  2.194460237E+02 -2.403918991E+02  4.267997318E+02  1.250000000E+02  0.00000E+00  9.000E+00
      21     1     1     2   502   511 -4.613379724E+01 -3.062240633E+01 -2.764209855E+01  6.188816227E+01  1.011524364E-06  0.00000E+00  9.000E+00
#rwgt            1           1  0.80900483269040091                7      464379           0
</event>
<event>
      5   9999  3.79277E-02  2.90548E+01 -1.00000E+00  1.54012E-01
      21    -1     0     0   512   501  0.000000000E+00  0.000000000E+00  1.504728936E+03  1.504728936E+03  0.000000000E+00  0.00000E+00  9.000E+00
      21    -1     0     0   501   502  0.000000000E+00  0.000000000E+00 -4.802673618E+01  4.802673618E+01  0.000000000E+00  0.00000E+00  9.000E+00
      25     1     1     2     0     0  6.808021472E+01 -2.008382868E+02  8.011279454E+02  8.380942178E+02  1.250000000E+02  0.00000E+00  9.000E+00
      25     1     1     2     0     0 -4.395012294E+01  2.170221802E+02  5.659972757E+02  6.204902547E+02  1.250000000E+02  0.00000E+00  9.000E+00
      21     1     1     2   512   502 -2.413009178E+01 -1.618389336E+01  8.957697841E+01  9.417119939E+01  9.536743164E-07  0.00000E+00  9.000E+00
#rwgt            2          11   4.4883556628054185E-003           7      464559           0
</event>
<event>
      5   9999  3.79277E-02  3.70850E+01 -1.00000E+00  1.46908E-01
      21    -1     0     0   502   501  0.000000000E+00  0.000000000E+00  1.869917609E+03  1.869917609E+03  0.000000000E+00  0.00000E+00  9.000E+00
      21    -1     0     0   501   511  0.000000000E+00  0.000000000E+00 -1.931657174E+02  1.931657174E+02  0.000000000E+00  0.00000E+00  9.000E+00
      25     1     1     2     0     0  1.304196747E+02  8.552768294E+01  1.093263032E+03  1.111383522E+03  1.250000000E+02  0.00000E+00  9.000E+00
      25     1     1     2     0     0 -1.008431598E+02 -1.079001391E+02  7.533692156E+02  7.778187179E+02  1.250000000E+02  0.00000E+00  9.000E+00
      21     1     1     2   502   511 -2.957651489E+01  2.237245615E+01 -1.698803557E+02  1.738810867E+02  6.877043296E-06  0.00000E+00  9.000E+00
#rwgt            1           1  0.13084042093107329                7      464609           0
</event>
<event>
      5   9999  3.79277E-02  1.42708E+02 -1.00000E+00  1.17258E-01
       2    -1     0     0   502     0  0.000000000E+00  0.000000000E+00  1.554161998E+03  1.554161998E+03  0.000000000E+00  0.00000E+00  9.000E+00
      21    -1     0     0   501   502  0.000000000E+00  0.000000000E+00 -1.233257464E+02  1.233257464E+02  0.000000000E+00  0.00000E+00  9.000E+00
      25     1     1     2     0     0 -5.716791369E+01  2.416757278E+02  1.250549998E+02  3.048591162E+02  1.250000000E+02  0.00000E+00  9.000E+00
      25     1     1     2     0     0 -2.355104750E+01 -1.239893481E+02  2.468152568E+02  3.040900874E+02  1.250000000E+02  0.00000E+00  9.000E+00
       2     1     1     2   501     0  8.071896119E+01 -1.176863797E+02  1.058965995E+03  1.068538540E+03  0.000000000E+00  0.00000E+00  9.000E+00
#rwgt            1           1   3.7098297072105206E-002           7      464731           0
</event>
<event>
      5   9999  3.79277E-02  1.29017E+02 -1.00000E+00  1.19048E-01
      21    -1     0     0   502   501  0.000000000E+00  0.000000000E+00  2.134191190E+02  2.134191190E+02  0.000000000E+00  0.00000E+00  9.000E+00
      21    -1     0     0   511   502  0.000000000E+00  0.000000000E+00 -4.415384088E+02  4.415384088E+02  0.000000000E+00  0.00000E+00  9.000E+00
      25     1     1     2     0     0  1.109698086E+02  1.136449456E+02  6.137580515E+01  2.112379264E+02  1.250000000E+02  0.00000E+00  9.000E+00
      25     1     1     2     0     0 -1.164353567E+02  1.525633539E+01 -6.234715915E+01  1.824886745E+02  1.250000000E+02  0.00000E+00  9.000E+00
      21     1     1     2   511   501  5.465548064E+00 -1.289012810E+02 -2.271479357E+02  2.612309269E+02  2.697398305E-06  0.00000E+00  9.000E+00
#rwgt            1           1   3.5127208092422813E-002           7      464776           0
</event>
<event>
      5   9999  3.79277E-02  9.63584E+01 -1.00000E+00  1.24557E-01
      21    -1     0     0   502   501  0.000000000E+00  0.000000000E+00  5.892714336E+02  5.892714336E+02  0.000000000E+00  0.00000E+00  9.000E+00
      21    -1     0     0   501   512  0.000000000E+00  0.000000000E+00 -1.098320158E+03  1.098320158E+03  0.000000000E+00  0.00000E+00  9.000E+00
      25     1     1     2     0     0 -1.443951378E+02  6.488707445E+01 -1.317917437E+02  2.409447072E+02  1.250000000E+02  0.00000E+00  9.000E+00
      25     1     1     2     0     0  2.019277847E+02  1.241065196E+01  5.055008079E+02  5.586456134E+02  1.250000000E+02  0.00000E+00  9.000E+00
      21     1     1     2   502   512 -5.753264696E+01 -7.729772641E+01 -8.827577887E+02  8.880012711E+02  1.078959322E-05  0.00000E+00  9.000E+00
#rwgt            1           1   3.5177738627861173E-002           7      464839           0
</event>
<event>
      5   9999  3.79277E-02  2.05821E+01 -1.00000E+00  1.65348E-01
      21    -1     0     0   502   501  0.000000000E+00  0.000000000E+00  1.760817689E+03  1.760817689E+03  0.000000000E+00  0.00000E+00  9.000E+00
      21    -1     0     0   501   511  0.000000000E+00  0.000000000E+00 -6.019513049E+01  6.019513049E+01  0.000000000E+00  0.00000E+00  9.000E+00
      25     1     1     2     0     0 -1.980140841E+02 -3.276719589E+01  9.010566580E+02  9.315639364E+02  1.250000000E+02  0.00000E+00  9.000E+00
      25     1     1     2     0     0  1.944944814E+02  1.248828397E+01  8.249169746E+02  8.567946519E+02  1.250000000E+02  0.00000E+00  9.000E+00
      21     1     1     2   502   511  3.519602780E+00  2.027891193E+01 -2.535107397E+01  3.265423134E+01  1.877309769E-06  0.00000E+00  9.000E+00
#rwgt            1           1   3.4434983312695761E-002           7      464980           0
</event>
<event>
      5   9999  3.79277E-02  4.61384E+01 -1.00000E+00  1.41097E-01
      21    -1     0     0   512   501  0.000000000E+00  0.000000000E+00  1.671887402E+02  1.671887402E+02  0.000000000E+00  0.00000E+00  9.000E+00
      21    -1     0     0   501   502  0.000000000E+00  0.000000000E+00 -8.445966627E+02  8.445966627E+02  0.000000000E+00  0.00000E+00  9.000E+00
      25     1     1     2     0     0 -6.448178785E+01  1.388721707E+02 -6.282027374E+02  6.585643933E+02  1.250000000E+02  0.00000E+00  9.000E+00
      25     1     1     2     0     0  1.099742490E+02 -1.465654894E+02 -1.322314592E+02  2.582362038E+02  1.250000000E+02  0.00000E+00  9.000E+00
      21     1     1     2   512   502 -4.549246115E+01  7.693318780E+00  8.302627400E+01  9.498480589E+01  2.697398305E-06  0.00000E+00  9.000E+00
#rwgt            1           1   3.0449278492421777E-002           7      465427           0
</event>
<event>
      5   9999  3.79277E-02  1.94187E+01 -1.00000E+00  1.67433E-01
      21    -1     0     0   502   501  0.000000000E+00  0.000000000E+00  6.280261361E+02  6.280261361E+02  0.000000000E+00  0.00000E+00  9.000E+00
      21    -1     0     0   511   502  0.000000000E+00  0.000000000E+00 -5.992396398E+01  5.992396398E+01  0.000000000E+00  0.00000E+00  9.000E+00
      25     1     1     2     0     0  9.350123005E+01 -4.419001508E+01  2.000672865E+02  2.575794180E+02  1.250000000E+02  0.00000E+00  9.000E+00
      25     1     1     2     0     0 -1.128474845E+02  4.251374002E+01  3.720014997E+02  4.105509574E+02  1.250000000E+02  0.00000E+00  9.000E+00
      21     1     1     2   511   501  1.934625440E+01  1.676275063E+00 -3.966614109E+00  1.981972465E+01  2.346637211E-07  0.00000E+00  9.000E+00
#rwgt            1           1   5.4309324400730434E-002           7      465603           0
</event>
<event>
      5   9999  3.79277E-02  1.18807E+02 -1.00000E+00  1.20553E-01
      21    -1     0     0   512   501  0.000000000E+00  0.000000000E+00  1.084683040E+03  1.084683040E+03  0.000000000E+00  0.00000E+00  9.000E+00
      21    -1     0     0   501   502  0.000000000E+00  0.000000000E+00 -8.435883680E+01  8.435883680E+01  0.000000000E+00  0.00000E+00  9.000E+00
      25     1     1     2     0     0  8.143554265E+01  1.531343051E+02  5.924683975E+02  6.298616237E+02  1.250000000E+02  0.00000E+00  9.000E+00
      25     1     1     2     0     0 -5.444443370E+01 -3.743399502E+01  3.195854816E+01  1.449546451E+02  1.250000000E+02  0.00000E+00  9.000E+00
      21     1     1     2   512   502 -2.699110894E+01 -1.157003101E+02  3.758972572E+02  3.942256076E+02  0.000000000E+00  0.00000E+00  9.000E+00
#rwgt            1           1   2.8665805039761953E-002           7      465893           0
</event>
<event>
      5   9999  3.79277E-02  2.28221E+01 -1.00000E+00  1.61774E-01
      21    -1     0     0   502   511  0.000000000E+00  0.000000000E+00  8.645880395E+02  8.645880395E+02  0.000000000E+00  0.00000E+00  9.000E+00
      21    -1     0     0   501   502  0.000000000E+00  0.000000000E+00 -2.042325511E+02  2.042325511E+02  0.000000000E+00  0.00000E+00  9.000E+00
      25     1     1     2     0     0  2.616192215E+01  9.175047220E+00  3.038865481E+02  3.297584901E+02  1.250000000E+02  0.00000E+00  9.000E+00
      25     1     1     2     0     0 -3.122194462E+01 -3.142917296E+01 -1.680338528E+02  2.140630244E+02  1.250000000E+02  0.00000E+00  9.000E+00
      21     1     1     2   501   511  5.060022472E+00  2.225412574E+01  5.245027931E+02  5.249990761E+02  0.000000000E+00  0.00000E+00  9.000E+00
#rwgt            1           1   3.5349789027258917E-002           7      466048           0
</event>
<event>
      5   9999  3.79277E-02  3.16801E+01 -1.00000E+00  1.51414E-01
      21    -1     0     0   502   501  0.000000000E+00  0.000000000E+00  3.075452665E+02  3.075452665E+02  0.000000000E+00  0.00000E+00  9.000E+00
      21    -1     0     0   501   512  0.000000000E+00  0.000000000E+00 -1.921397267E+02  1.921397267E+02  0.000000000E+00  0.00000E+00  9.000E+00
      25     1     1     2     0     0 -1.647522119E+02  3.978918102E+01 -2.193525892E+01  2.117371621E+02  1.250000000E+02  0.00000E+00  9.000E+00
      25     1     1     2     0     0  1.355209909E+02 -5.200243407E+01  1.595141824E+02  2.492788930E+02  1.250000000E+02  0.00000E+00  9.000E+00
      21     1     1     2   502   512  2.923122095E+01  1.221325305E+01 -2.217338370E+01  3.866893809E+01  6.307962682E-07  0.00000E+00  9.000E+00
#rwgt            1           1   3.2526721762834471E-002           7      466235           0
</event>
<event>
      5   9999  3.79277E-02  2.27350E+02 -1.00000E+00  1.09658E-01
      21    -1     0     0   502   501  0.000000000E+00  0.000000000E+00  3.813288469E+03  3.813288469E+03  0.000000000E+00  0.00000E+00  9.000E+00
      21    -1     0     0   511   502  0.000000000E+00  0.000000000E+00 -1.378765243E+02  1.378765243E+02  0.000000000E+00  0.00000E+00  9.000E+00
      25     1     1     2     0     0  8.826384291E+01  2.042023280E+02  1.742768601E+03  1.761350758E+03  1.250000000E+02  0.00000E+00  9.000E+00
      25     1     1     2     0     0  1.373178073E+02 -1.759051513E+02  1.945365763E+03  1.962109007E+03  1.250000000E+02  0.00000E+00  9.000E+00
      21     1     1     2   511   501 -2.255816502E+02 -2.829717676E+01 -1.272241927E+01  2.277052285E+02  9.741667608E-06  0.00000E+00  9.000E+00
#rwgt            1           1   2.1882595565795825E-002           7      466396           0
</event>
<event>
      5   9999  3.79277E-02  6.43560E+00 -1.00000E+00  2.20846E-01
      21    -1     0     0   502   501  0.000000000E+00  0.000000000E+00  1.278550950E+02  1.278550950E+02  0.000000000E+00  0.00000E+00  9.000E+00
       1    -1     0     0   501     0  0.000000000E+00  0.000000000E+00 -7.423054406E+02  7.423054406E+02  0.000000000E+00  0.00000E+00  9.000E+00
      25     1     1     2     0     0 -1.409147914E+02  3.102056958E+01 -2.596323577E+01  1.926612151E+02  1.250000000E+02  0.00000E+00  9.000E+00
      25     1     1     2     0     0  1.448243856E+02 -3.613251422E+01 -1.685548907E+02  2.575177906E+02  1.250000000E+02  0.00000E+00  9.000E+00
       1     1     1     2   502     0 -3.909594190E+00  5.111944635E+00 -4.199322191E+02  4.199815300E+02  7.629394531E-06  0.00000E+00  9.000E+00
#rwgt            1           1  0.16550052654218145                7      466473           0
</event>
<event>
      5   9999  3.79277E-02  1.74261E+02 -1.00000E+00  1.13870E-01
      21    -1     0     0   511   501  0.000000000E+00  0.000000000E+00  3.519793224E+01  3.519793224E+01  0.000000000E+00  0.00000E+00  9.000E+00
      21    -1     0     0   501   502  0.000000000E+00  0.000000000E+00 -3.480636226E+03  3.480636226E+03  0.000000000E+00  0.00000E+00  9.000E+00
      25     1     1     2     0     0 -2.888763082E-01 -1.257787738E+02 -2.703544655E+03  2.709353998E+03  1.250000000E+02  0.00000E+00  9.000E+00
      25     1     1     2     0     0  5.386403577E+01 -4.004196954E+01 -3.231794870E+02  3.529513769E+02  1.250000000E+02  0.00000E+00  9.000E+00
      21     1     1     2   511   502 -5.357515946E+01  1.658207434E+02 -4.187141518E+02  4.535287836E+02  1.427329020E-05  0.00000E+00  9.000E+00
#rwgt            1           1   5.9646761428889430E-002           7      466866           0
</event>
<event>
      5   9999  3.79277E-02  1.77570E+01 -1.00000E+00  1.70747E-01
      21    -1     0     0   502   512  0.000000000E+00  0.000000000E+00  3.591098827E+01  3.591098827E+01  0.000000000E+00  0.00000E+00  9.000E+00
      21    -1     0     0   501   502  0.000000000E+00  0.000000000E+00 -1.466880497E+03  1.466880497E+03  0.000000000E+00  0.00000E+00  9.000E+00
      25     1     1     2     0     0  1.715344689E+02 -2.918672431E+01 -9.079505223E+02  9.328853573E+02  1.250000000E+02  0.00000E+00  9.000E+00
      25     1     1     2     0     0 -1.609332374E+02  1.494154105E+01 -5.042254208E+02  5.440505781E+02  1.250000000E+02  0.00000E+00  9.000E+00
      21     1     1     2   501   512 -1.060123156E+01  1.424518326E+01 -1.879356599E+01  2.585555026E+01  3.371747881E-07  0.00000E+00  9.000E+00
#rwgt            1           1   4.8547197274595826E-002           7      466984           0
</event>
<event>
      5   9999  3.79277E-02  4.54563E+01 -1.00000E+00  1.41478E-01
      21    -1     0     0   502   501  0.000000000E+00  0.000000000E+00  2.271534090E+01  2.271534090E+01  0.000000000E+00  0.00000E+00  9.000E+00
       2    -1     0     0   501     0  0.000000000E+00  0.000000000E+00 -4.338955641E+03  4.338955641E+03  0.000000000E+00  0.00000E+00  9.000E+00
      25     1     1     2     0     0  1.188716299E+02 -2.282778363E+02 -1.794177255E+03  1.816848441E+03  1.250000000E+02  0.00000E+00  9.000E+00
      25     1     1     2     0     0 -7.960282504E+01  2.511741117E+02 -2.062354998E+03  2.082872579E+03  1.250000000E+02  0.00000E+00  9.000E+00
       2     1     1     2   502     0 -3.926880487E+01 -2.289627544E+01 -4.597080472E+02  4.619499618E+02  0.000000000E+00  0.00000E+00  9.000E+00
#rwgt            1           1   7.5486290726842244E-003           7      467246           0
</event>
<event>
      5   9999  3.79277E-02  3.21014E+01 -1.00000E+00  1.51025E-01
      21    -1     0     0   511   501  0.000000000E+00  0.000000000E+00  4.308593004E+02  4.308593004E+02  0.000000000E+00  0.00000E+00  9.000E+00
      21    -1     0     0   501   502  0.000000000E+00  0.000000000E+00 -1.836129775E+02  1.836129775E+02  0.000000000E+00  0.00000E+00  9.000E+00
      25     1     1     2     0     0  1.020977579E+02 -1.321877809E+02 -4.098814075E+01  2.126090056E+02  1.250000000E+02  0.00000E+00  9.000E+00
      25     1     1     2     0     0 -8.225098358E+01  1.574188776E+02  1.602364554E+02  2.699011837E+02  1.250000000E+02  0.00000E+00  9.000E+00
      21     1     1     2   511   502 -1.984677437E+01 -2.523109674E+01  1.279980082E+02  1.319620885E+02  1.907348633E-06  0.00000E+00  9.000E+00
#rwgt            1           1   2.9242928881596894E-002           7      467498           0
</event>
<event>
      5   9999  3.79277E-02  8.21057E+01 -1.00000E+00  1.27806E-01
      21    -1     0     0   502   501  0.000000000E+00  0.000000000E+00  9.225831552E+01  9.225831552E+01  0.000000000E+00  0.00000E+00  9.000E+00
      21    -1     0     0   501   512  0.000000000E+00  0.000000000E+00 -6.392136856E+02  6.392136856E+02  0.000000000E+00  0.00000E+00  9.000E+00
      25     1     1     2     0     0 -9.360388495E+00 -1.376481799E+02 -6.087704960E+01  1.958715228E+02  1.250000000E+02  0.00000E+00  9.000E+00
      25     1     1     2     0     0  3.424498489E+01  5.940430811E+01 -3.206451811E+02  3.509129849E+02  1.250000000E+02  0.00000E+00  9.000E+00
      21     1     1     2   502   512 -2.488459639E+01  7.824387174E+01 -1.654331393E+02  1.846874933E+02  2.697398305E-06  0.00000E+00  9.000E+00
#rwgt            1           1   3.2613508912437951E-002           7      467588           0
</event>
<event>
      5   9999  3.79277E-02  2.12068E+01 -1.00000E+00  1.64297E-01
      21    -1     0     0   502   501  0.000000000E+00  0.000000000E+00  7.857625777E+01  7.857625777E+01  0.000000000E+00  0.00000E+00  9.000E+00
      21    -1     0     0   501   511  0.000000000E+00  0.000000000E+00 -9.558987833E+02  9.558987833E+02  0.000000000E+00  0.00000E+00  9.000E+00
      25     1     1     2     0     0  1.602310788E+02 -1.448575167E+02 -4.398773652E+02  5.057418266E+02  1.250000000E+02  0.00000E+00  9.000E+00
      25     1     1     2     0     0 -1.810955135E+02  1.410620447E+02 -3.391925789E+02  4.282180415E+02  1.250000000E+02  0.00000E+00  9.000E+00
      21     1     1     2   502   511  2.086443470E+01  3.795471976E+00 -9.825258143E+01  1.005151730E+02  1.907348633E-06  0.00000E+00  9.000E+00
#rwgt            1           1   4.3013810819449855E-002           7      467650           0
</event>
<event>
      5   9999  3.79277E-02  4.52275E+01 -1.00000E+00  1.41608E-01
      21    -1     0     0   502   512  0.000000000E+00  0.000000000E+00  3.551748950E+02  3.551748950E+02  0.000000000E+00  0.00000E+00  9.000E+00
      21    -1     0     0   501   502  0.000000000E+00  0.000000000E+00 -1.843901333E+02  1.843901333E+02  0.000000000E+00  0.00000E+00  9.000E+00
      25     1     1     2     0     0 -1.927368607E+02 -2.890008852E+01  8.229574676E+01  2.457240373E+02  1.250000000E+02  0.00000E+00  9.000E+00
      25     1     1     2     0     0  1.872663780E+02 -1.599537836E+01  4.316295426E+01  2.298098977E+02  1.250000000E+02  0.00000E+00  9.000E+00
      21     1     1     2   501   512  5.470482670E+00  4.489546688E+01  4.532606065E+01  6.403109324E+01  0.000000000E+00  0.00000E+00  9.000E+00
#rwgt            1           1   3.0150150153969990E-002           7      468169           0
</event>
<event>
      5   9999  3.79277E-02  9.12195E+01 -1.00000E+00  1.25650E-01
      21    -1     0     0   511   501  0.000000000E+00  0.000000000E+00  2.380257513E+02  2.380257513E+02  0.000000000E+00  0.00000E+00  9.000E+00
      21    -1     0     0   501   502  0.000000000E+00  0.000000000E+00 -7.666416730E+02  7.666416730E+02  0.000000000E+00  0.00000E+00  9.000E+00
      25     1     1     2     0     0 -4.722194028E+01  1.510673746E+02  1.493192583E+02  2.509432290E+02  1.250000000E+02  0.00000E+00  9.000E+00
      25     1     1     2     0     0  9.677024881E+01 -7.447784574E+01 -6.234381073E+02  6.474654464E+02  1.250000000E+02  0.00000E+00  9.000E+00
      21     1     1     2   511   502 -4.954830853E+01 -7.658952883E+01 -5.449707267E+01  1.062587490E+02  6.743495762E-07  0.00000E+00  9.000E+00
#rwgt            1           1   3.2593951642269865E-002           7      468370           0
</event>
<event>
      5   9999  3.79277E-02  2.15741E+01 -1.00000E+00  1.63699E-01
      21    -1     0     0   502   512  0.000000000E+00  0.000000000E+00  1.210538422E+03  1.210538422E+03  0.000000000E+00  0.00000E+00  9.000E+00
      21    -1     0     0   501   502  0.000000000E+00  0.000000000E+00 -1.629867973E+02  1.629867973E+02  0.000000000E+00  0.00000E+00  9.000E+00
      25     1     1     2     0     0  2.442136101E+02 -1.962037059E+02  1.369041366E+02  3.640108847E+02  1.250000000E+02  0.00000E+00  9.000E+00
      25     1     1     2     0     0 -2.452061154E+02  1.746524283E+02  4.912363872E+02  5.895487239E+02  1.250000000E+02  0.00000E+00  9.000E+00
      21     1     1     2   501   512  9.925053559E-01  2.155127766E+01  4.194111011E+02  4.199656109E+02  5.394796609E-06  0.00000E+00  9.000E+00
#rwgt            1           1   4.1093453143927837E-002           7      468430           0
</event>
<event>
      5   9999  3.79277E-02  1.68778E+01 -1.00000E+00  1.72690E-01
      21    -1     0     0   502   501  0.000000000E+00  0.000000000E+00  1.050355169E+02  1.050355169E+02  0.000000000E+00  0.00000E+00  9.000E+00
      21    -1     0     0   511   502  0.000000000E+00  0.000000000E+00 -1.141763683E+03  1.141763683E+03  0.000000000E+00  0.00000E+00  9.000E+00
      25     1     1     2     0     0 -3.750486791E+01 -2.858072802E+02 -2.629879391E+02  4.097317081E+02  1.250000000E+02  0.00000E+00  9.000E+00
      25     1     1     2     0     0  3.860833461E+01  2.689655475E+02 -6.964896751E+02  7.579946812E+02  1.250000000E+02  0.00000E+00  9.000E+00
      21     1     1     2   511   501 -1.103466704E+00  1.684173273E+01 -7.725055239E+01  7.907281103E+01  1.348699152E-06  0.00000E+00  9.000E+00
#rwgt            1           1   3.4465554291052601E-002           7      468639           0
</event>
<event>
      5   9999  3.79277E-02  5.40336E+01 -1.00000E+00  1.37180E-01
      21    -1     0     0   502   501  0.000000000E+00  0.000000000E+00  1.006970402E+02  1.006970402E+02  0.000000000E+00  0.00000E+00  9.000E+00
      21    -1     0     0   512   502  0.000000000E+00  0.000000000E+00 -1.009810083E+03  1.009810083E+03  0.000000000E+00  0.00000E+00  9.000E+00
      25     1     1     2     0     0 -9.808949241E+01  6.072792758E+01 -4.266301514E+01  1.753697881E+02  1.250000000E+02  0.00000E+00  9.000E+00
      25     1     1     2     0     0  9.987124338E+01 -1.147321607E+02 -2.592376186E+02  3.255255395E+02  1.250000000E+02  0.00000E+00  9.000E+00
      21     1     1     2   512   501 -1.781750976E+00  5.400423308E+01 -6.072124088E+02  6.096117956E+02  0.000000000E+00  0.00000E+00  9.000E+00
#rwgt            1           1   3.5373615914803674E-002           7      468828           0
</event>
<event>
      5   9999  3.79277E-02  2.52062E+01 -1.00000E+00  1.58484E-01
      21    -1     0     0   502   501  0.000000000E+00  0.000000000E+00  2.254485755E+02  2.254485755E+02  0.000000000E+00  0.00000E+00  9.000E+00
       2    -1     0     0   501     0  0.000000000E+00  0.000000000E+00 -1.720301873E+03  1.720301873E+03  0.000000000E+00  0.00000E+00  9.000E+00
      25     1     1     2     0     0 -4.264065425E+00 -1.039014851E+02  1.299514378E+02  2.081491702E+02  1.250000000E+02  0.00000E+00  9.000E+00
      25     1     1     2     0     0 -1.809429410E+01  1.155400302E+02 -7.382870478E+01  1.864204380E+02  1.250000000E+02  0.00000E+00  9.000E+00
       2     1     1     2   502     0  2.235835952E+01 -1.163854508E+01 -1.550976030E+03  1.551180840E+03  3.737624730E-05  0.00000E+00  9.000E+00
#rwgt            1           1   3.5791131390577789E-002           7      469010           0
</event>
<event>
      5   9999  3.79277E-02  1.10810E+01 -1.00000E+00  1.90741E-01
       2    -1     0     0   502     0  0.000000000E+00  0.000000000E+00  3.309134009E+03  3.309134009E+03  0.000000000E+00  0.00000E+00  9.000E+00
      21    -1     0     0   501   502  0.000000000E+00  0.000000000E+00 -3.711172456E+02  3.711172456E+02  0.000000000E+00  0.00000E+00  9.000E+00
      25     1     1     2     0     0 -2.746000662E+02 -6.632845504E+01  3.674719464E+01  3.110948675E+02  1.250000000E+02  0.00000E+00  9.000E+00
      25     1     1     2     0     0  2.716454232E+02  7.700829503E+01 -1.320383068E+02  3.358282715E+02  1.250000000E+02  0.00000E+00  9.000E+00
       2     1     1     2   501     0  2.954642976E+00 -1.067983999E+01  3.033307876E+03  3.033328116E+03  4.315837288E-05  0.00000E+00  9.000E+00
#rwgt            1           1   3.3095084552926042E-002           7      469164           0
</event>
<event>
      5   9999  3.79277E-02  3.01181E+01 -1.00000E+00  1.52921E-01
      21    -1     0     0   502   511  0.000000000E+00  0.000000000E+00  1.336821910E+02  1.336821910E+02  0.000000000E+00  0.00000E+00  9.000E+00
      21    -1     0     0   501   502  0.000000000E+00  0.000000000E+00 -5.280395645E+02  5.280395645E+02  0.000000000E+00  0.00000E+00  9.000E+00
      25     1     1     2     0     0 -1.692910754E+02 -1.224602333E+02 -1.551493000E+02  2.887079532E+02  1.250000000E+02  0.00000E+00  9.000E+00
      25     1     1     2     0     0  1.950040660E+02  1.067776658E+02 -2.230885719E+02  3.388533113E+02  1.250000000E+02  0.00000E+00  9.000E+00
      21     1     1     2   501   511 -2.571299057E+01  1.568256746E+01 -1.611950159E+01  3.416049089E+01  4.129530925E-07  0.00000E+00  9.000E+00
#rwgt            1           1   3.6558570674052861E-002           7      469485           0
</event>
<event>
      5   9999  3.79277E-02  3.43793E+01 -1.00000E+00  1.49040E-01
      21    -1     0     0   512   501  0.000000000E+00  0.000000000E+00  3.602622586E+02  3.602622586E+02  0.000000000E+00  0.00000E+00  9.000E+00
      21    -1     0     0   501   502  0.000000000E+00  0.000000000E+00 -7.235070240E+02  7.235070240E+02  0.000000000E+00  0.00000E+00  9.000E+00
      25     1     1     2     0     0 -2.167297815E-01  1.055341824E+02 -1.252370015E+02  2.060262536E+02  1.250000000E+02  0.00000E+00  9.000E+00
      25     1     1     2     0     0 -2.674307075E+01 -1.268673703E+02 -5.423470214E+02  5.714681208E+02  1.250000000E+02  0.00000E+00  9.000E+00
      21     1     1     2   512   502  2.695980053E+01  2.133318793E+01  3.043392575E+02  3.062749082E+02  3.814697266E-06  0.00000E+00  9.000E+00
#rwgt            1           1   4.4751981774896678E-002           7      469717           0
</event>
<event>
      5   9999  3.79277E-02  3.96678E+01 -1.00000E+00  1.45065E-01
      21    -1     0     0   502   501  0.000000000E+00  0.000000000E+00  1.036423914E+03  1.036423914E+03  0.000000000E+00  0.00000E+00  9.000E+00
      21    -1     0     0   501   511  0.000000000E+00  0.000000000E+00 -2.980185305E+02  2.980185305E+02  0.000000000E+00  0.00000E+00  9.000E+00
      25     1     1     2     0     0 -1.869347956E+02  1.410755222E+02  4.274226315E+02  5.031520910E+02  1.250000000E+02  0.00000E+00  9.000E+00
      25     1     1     2     0     0  2.000251986E+02 -1.785212057E+02  5.309400836E+02  6.077847261E+02  1.250000000E+02  0.00000E+00  9.000E+00
      21     1     1     2   502   511 -1.309040301E+01  3.744568348E+01 -2.199573315E+02  2.235056275E+02  2.697398305E-06  0.00000E+00  9.000E+00
#rwgt            1           1  0.15474584032764133                7      469831           0
</event>
<event>
      5   9999  3.79277E-02  1.58564E+02 -1.00000E+00  1.15446E-01
      21    -1     0     0   502   501  0.000000000E+00  0.000000000E+00  4.531739218E+01  4.531739218E+01  0.000000000E+00  0.00000E+00  9.000E+00
      21    -1     0     0   512   502  0.000000000E+00  0.000000000E+00 -2.480175464E+03  2.480175464E+03  0.000000000E+00  0.00000E+00  9.000E+00
      25     1     1     2     0     0 -7.306287774E+01 -8.123205677E+00 -1.290504850E+02  1.941216069E+02  1.250000000E+02  0.00000E+00  9.000E+00
      25     1     1     2     0     0 -8.385483830E+01  3.090953416E+01 -1.629281178E+03  1.636511286E+03  1.250000000E+02  0.00000E+00  9.000E+00
      21     1     1     2   512   501  1.569177160E+02 -2.278632848E+01 -6.765264085E+02  6.948599627E+02  7.629394531E-06  0.00000E+00  9.000E+00
#rwgt            1           1   4.6450634611919596E-002           7      470173           0
</event>
<event>
      5   9999  3.79277E-02  5.46931E+01 -1.00000E+00  1.36888E-01
      21    -1     0     0   502   501  0.000000000E+00  0.000000000E+00  5.885504388E+02  5.885504388E+02  0.000000000E+00  0.00000E+00  9.000E+00
      21    -1     0     0   511   502  0.000000000E+00  0.000000000E+00 -3.663501901E+02  3.663501901E+02  0.000000000E+00  0.00000E+00  9.000E+00
      25     1     1     2     0     0  1.340957421E+02 -3.955191069E+01  4.104500126E+01  1.919784202E+02  1.250000000E+02  0.00000E+00  9.000E+00
      25     1     1     2     0     0 -8.743809077E+01  6.808967822E+01  4.544642004E+02  4.841945202E+02  1.250000000E+02  0.00000E+00  9.000E+00
      21     1     1     2   511   501 -4.665765132E+01 -2.853776754E+01 -2.733089530E+02  2.787276886E+02  3.814697266E-06  0.00000E+00  9.000E+00
#rwgt            1           1   4.8867426983406036E-002           7      470220           0
</event>
<event>
      5   9999  3.79277E-02  1.74733E+01 -1.00000E+00  1.71359E-01
      21    -1     0     0   502   501  0.000000000E+00  0.000000000E+00  1.013130110E+02  1.013130110E+02  0.000000000E+00  0.00000E+00  9.000E+00
      21    -1     0     0   512   502  0.000000000E+00  0.000000000E+00 -6.218545732E+02  6.218545732E+02  0.000000000E+00  0.00000E+00  9.000E+00
      25     1     1     2     0     0  3.341010525E+01 -2.793317917E+01 -4.966166384E+02  5.139548455E+02  1.250000000E+02  0.00000E+00  9.000E+00
      25     1     1     2     0     0 -1.626419044E+01  3.129989403E+01  4.550151836E+01  1.376212027E+02  1.250000000E+02  0.00000E+00  9.000E+00
      21     1     1     2   512   501 -1.714591481E+01 -3.366714858E+00 -6.942644218E+01  7.159153607E+01  9.536743164E-07  0.00000E+00  9.000E+00
#rwgt            1           1   4.4700140560620348E-002           7      470312           0
</event>
<event>
      5   9999  3.79277E-02  7.52577E+01 -1.00000E+00  1.29647E-01
      21    -1     0     0   511   501  0.000000000E+00  0.000000000E+00  2.905949488E+02  2.905949488E+02  0.000000000E+00  0.00000E+00  9.000E+00
      21    -1     0     0   501   502  0.000000000E+00  0.000000000E+00 -5.244731588E+02  5.244731588E+02  0.000000000E+00  0.00000E+00  9.000E+00
      25     1     1     2     0     0  1.439109175E+02  8.214225268E+01  1.151675581E+02  2.373736891E+02  1.250000000E+02  0.00000E+00  9.000E+00
      25     1     1     2     0     0 -7.787393926E+01 -1.182370995E+02 -4.284885337E+02  4.682646534E+02  1.250000000E+02  0.00000E+00  9.000E+00
      21     1     1     2   511   502 -6.603697825E+01  3.609484681E+01  7.944276559E+01  1.094297650E+02  1.651812370E-06  0.00000E+00  9.000E+00
#rwgt            2          11   1.9692794898345965E-003           7      470613           0
</event>
<event>
      5   9999  3.79277E-02  1.96298E+01 -1.00000E+00  1.67041E-01
      21    -1     0     0   502   512  0.000000000E+00  0.000000000E+00  2.739861842E+02  2.739861842E+02  0.000000000E+00  0.00000E+00  9.000E+00
      21    -1     0     0   501   502  0.000000000E+00  0.000000000E+00 -1.556720364E+02  1.556720364E+02  0.000000000E+00  0.00000E+00  9.000E+00
      25     1     1     2     0     0  2.577820762E+01 -1.146336311E+02  8.013702920E+01  1.893471120E+02  1.250000000E+02  0.00000E+00  9.000E+00
      25     1     1     2     0     0 -6.835475169E+00  1.094856329E+02 -3.032532405E+01  1.690516276E+02  1.250000000E+02  0.00000E+00  9.000E+00
      21     1     1     2   501   512 -1.894273245E+01  5.147998171E+00  6.850244263E+01  7.125948108E+01  9.536743164E-07  0.00000E+00  9.000E+00
#rwgt            1           1   3.2751212466867109E-002           7      470633           0
</event>
<event>
      5   9999  3.79277E-02  7.02547E+01 -1.00000E+00  1.31141E-01
      21    -1     0     0   502   501  0.000000000E+00  0.000000000E+00  7.556222300E+02  7.556222300E+02  0.000000000E+00  0.00000E+00  9.000E+00
      21    -1     0     0   511   502  0.000000000E+00  0.000000000E+00 -8.812761974E+01  8.812761974E+01  0.000000000E+00  0.00000E+00  9.000E+00
      25     1     1     2     0     0 -5.199505016E+01  1.096956728E+02  5.864188042E+02  6.117586450E+02  1.250000000E+02  0.00000E+00  9.000E+00
      25     1     1     2     0     0 -1.013317647E+01 -7.689612933E+01  5.508141260E+01  1.570816921E+02  1.250000000E+02  0.00000E+00  9.000E+00
      21     1     1     2   511   501  6.212822663E+01 -3.279954344E+01  2.599439350E+01  7.490951266E+01  1.617033478E-06  0.00000E+00  9.000E+00
#rwgt            2          11   2.1559325245252324E-003           7      470896           0
</event>
<event>
      5   9999  3.79277E-02  4.77174E+01 -1.00000E+00  1.40243E-01
      21    -1     0     0   502   512  0.000000000E+00  0.000000000E+00  5.661527721E+02  5.661527721E+02  0.000000000E+00  0.00000E+00  9.000E+00
      21    -1     0     0   501   502  0.000000000E+00  0.000000000E+00 -2.714309239E+02  2.714309239E+02  0.000000000E+00  0.00000E+00  9.000E+00
      25     1     1     2     0     0 -2.452604302E+01 -3.717756719E+01 -7.232736738E+01  1.511289064E+02  1.250000000E+02  0.00000E+00  9.000E+00
      25     1     1     2     0     0  3.617135935E+01  8.345209941E+01 -1.208546991E+02  1.962230324E+02  1.250000000E+02  0.00000E+00  9.000E+00
      21     1     1     2   501   512 -1.164531633E+01 -4.627453222E+01  4.879039148E+02  4.902317572E+02  9.344061824E-06  0.00000E+00  9.000E+00
#rwgt            1           1   5.5779021263306250E-002           7      470916           0
</event>
<event>
      5   9999  3.79277E-02  2.98317E+01 -1.00000E+00  1.53210E-01
      21    -1     0     0   502   511  0.000000000E+00  0.000000000E+00  3.402302759E+02  3.402302759E+02  0.000000000E+00  0.00000E+00  9.000E+00
      21    -1     0     0   501   502  0.000000000E+00  0.000000000E+00 -3.218858229E+02  3.218858229E+02  0.000000000E+00  0.00000E+00  9.000E+00
      25     1     1     2     0     0  1.846917027E+02  1.703229961E+02  1.705430179E+02  3.283761091E+02  1.250000000E+02  0.00000E+00  9.000E+00
      25     1     1     2     0     0 -1.655101669E+02 -1.474757381E+02 -1.627642160E+02  3.020925333E+02  1.250000000E+02  0.00000E+00  9.000E+00
      21     1     1     2   501   511 -1.918153582E+01 -2.284725798E+01  1.056565114E+01  3.164745641E+01  4.460403188E-07  0.00000E+00  9.000E+00
#rwgt            1           1   3.7048118970873664E-002           7      471268           0
</event>
<event>
      5   9999  3.79277E-02  8.22410E+01 -1.00000E+00  1.27771E-01
      21    -1     0     0   512   501  0.000000000E+00  0.000000000E+00  1.222293733E+03  1.222293733E+03  0.000000000E+00  0.00000E+00  9.000E+00
      21    -1     0     0   501   502  0.000000000E+00  0.000000000E+00 -5.496382555E+01  5.496382555E+01  0.000000000E+00  0.00000E+00  9.000E+00
      25     1     1     2     0     0 -1.333907459E+02  1.262612701E+02  5.147945403E+02  5.606901267E+02  1.250000000E+02  0.00000E+00  9.000E+00
      25     1     1     2     0     0  5.431061056E+01 -1.036800768E+02  2.336407974E+02  2.896760656E+02  1.250000000E+02  0.00000E+00  9.000E+00
      21     1     1     2   512   502  7.908013536E+01 -2.258119333E+01  4.188945699E+02  4.268913665E+02  7.629394531E-06  0.00000E+00  9.000E+00
#rwgt            1           1   3.5634756956343619E-002           7      471411           0
</event>
<event>
      5   9999  3.79277E-02  4.50415E+01 -1.00000E+00  1.41714E-01
      21    -1     0     0   502   501  0.000000000E+00  0.000000000E+00  3.276941068E+02  3.276941068E+02  0.000000000E+00  0.00000E+00  9.000E+00
      21    -1     0     0   511   502  0.000000000E+00  0.000000000E+00 -1.444174997E+02  1.444174997E+02  0.000000000E+00  0.00000E+00  9.000E+00
      25     1     1     2     0     0  6.670414066E+01  6.922262921E+01  3.398186079E+00  1.577268603E+02  1.250000000E+02  0.00000E+00  9.000E+00
      25     1     1     2     0     0 -3.684598573E+01 -1.029454125E+02  2.041911563E+02  2.632003285E+02  1.250000000E+02  0.00000E+00  9.000E+00
      21     1     1     2   511   501 -2.985815493E+01  3.372278331E+01 -2.431273525E+01  5.118441780E+01  5.840038640E-07  0.00000E+00  9.000E+00
#rwgt            1           1   3.0364559547729954E-002           7      471487           0
</event>
<event>
      5   9999  3.79277E-02  2.02910E+01 -1.00000E+00  1.65853E-01
      21    -1     0     0   502   501  0.000000000E+00  0.000000000E+00  2.976026355E+02  2.976026355E+02  0.000000000E+00  0.00000E+00  9.000E+00
      21    -1     0     0   501   512  0.000000000E+00  0.000000000E+00 -8.165335202E+02  8.165335202E+02  0.000000000E+00  0.00000E+00  9.000E+00
      25     1     1     2     0     0  4.729536472E+01  3.948983272E+02 -1.073517145E+02  4.305007909E+02  1.250000000E+02  0.00000E+00  9.000E+00
      25     1     1     2     0     0 -6.708321270E+01 -3.904077208E+02 -1.825795057E+02  4.537384949E+02  1.250000000E+02  0.00000E+00  9.000E+00
      21     1     1     2   502   512  1.978784798E+01 -4.490606454E+00 -2.289996644E+02  2.298968699E+02  2.697398305E-06  0.00000E+00  9.000E+00
#rwgt            1           1   3.7426417749920560E-002           7      471610           0
</event>
<event>
      5   9999  3.79277E-02  2.23115E+01 -1.00000E+00  1.62543E-01
      21    -1     0     0   511   501  0.000000000E+00  0.000000000E+00  2.295121934E+03  2.295121934E+03  0.000000000E+00  0.00000E+00  9.000E+00
      21    -1     0     0   501   502  0.000000000E+00  0.000000000E+00 -1.167780051E+01  1.167780051E+01  0.000000000E+00  0.00000E+00  9.000E+00
      25     1     1     2     0     0 -1.288744605E+01 -3.751748598E+01  1.054645573E+03  1.062768052E+03  1.250000000E+02  0.00000E+00  9.000E+00
      25     1     1     2     0     0 -5.464921112E+00  5.020575275E+01  6.052076630E+02  6.200417715E+02  1.250000000E+02  0.00000E+00  9.000E+00
      21     1     1     2   511   502  1.835236716E+01 -1.268826678E+01  6.235908974E+02  6.239899108E+02  0.000000000E+00  0.00000E+00  9.000E+00
#rwgt            1           1  0.10064908635792733                7      471828           0
</event>
<event>
      5   9999  3.79277E-02  2.45289E+01 -1.00000E+00  1.59372E-01
      21    -1     0     0   512   501  0.000000000E+00  0.000000000E+00  4.130851138E+02  4.130851138E+02  0.000000000E+00  0.00000E+00  9.000E+00
      21    -1     0     0   501   502  0.000000000E+00  0.000000000E+00 -1.395199483E+02  1.395199483E+02  0.000000000E+00  0.00000E+00  9.000E+00
      25     1     1     2     0     0 -5.387710666E+01  1.370326832E+02  1.486283386E+00  1.931525509E+02  1.250000000E+02  0.00000E+00  9.000E+00
      25     1     1     2     0     0  7.297439242E+01 -1.524261887E+02  2.392547006E+02  3.184757710E+02  1.250000000E+02  0.00000E+00  9.000E+00
      21     1     1     2   512   502 -1.909728576E+01  1.539350548E+01  3.282418155E+01  4.097674010E+01  6.743495762E-07  0.00000E+00  9.000E+00
#rwgt            1           1   3.5473776725972135E-002           7      471935           0
</event>
<event>
      5   9999  3.79277E-02  1.31826E+01 -1.00000E+00  1.82836E-01
      21    -1     0     0   502   501  0.000000000E+00  0.000000000E+00  2.854243097E+02  2.854243097E+02  0.000000000E+00  0.00000E+00  9.000E+00
      21    -1     0     0   511   502  0.000000000E+00  0.000000000E+00 -1.308444770E+02  1.308444770E+02  0.000000000E+00  0.00000E+00  9.000E+00
      25     1     1     2     0     0  7.527324171E+00 -9.083284717E+01  1.687237264E+02  2.289103811E+02  1.250000000E+02  0.00000E+00  9.000E+00
      25     1     1     2     0     0 -2.065392633E+01  8.961880962E+01  1.446336183E+01  1.558598875E+02  1.250000000E+02  0.00000E+00  9.000E+00
      21     1     1     2   511   501  1.312660216E+01  1.214037557E+00 -2.860725555E+01  3.149851809E+01  5.840038640E-07  0.00000E+00  9.000E+00
#rwgt            1           1   4.0555657084392113E-002           7      472109           0
</event>
<event>
      5   9999  3.79277E-02  6.66605E+01 -1.00000E+00  1.32305E-01
      21    -1     0     0   502   501  0.000000000E+00  0.000000000E+00  3.994565974E+02  3.994565974E+02  0.000000000E+00  0.00000E+00  9.000E+00
      21    -1     0     0   512   502  0.000000000E+00  0.000000000E+00 -1.941576973E+02  1.941576973E+02  0.000000000E+00  0.00000E+00  9.000E+00
      25     1     1     2     0     0  1.146773267E+02  3.587862280E+00  1.439751738E+02  2.225255326E+02  1.250000000E+02  0.00000E+00  9.000E+00
      25     1     1     2     0     0 -1.742076847E+02  2.640803657E+01  1.479084750E+02  2.618160017E+02  1.250000000E+02  0.00000E+00  9.000E+00
      21     1     1     2   512   501  5.953035800E+01 -2.999589885E+01 -8.658474857E+01  1.092727604E+02  0.000000000E+00  0.00000E+00  9.000E+00
#rwgt            1           1   3.0602585912113414E-002           7      472463           0
</event>
<event>
      5   9999 -4.59735E-02  2.46932E+01 -1.00000E+00  1.59154E-01
      21    -1     0     0   502   501  0.000000000E+00  0.000000000E+00  1.540829230E+02  1.540829230E+02  0.000000000E+00  0.00000E+00  9.000E+00
      21    -1     0     0   501   511  0.000000000E+00  0.000000000E+00 -6.182147580E+02  6.182147580E+02  0.000000000E+00  0.00000E+00  9.000E+00
      25     1     1     2     0     0  1.544282894E+02  1.866160467E+02 -2.120027818E+02  3.453169920E+02  1.250000000E+02  0.00000E+00  9.000E+00
      25     1     1     2     0     0 -1.476159662E+02 -1.628811083E+02 -9.850292352E+01  2.713826724E+02  1.250000000E+02  0.00000E+00  9.000E+00
      21     1     1     2   502   511 -6.812323182E+00 -2.373493839E+01 -1.536261297E+02  1.555980166E+02  2.697398305E-06  0.00000E+00  9.000E+00
#rwgt            1           1 -0.41247604807179916                7      472579           0
</event>
<event>
      5   9999  3.79277E-02  2.53273E+01 -1.00000E+00  1.58329E-01
      21    -1     0     0   512   501  0.000000000E+00  0.000000000E+00  2.016124808E+02  2.016124808E+02  0.000000000E+00  0.00000E+00  9.000E+00
      21    -1     0     0   501   502  0.000000000E+00  0.000000000E+00 -4.691513832E+02  4.691513832E+02  0.000000000E+00  0.00000E+00  9.000E+00
      25     1     1     2     0     0 -1.539936419E+02 -1.449771873E+02 -2.952444040E+02  3.840920263E+02  1.250000000E+02  0.00000E+00  9.000E+00
      25     1     1     2     0     0  1.461402235E+02  1.208981951E+02 -2.467550276E+01  2.284889909E+02  1.250000000E+02  0.00000E+00  9.000E+00
      21     1     1     2   512   502  7.853418430E+00  2.407899221E+01  5.238100427E+01  5.818284675E+01  1.168007728E-06  0.00000E+00  9.000E+00
#rwgt            1           1   4.3239992116560329E-002           7      472732           0
</event>
<event>
      5   9999  3.79277E-02  9.35455E+01 -1.00000E+00  1.25145E-01
      21    -1     0     0   502   511  0.000000000E+00  0.000000000E+00  2.725578082E+02  2.725578082E+02  0.000000000E+00  0.00000E+00  9.000E+00
      21    -1     0     0   501   502  0.000000000E+00  0.000000000E+00 -5.246846261E+02  5.246846261E+02  0.000000000E+00  0.00000E+00  9.000E+00
      25     1     1     2     0     0 -9.688989020E+00 -2.657914514E+02 -3.383346712E+02  4.481454249E+02  1.250000000E+02  0.00000E+00  9.000E+00
      25     1     1     2     0     0 -2.470598780E+01  1.787987052E+02 -3.367319312E+00  2.195807406E+02  1.250000000E+02  0.00000E+00  9.000E+00
      21     1     1     2   501   511  3.439497682E+01  8.699274622E+01  8.957517261E+01  1.295162688E+02  2.132480600E-06  0.00000E+00  9.000E+00
#rwgt            1           1   4.3854527340805027E-002           7      473016           0
</event>
<event>
      5   9999  3.79277E-02  8.39695E+01 -1.00000E+00  1.27340E-01
      21    -1     0     0   502   501  0.000000000E+00  0.000000000E+00  4.275543189E+02  4.275543189E+02  0.000000000E+00  0.00000E+00  9.000E+00
      -3    -1     0     0     0   502  0.000000000E+00  0.000000000E+00 -2.907829446E+02  2.907829446E+02  0.000000000E+00  0.00000E+00  9.000E+00
      25     1     1     2     0     0 -1.645064712E+01  1.548700035E+02  3.498870770E+01  2.027425743E+02  1.250000000E+02  0.00000E+00  9.000E+00
      25     1     1     2     0     0 -6.493866106E+01 -1.755257459E+02  2.554696914E+02  3.404645068E+02  1.250000000E+02  0.00000E+00  9.000E+00
      -3     1     1     2     0   501  8.138930818E+01  2.065574248E+01 -1.536870248E+02  1.751301824E+02  1.907348633E-06  0.00000E+00  9.000E+00
#rwgt            1           1   3.6654071628156197E-002           7      473365           0
</event>
<event>
      5   9999  3.79277E-02  1.26005E+02 -1.00000E+00  1.19475E-01
      21    -1     0     0   502   511  0.000000000E+00  0.000000000E+00  2.177206532E+02  2.177206532E+02  0.000000000E+00  0.00000E+00  9.000E+00
      21    -1     0     0   501   502  0.000000000E+00  0.000000000E+00 -7.339552183E+02  7.339552183E+02  0.000000000E+00  0.00000E+00  9.000E+00
      25     1     1     2     0     0 -3.549599306E+01  1.316239596E+02 -9.692804989E+01  2.088178132E+02  1.250000000E+02  0.00000E+00  9.000E+00
      25     1     1     2     0     0 -8.621231208E+01 -9.899847717E+01 -5.392449784E+02  5.688966585E+02  1.250000000E+02  0.00000E+00  9.000E+00
      21     1     1     2   501   511  1.217083051E+02 -3.262548245E+01  1.199384632E+02  1.739613998E+02  0.000000000E+00  0.00000E+00  9.000E+00
#rwgt            1           1   3.7504682904529262E-002           7      473558           0
</event>
<event>
      5   9999  3.79277E-02  5.69378E+01 -1.00000E+00  1.35931E-01
      21    -1     0     0   502   501  0.000000000E+00  0.000000000E+00  1.986374653E+02  1.986374653E+02  0.000000000E+00  0.00000E+00  9.000E+00
      21    -1     0     0   512   502  0.000000000E+00  0.000000000E+00 -3.339110968E+02  3.339110968E+02  0.000000000E+00  0.00000E+00  9.000E+00
      25     1     1     2     0     0  1.094825833E+01  1.663304588E+02  3.857809651E+01  2.118937362E+02  1.250000000E+02  0.00000E+00  9.000E+00
      25     1     1     2     0     0  3.383613804E+01 -1.311698664E+02 -6.083191722E+01  1.941029115E+02  1.250000000E+02  0.00000E+00  9.000E+00
      21     1     1     2   512   501 -4.478439637E+01 -3.516059241E+01 -1.130198108E+02  1.265519145E+02  1.348699152E-06  0.00000E+00  9.000E+00
#rwgt            1           1   3.7530271322378066E-002           7      473648           0
</event>
<event>
      5   9999  3.79277E-02  2.48099E+01 -1.00000E+00  1.59000E-01
      21    -1     0     0   502   511  0.000000000E+00  0.000000000E+00  1.499492362E+02  1.499492362E+02  0.000000000E+00  0.00000E+00  9.000E+00
      21    -1     0     0   501   502  0.000000000E+00  0.000000000E+00 -2.693705343E+02  2.693705343E+02  0.000000000E+00  0.00000E+00  9.000E+00
      25     1     1     2     0     0  1.258862484E+02 -4.442033409E-01 -1.017749823E+02  2.045255287E+02  1.250000000E+02  0.00000E+00  9.000E+00
      25     1     1     2     0     0 -1.403223971E+02 -1.973327947E+01 -1.923447217E+01  1.899335209E+02  1.250000000E+02  0.00000E+00  9.000E+00
      21     1     1     2   501   511  1.443614872E+01  2.017748281E+01  1.588156331E+00  2.486072088E+01  1.365713982E-07  0.00000E+00  9.000E+00
#rwgt            1           1   3.8479396516988965E-002           7      473832           0
</event>
<event>
      5   9999  3.79277E-02  5.20181E+01 -1.00000E+00  1.38102E-01
      21    -1     0     0   502   501  0.000000000E+00  0.000000000E+00  6.184097549E+02  6.184097549E+02  0.000000000E+00  0.00000E+00  9.000E+00
      21    -1     0     0   501   512  0.000000000E+00  0.000000000E+00 -2.213271306E+02  2.213271306E+02  0.000000000E+00  0.00000E+00  9.000E+00
      25     1     1     2     0     0 -4.923049603E+01  2.314423570E+02  2.906119817E+02  3.950563634E+02  1.250000000E+02  0.00000E+00  9.000E+00
      25     1     1     2     0     0  7.835819925E+00 -1.999405625E+02  2.182460369E+02  3.213937791E+02  1.250000000E+02  0.00000E+00  9.000E+00
      21     1     1     2   502   512  4.139467610E+01 -3.150179447E+01 -1.117753942E+02  1.232867431E+02  1.348699152E-06  0.00000E+00  9.000E+00
#rwgt            1           1   3.7132719427991213E-002           7      474058           0
</event>
<event>
      5   9999  3.79277E-02  2.12044E+01 -1.00000E+00  1.64301E-01
      21    -1     0     0   502   501  0.000000000E+00  0.000000000E+00  6.355991748E+02  6.355991748E+02  0.000000000E+00  0.00000E+00  9.000E+00
      21    -1     0     0   511   502  0.000000000E+00  0.000000000E+00 -6.895132544E+01  6.895132544E+01  0.000000000E+00  0.00000E+00  9.000E+00
      25     1     1     2     0     0  3.717237799E+01 -1.444640791E+02  2.150521905E+02  2.900415496E+02  1.250000000E+02  0.00000E+00  9.000E+00
      25     1     1     2     0     0 -5.788116246E+01  1.399061542E+02  3.315816746E+02  3.853509672E+02  1.250000000E+02  0.00000E+00  9.000E+00
      21     1     1     2   511   501  2.070878447E+01  4.557924898E+00  2.001398417E+01  2.915798340E+01  0.000000000E+00  0.00000E+00  9.000E+00
#rwgt            1           1   3.8209416092833424E-002           7      474300           0
</event>
<event>
      5   9999  3.79277E-02  1.26680E+02 -1.00000E+00  1.19378E-01
      21    -1     0     0   502   512  0.000000000E+00  0.000000000E+00  1.195895811E+02  1.195895811E+02  0.000000000E+00  0.00000E+00  9.000E+00
      21    -1     0     0   501   502  0.000000000E+00  0.000000000E+00 -5.975477965E+02  5.975477965E+02  0.000000000E+00  0.00000E+00  9.000E+00
      25     1     1     2     0     0  9.444106052E+00 -1.026469667E+02 -2.551433660E+02  3.022395212E+02  1.250000000E+02  0.00000E+00  9.000E+00
      25     1     1     2     0     0 -1.347662345E+02  1.211426705E+02 -1.140446787E+02  2.479287666E+02  1.250000000E+02  0.00000E+00  9.000E+00
      21     1     1     2   501   512  1.253221284E+02 -1.849570379E+01 -1.087701706E+02  1.669690898E+02  0.000000000E+00  0.00000E+00  9.000E+00
#rwgt            1           1   3.3118859205135028E-002           7      474708           0
</event>
<event>
      5   9999  3.79277E-02  1.40550E+02 -1.00000E+00  1.17525E-01
      21    -1     0     0   511   501  0.000000000E+00  0.000000000E+00  7.894473243E+02  7.894473243E+02  0.000000000E+00  0.00000E+00  9.000E+00
      21    -1     0     0   501   502  0.000000000E+00  0.000000000E+00 -1.229077477E+02  1.229077477E+02  0.000000000E+00  0.00000E+00  9.000E+00
      25     1     1     2     0     0  7.980025765E+01  6.207257416E+01  4.174367771E+01  1.660982246E+02  1.250000000E+02  0.00000E+00  9.000E+00
      25     1     1     2     0     0 -8.151214580E+01 -2.026123277E+02  2.949015212E+02  3.876698240E+02  1.250000000E+02  0.00000E+00  9.000E+00
      21     1     1     2   511   502  1.711888152E+00  1.405397535E+02  3.298943777E+02  3.585870234E+02  3.814697266E-06  0.00000E+00  9.000E+00
#rwgt            2          11   1.7425221011376786E-003           7      474819           0
</event>
<event>
      5   9999  3.79277E-02  1.98435E+01 -1.00000E+00  1.66651E-01
      21    -1     0     0   502   501  0.000000000E+00  0.000000000E+00  5.709206450E+02  5.709206450E+02  0.000000000E+00  0.00000E+00  9.000E+00
      21    -1     0     0   501   512  0.000000000E+00  0.000000000E+00 -1.181236899E+02  1.181236899E+02  0.000000000E+00  0.00000E+00  9.000E+00
      25     1     1     2     0     0  4.477403740E+01  1.136792889E+02  4.083755710E+02  4.442108758E+02  1.250000000E+02  0.00000E+00  9.000E+00
      25     1     1     2     0     0 -2.924786171E+01 -1.260366197E+02  8.551875635E+01  1.991961962E+02  1.250000000E+02  0.00000E+00  9.000E+00
      21     1     1     2   502   512 -1.552617569E+01  1.235733074E+01 -4.109737230E+01  4.563726290E+01  4.768371582E-07  0.00000E+00  9.000E+00
#rwgt            1           1   3.5438038861836288E-002           7      474974           0
</event>
<event>
      5   9999  3.79277E-02  7.11806E+01 -1.00000E+00  1.30854E-01
      21    -1     0     0   511   501  0.000000000E+00  0.000000000E+00  2.022271175E+02  2.022271175E+02  0.000000000E+00  0.00000E+00  9.000E+00
      21    -1     0     0   501   502  0.000000000E+00  0.000000000E+00 -5.514387773E+02  5.514387773E+02  0.000000000E+00  0.00000E+00  9.000E+00
      25     1     1     2     0     0  4.900215499E+01 -1.047117983E+02  8.792945590E+01  1.916307938E+02  1.250000000E+02  0.00000E+00  9.000E+00
      25     1     1     2     0     0 -9.780515967E+01  1.565281895E+02 -4.373168728E+02  4.908543273E+02  1.250000000E+02  0.00000E+00  9.000E+00
      21     1     1     2   511   502  4.880300468E+01 -5.181639120E+01  1.757570274E-01  7.118077376E+01  1.012965619E-06  0.00000E+00  9.000E+00
#rwgt            1           1   3.1561682829019264E-002           7      475176           0
</event>
<event>
      5   9999  3.79277E-02  1.63228E+01 -1.00000E+00  1.73994E-01
      21    -1     0     0   512   501  0.000000000E+00  0.000000000E+00  2.584471216E+02  2.584471216E+02  0.000000000E+00  0.00000E+00  9.000E+00
      21    -1     0     0   501   502  0.000000000E+00  0.000000000E+00 -2.333093823E+02  2.333093823E+02  0.000000000E+00  0.00000E+00  9.000E+00
      25     1     1     2     0     0  1.855116524E+02 -3.502361206E+01 -1.627939812E+01  2.270049457E+02  1.250000000E+02  0.00000E+00  9.000E+00
      25     1     1     2     0     0 -1.748824444E+02  2.263595757E+01 -4.314650754E+00  2.161940613E+02  1.250000000E+02  0.00000E+00  9.000E+00
      21     1     1     2   512   502 -1.062920795E+01  1.238765449E+01  4.573178822E+01  4.855749684E+01  6.743495762E-07  0.00000E+00  9.000E+00
#rwgt            1           1   3.8036333676420717E-002           7      475251           0
</event>
<event>
      5   9999  3.79277E-02  1.67154E+02 -1.00000E+00  1.14560E-01
      21    -1     0     0   502   501  0.000000000E+00  0.000000000E+00  2.514923114E+02  2.514923114E+02  0.000000000E+00  0.00000E+00  9.000E+00
       4    -1     0     0   501     0  0.000000000E+00  0.000000000E+00 -1.102778221E+03  1.102778221E+03  0.000000000E+00  0.00000E+00  9.000E+00
      25     1     1     2     0     0  2.975585712E+02 -1.874414339E+02 -1.580766329E+02  4.053253215E+02  1.250000000E+02  0.00000E+00  9.000E+00
      25     1     1     2     0     0 -2.798277662E+02  2.123081815E+01 -8.581809280E+01  3.189734651E+02  1.250000000E+02  0.00000E+00  9.000E+00
       4     1     1     2   502     0 -1.773080500E+01  1.662106158E+02 -6.073911844E+02  6.299717462E+02  0.000000000E+00  0.00000E+00  9.000E+00
#rwgt            1           1   4.8001132142251469E-002           7      475424           0
</event>
<event>
      5   9999  3.79277E-02  2.63179E+01 -1.00000E+00  1.57098E-01
      21    -1     0     0   502   511  0.000000000E+00  0.000000000E+00  3.499687984E+02  3.499687984E+02  0.000000000E+00  0.00000E+00  9.000E+00
      21    -1     0     0   501   502  0.000000000E+00  0.000000000E+00 -1.469228699E+02  1.469228699E+02  0.000000000E+00  0.00000E+00  9.000E+00
      25     1     1     2     0     0  9.579201906E+01 -9.806105421E+01  2.107113431E+02  2.807425001E+02  1.250000000E+02  0.00000E+00  9.000E+00
      25     1     1     2     0     0 -6.961131031E+01  9.537689544E+01 -3.788500976E+01  1.760760082E+02  1.250000000E+02  0.00000E+00  9.000E+00
      21     1     1     2   501   511 -2.618070875E+01  2.684158767E+00  3.021959511E+01  4.007315994E+01  5.840038640E-07  0.00000E+00  9.000E+00
#rwgt            1           1   3.1180452746228899E-002           7      475548           0
</event>
<event>
      5   9999  3.79277E-02  7.91521E+01 -1.00000E+00  1.28574E-01
      21    -1     0     0   502   501  0.000000000E+00  0.000000000E+00  8.054742818E+02  8.054742818E+02  0.000000000E+00  0.00000E+00  9.000E+00
      21    -1     0     0   501   512  0.000000000E+00  0.000000000E+00 -1.942515832E+02  1.942515832E+02  0.000000000E+00  0.00000E+00  9.000E+00
      25     1     1     2     0     0  5.920303712E+01  1.843182887E+02  2.447456063E+02  3.361601448E+02  1.250000000E+02  0.00000E+00  9.000E+00
      25     1     1     2     0     0 -1.059710243E+02 -1.204605926E+02  4.822143477E+02  5.233510194E+02  1.250000000E+02  0.00000E+00  9.000E+00
      21     1     1     2   502   512  4.676798722E+01 -6.385769614E+01 -1.157372555E+02  1.402147007E+02  3.814697266E-06  0.00000E+00  9.000E+00
#rwgt            1           1   1.2825425693972955E-002           7      475708           0
</event>
<event>
      5   9999  3.79277E-02  2.50108E+02 -1.00000E+00  1.08224E-01
      -3    -1     0     0     0   501  0.000000000E+00  0.000000000E+00  1.648704567E+02  1.648704567E+02  0.000000000E+00  0.00000E+00  9.000E+00
      21    -1     0     0   501   502  0.000000000E+00  0.000000000E+00 -1.026009236E+03  1.026009236E+03  0.000000000E+00  0.00000E+00  9.000E+00
      25     1     1     2     0     0  9.987323821E+01 -5.236902633E+01 -9.531690729E+01  1.934618604E+02  1.250000000E+02  0.00000E+00  9.000E+00
      25     1     1     2     0     0  1.447432578E+02  1.044894747E+02 -7.079064231E+02  7.406923551E+02  1.250000000E+02  0.00000E+00  9.000E+00
      -3     1     1     2     0   502 -2.446164960E+02 -5.212044832E+01 -5.791544847E+01  2.567254768E+02  4.046097457E-06  0.00000E+00  9.000E+00
#rwgt            2           3   2.9769573824201415E-005           7      476087           0
</event>
<event>
      5   9999  3.79277E-02  9.08571E+01 -1.00000E+00  1.25730E-01
      21    -1     0     0   511   501  0.000000000E+00  0.000000000E+00  6.041547227E+02  6.041547227E+02  0.000000000E+00  0.00000E+00  9.000E+00
      21    -1     0     0   501   502  0.000000000E+00  0.000000000E+00 -1.420446046E+02  1.420446046E+02  0.000000000E+00  0.00000E+00  9.000E+00
      25     1     1     2     0     0 -3.732024601E+00  7.617147721E+01 -7.128673467E+01  1.628582834E+02  1.250000000E+02  0.00000E+00  9.000E+00
      25     1     1     2     0     0  7.210653306E+01 -1.633888598E+01  3.206527418E+02  3.520078012E+02  1.250000000E+02  0.00000E+00  9.000E+00
      21     1     1     2   511   502 -6.837450846E+01 -5.983259123E+01  2.127441110E+02  2.313332426E+02  2.697398305E-06  0.00000E+00  9.000E+00
#rwgt            1           1   4.0733442626057575E-002           7      476106           0
</event>
<event>
      5   9999  3.79277E-02  1.76784E+01 -1.00000E+00  1.70915E-01
      21    -1     0     0   502   501  0.000000000E+00  0.000000000E+00  1.641036360E+02  1.641036360E+02  0.000000000E+00  0.00000E+00  9.000E+00
      -3    -1     0     0     0   502  0.000000000E+00  0.000000000E+00 -1.930837761E+02  1.930837761E+02  0.000000000E+00  0.00000E+00  9.000E+00
      25     1     1     2     0     0 -8.986260480E+00 -3.551399189E+01 -7.631321323E+01  1.509659002E+02  1.250000000E+02  0.00000E+00  9.000E+00
      25     1     1     2     0     0 -7.505043294E+00  2.914503118E+01  9.205693560E+01  1.581304459E+02  1.250000000E+02  0.00000E+00  9.000E+00
      -3     1     1     2     0   501  1.649130377E+01  6.368960705E+00 -4.472386246E+01  4.809106605E+01  6.743495762E-07  0.00000E+00  9.000E+00
#rwgt            1           1   4.0082552628918841E-002           7      476205           0
</event>
<event>
      5   9999  3.79277E-02  1.95644E+01 -1.00000E+00  1.67162E-01
      21    -1     0     0   502   511  0.000000000E+00  0.000000000E+00  5.843863446E+01  5.843863446E+01  0.000000000E+00  0.00000E+00  9.000E+00
      21    -1     0     0   501   502  0.000000000E+00  0.000000000E+00 -9.097604131E+02  9.097604131E+02  0.000000000E+00  0.00000E+00  9.000E+00
      25     1     1     2     0     0 -1.715741202E+02  4.867903114E+01 -3.391145785E+02  4.030273243E+02  1.250000000E+02  0.00000E+00  9.000E+00
      25     1     1     2     0     0  1.539521822E+02 -5.717813285E+01 -5.027037193E+02  5.434212387E+02  1.250000000E+02  0.00000E+00  9.000E+00
      21     1     1     2   501   511  1.762193798E+01  8.499101708E+00 -9.503480770E+00  2.175048447E+01  2.665600750E-07  0.00000E+00  9.000E+00
#rwgt            1           1   1.3751558519983416E-002           7      476436           0
</event>
<event>
      5   9999  3.79277E-02  2.65478E+01 -1.00000E+00  1.56821E-01
      21    -1     0     0   502   501  0.000000000E+00  0.000000000E+00  1.828013985E+02  1.828013985E+02  0.000000000E+00  0.00000E+00  9.000E+00
      21    -1     0     0   501   512  0.000000000E+00  0.000000000E+00 -4.374358513E+02  4.374358513E+02  0.000000000E+00  0.00000E+00  9.000E+00
      25     1     1     2     0     0 -2.779511754E+01 -2.184669729E+02 -4.084709606E+01  2.565031619E+02  1.250000000E+02  0.00000E+00  9.000E+00
      25     1     1     2     0     0  5.180248037E+01  2.297996982E+02 -1.849346920E+02  3.245261755E+02  1.250000000E+02  0.00000E+00  9.000E+00
      21     1     1     2   502   512 -2.400736283E+01 -1.133272532E+01 -2.885266477E+01  3.920791244E+01  5.840038640E-07  0.00000E+00  9.000E+00
#rwgt            1           1   3.1576563702018910E-002           7      476573           0
</event>
<event>
      5   9999 -3.79277E-02  1.37963E+02 -1.00000E+00  1.17852E-01
       2    -1     0     0   502     0  0.000000000E+00  0.000000000E+00  1.552452153E+03  1.552452153E+03  0.000000000E+00  0.00000E+00  9.000E+00
      21    -1     0     0   501   502  0.000000000E+00  0.000000000E+00 -3.570411798E+02  3.570411798E+02  0.000000000E+00  0.00000E+00  9.000E+00
      25     1     1     2     0     0  2.586902847E+02 -2.156486614E+02  2.533338650E+02  4.395771328E+02  1.250000000E+02  0.00000E+00  9.000E+00
      25     1     1     2     0     0 -3.530827370E+02  1.150311402E+02 -1.114735520E+02  4.073707589E+02  1.250000000E+02  0.00000E+00  9.000E+00
       2     1     1     2   501     0  9.439245235E+01  1.006175212E+02  1.053550660E+03  1.062545441E+03  0.000000000E+00  0.00000E+00  9.000E+00
#rwgt            1           1 -0.22880484419933100                7      476750           0
</event>
<event>
      5   9999  3.79277E-02  3.35642E+01 -1.00000E+00  1.49729E-01
      21    -1     0     0   502   511  0.000000000E+00  0.000000000E+00  5.899358545E+01  5.899358545E+01  0.000000000E+00  0.00000E+00  9.000E+00
      21    -1     0     0   501   502  0.000000000E+00  0.000000000E+00 -1.140244306E+03  1.140244306E+03  0.000000000E+00  0.00000E+00  9.000E+00
      25     1     1     2     0     0 -1.571054318E+02 -2.757109382E+01 -4.816169018E+02  5.225151883E+02  1.250000000E+02  0.00000E+00  9.000E+00
      25     1     1     2     0     0  1.781073439E+02  1.389477218E+00 -6.048087911E+02  6.427618769E+02  1.250000000E+02  0.00000E+00  9.000E+00
      21     1     1     2   501   511 -2.100191210E+01  2.618161660E+01  5.174972605E+00  3.396082598E+01  3.475518164E-07  0.00000E+00  9.000E+00
#rwgt            1           1   3.7194645019386859E-002           7      476831           0
</event>
<event>
      5   9999 -3.79277E-02  9.13203E+01 -1.00000E+00  1.25628E-01
      21    -1     0     0   502   512  0.000000000E+00  0.000000000E+00  4.659494990E+02  4.659494990E+02  0.000000000E+00  0.00000E+00  9.000E+00
      21    -1     0     0   501   502  0.000000000E+00  0.000000000E+00 -1.869013487E+02  1.869013487E+02  0.000000000E+00  0.00000E+00  9.000E+00
      25     1     1     2     0     0  1.120402315E+02  8.273847332E+01  1.263849832E+01  1.875723862E+02  1.250000000E+02  0.00000E+00  9.000E+00
      25     1     1     2     0     0 -2.637588155E+01 -1.143774040E+02 -1.237450098E+01  1.719186027E+02  1.250000000E+02  0.00000E+00  9.000E+00
      21     1     1     2   501   512 -8.566434991E+01  3.163893071E+01  2.787841530E+02  2.933598588E+02  0.000000000E+00  0.00000E+00  9.000E+00
#rwgt            1           1 -0.11294494466860411                7      476983           0
</event>
<event>
      5   9999  3.79277E-02  2.44770E+01 -1.00000E+00  1.59442E-01
      21    -1     0     0   502   501  0.000000000E+00  0.000000000E+00  1.714468663E+03  1.714468663E+03  0.000000000E+00  0.00000E+00  9.000E+00
      21    -1     0     0   501   511  0.000000000E+00  0.000000000E+00 -7.429730234E+02  7.429730234E+02  0.000000000E+00  0.00000E+00  9.000E+00
      25     1     1     2     0     0 -1.329415139E+02 -2.721912402E+01  1.434840067E+03  1.446653153E+03  1.250000000E+02  0.00000E+00  9.000E+00
      25     1     1     2     0     0  1.131399719E+02  1.283078845E+01  2.473787438E+02  2.996439975E+02  1.250000000E+02  0.00000E+00  9.000E+00
      21     1     1     2   502   511  1.980154206E+01  1.438833557E+01 -7.107231711E+02  7.111445361E+02  7.629394531E-06  0.00000E+00  9.000E+00
#rwgt            1           1   3.9907776302103036E-002           7      477069           0
</event>
<event>
      5   9999  3.79277E-02  2.34359E+01 -1.00000E+00  1.60882E-01
      21    -1     0     0   502   501  0.000000000E+00  0.000000000E+00  1.535402029E+02  1.535402029E+02  0.000000000E+00  0.00000E+00  9.000E+00
      21    -1     0     0   512   502  0.000000000E+00  0.000000000E+00 -2.832609709E+02  2.832609709E+02  0.000000000E+00  0.00000E+00  9.000E+00
      25     1     1     2     0     0 -9.764952845E+01  3.111176920E+01  4.780632201E+01  1.685639849E+02  1.250000000E+02  0.00000E+00  9.000E+00
      25     1     1     2     0     0  1.202432092E+02 -2.488531803E+01 -1.413284168E+02  2.251142595E+02  1.250000000E+02  0.00000E+00  9.000E+00
      21     1     1     2   512   501 -2.259368073E+01 -6.226451166E+00 -3.619867315E+01  4.312292941E+01  0.000000000E+00  0.00000E+00  9.000E+00
#rwgt            1           1   4.4302461447421740E-002           7      477287           0
</event>
<event>
      5   9999  3.79277E-02  7.33777E+01 -1.00000E+00  1.30193E-01
      21    -1     0     0   502   511  0.000000000E+00  0.000000000E+00  2.402967690E+02  2.402967690E+02  0.000000000E+00  0.00000E+00  9.000E+00
      21    -1     0     0   501   502  0.000000000E+00  0.000000000E+00 -4.682311110E+02  4.682311110E+02  0.000000000E+00  0.00000E+00  9.000E+00
      25     1     1     2     0     0  6.731864431E+00 -1.348054004E+02  8.515486397E+01  2.027169574E+02  1.250000000E+02  0.00000E+00  9.000E+00
      25     1     1     2     0     0  5.508912822E+01  1.743331731E+02 -3.571305605E+02  4.202310133E+02  1.250000000E+02  0.00000E+00  9.000E+00
      21     1     1     2   501   511 -6.182099265E+01 -3.952777278E+01  4.404135453E+01  8.557990922E+01  1.348699152E-06  0.00000E+00  9.000E+00
#rwgt            1           1   4.4006886131869143E-002           7      477463           0
</event>
<event>
      5   9999  3.79277E-02  1.91421E+01 -1.00000E+00  1.67955E-01
      21    -1     0     0   502   501  0.000000000E+00  0.000000000E+00  5.864776296E+01  5.864776296E+01  0.000000000E+00  0.00000E+00  9.000E+00
      21    -1     0     0   501   512  0.000000000E+00  0.000000000E+00 -5.282914544E+02  5.282914544E+02  0.000000000E+00  0.00000E+00  9.000E+00
      25     1     1     2     0     0  2.882345962E+01  6.177561239E+01 -8.264978277E+01  1.646299022E+02  1.250000000E+02  0.00000E+00  9.000E+00
      25     1     1     2     0     0 -2.139811528E+01 -7.941889525E+01 -3.503656903E+02  3.809807833E+02  1.250000000E+02  0.00000E+00  9.000E+00
      21     1     1     2   502   512 -7.425344337E+00  1.764328286E+01 -3.662821836E+01  4.132853189E+01  4.768371582E-07  0.00000E+00  9.000E+00
#rwgt            1           1   4.6657717515021568E-002           7      477602           0
</event>
<event>
      5   9999  3.79277E-02  8.72155E+01 -1.00000E+00  1.26560E-01
      21    -1     0     0   511   501  0.000000000E+00  0.000000000E+00  6.532203209E+02  6.532203209E+02  0.000000000E+00  0.00000E+00  9.000E+00
      21    -1     0     0   501   502  0.000000000E+00  0.000000000E+00 -1.225103278E+02  1.225103278E+02  0.000000000E+00  0.00000E+00  9.000E+00
      25     1     1     2     0     0  1.662842463E+02 -4.780235095E+01  1.418043079E+02  2.562595892E+02  1.250000000E+02  0.00000E+00  9.000E+00
      25     1     1     2     0     0 -1.876269594E+02 -3.676147217E+01  1.727896531E+02  2.864202261E+02  1.250000000E+02  0.00000E+00  9.000E+00
      21     1     1     2   511   502  2.134271311E+01  8.456382311E+01  2.161160320E+02  2.330508333E+02  2.697398305E-06  0.00000E+00  9.000E+00
#rwgt            1           1   3.7784892984283176E-002           7      477826           0
</event>
<event>
      5   9999  3.79277E-02  5.00289E+01 -1.00000E+00  1.39061E-01
      21    -1     0     0   502   501  0.000000000E+00  0.000000000E+00  9.750373888E+02  9.750373888E+02  0.000000000E+00  0.00000E+00  9.000E+00
      21    -1     0     0   501   512  0.000000000E+00  0.000000000E+00 -4.860698764E+01  4.860698764E+01  0.000000000E+00  0.00000E+00  9.000E+00
      25     1     1     2     0     0  1.032191334E+02  3.316666669E+01  2.004816752E+02  2.599463779E+02  1.250000000E+02  0.00000E+00  9.000E+00
      25     1     1     2     0     0 -1.153515003E+02  1.536881080E+01  6.549029324E+02  6.768050087E+02  1.250000000E+02  0.00000E+00  9.000E+00
      21     1     1     2   502   512  1.213236692E+01 -4.853547750E+01  7.104579354E+01  8.689298984E+01  9.536743164E-07  0.00000E+00  9.000E+00
#rwgt            1           1   3.7742144091941945E-002           7      477908           0
</event>
<event>
      5   9999  3.79277E-02  2.13224E+01 -1.00000E+00  1.64107E-01
      21    -1     0     0   502   511  0.000000000E+00  0.000000000E+00  2.265158010E+02  2.265158010E+02  0.000000000E+00  0.00000E+00  9.000E+00
      21    -1     0     0   501   502  0.000000000E+00  0.000000000E+00 -1.804503757E+02  1.804503757E+02  0.000000000E+00  0.00000E+00  9.000E+00
      25     1     1     2     0     0  9.538688643E+01  7.134144518E+01 -2.449775539E+00  1.726825449E+02  1.250000000E+02  0.00000E+00  9.000E+00
      25     1     1     2     0     0 -1.117798614E+02 -8.497646482E+01  7.598884841E+00  1.881448379E+02  1.250000000E+02  0.00000E+00  9.000E+00
      21     1     1     2   501   511  1.639297493E+01  1.363501964E+01  4.091631601E+01  4.613879391E+01  4.768371582E-07  0.00000E+00  9.000E+00
#rwgt            1           1   2.7749668037799338E-002           7      478043           0
</event>
<event>
      5   9999  3.79277E-02  1.89637E+01 -1.00000E+00  1.68298E-01
      21    -1     0     0   502   512  0.000000000E+00  0.000000000E+00  3.082766805E+01  3.082766805E+01  0.000000000E+00  0.00000E+00  9.000E+00
      21    -1     0     0   501   502  0.000000000E+00  0.000000000E+00 -2.024327933E+03  2.024327933E+03  0.000000000E+00  0.00000E+00  9.000E+00
      25     1     1     2     0     0 -1.004264651E+02 -1.523538155E+02 -1.284577418E+03  1.303480458E+03  1.250000000E+02  0.00000E+00  9.000E+00
      25     1     1     2     0     0  9.277123710E+01  1.697037000E+02 -6.677940138E+02  7.063849468E+02  1.250000000E+02  0.00000E+00  9.000E+00
      21     1     1     2   501   512  7.655227970E+00 -1.734988447E+01 -4.112883225E+01  4.529019594E+01  4.768371582E-07  0.00000E+00  9.000E+00
#rwgt            1           1   5.3155660084803533E-002           7      478295           0
</event>
<event>
      5   9999  3.79277E-02  4.92919E+01 -1.00000E+00  1.39430E-01
      21    -1     0     0   502   511  0.000000000E+00  0.000000000E+00  3.670115980E+02  3.670115980E+02  0.000000000E+00  0.00000E+00  9.000E+00
      21    -1     0     0   501   502  0.000000000E+00  0.000000000E+00 -4.539347417E+02  4.539347417E+02  0.000000000E+00  0.00000E+00  9.000E+00
      25     1     1     2     0     0  2.315473270E+02 -1.250311274E+02  1.902052886E+02  3.479224041E+02  1.250000000E+02  0.00000E+00  9.000E+00
      25     1     1     2     0     0 -2.029085853E+02  8.491240594E+01 -3.198378014E+02  4.078029302E+02  1.250000000E+02  0.00000E+00  9.000E+00
      21     1     1     2   501   511 -2.863874177E+01  4.011872145E+01  4.270936912E+01  6.522100545E+01  1.066240300E-06  0.00000E+00  9.000E+00
#rwgt            1           1   4.5868292132539894E-002           7      478471           0
</event>
<event>
      5   9999  3.79277E-02  1.72240E+02 -1.00000E+00  1.14063E-01
      21    -1     0     0   502   501  0.000000000E+00  0.000000000E+00  3.482989653E+02  3.482989653E+02  0.000000000E+00  0.00000E+00  9.000E+00
      21    -1     0     0   501   512  0.000000000E+00  0.000000000E+00 -7.381788327E+02  7.381788327E+02  0.000000000E+00  0.00000E+00  9.000E+00
      25     1     1     2     0     0 -2.991023365E+02 -1.541012109E+02 -3.778668657E+02  5.211696068E+02  1.250000000E+02  0.00000E+00  9.000E+00
      25     1     1     2     0     0  3.498806348E+02 -1.048403974E+01  6.379668561E+01  3.771225143E+02  1.250000000E+02  0.00000E+00  9.000E+00
      21     1     1     2   502   512 -5.077829836E+01  1.645852506E+02 -7.580968734E+01  1.881856769E+02  2.523185073E-06  0.00000E+00  9.000E+00
#rwgt            1           1   4.1543718305300521E-002           7      478640           0
</event>
<event>
      5   9999  3.79277E-02  2.95674E+01 -1.00000E+00  1.53479E-01
      21    -1     0     0   502   501  0.000000000E+00  0.000000000E+00  1.887952593E+02  1.887952593E+02  0.000000000E+00  0.00000E+00  9.000E+00
      21    -1     0     0   511   502  0.000000000E+00  0.000000000E+00 -3.245627297E+02  3.245627297E+02  0.000000000E+00  0.00000E+00  9.000E+00
      25     1     1     2     0     0  1.248473984E+02  1.028638853E+02  1.813366050E+01  2.052356729E+02  1.250000000E+02  0.00000E+00  9.000E+00
      25     1     1     2     0     0 -1.533814656E+02 -1.106121837E+02 -1.024066608E+02  2.487429463E+02  1.250000000E+02  0.00000E+00  9.000E+00
      21     1     1     2   511   501  2.853406713E+01  7.748298383E+00 -5.149447008E+01  5.937936984E+01  9.536743164E-07  0.00000E+00  9.000E+00
#rwgt            1           1   7.9064920077522013E-002           7      478725           0
</event>
<event>
      5   9999 -3.79277E-02  3.86999E+01 -1.00000E+00  1.45736E-01
      21    -1     0     0   502   501  0.000000000E+00  0.000000000E+00  4.256406548E+02  4.256406548E+02  0.000000000E+00  0.00000E+00  9.000E+00
      21    -1     0     0   512   502  0.000000000E+00  0.000000000E+00 -3.953071167E+02  3.953071167E+02  0.000000000E+00  0.00000E+00  9.000E+00
      25     1     1     2     0     0  1.440741633E+02  3.525486355E+01 -1.895000055E+00  1.939815996E+02  1.250000000E+02  0.00000E+00  9.000E+00
      25     1     1     2     0     0 -1.633941665E+02 -1.722489098E+00  2.959429375E+02  3.604273059E+02  1.250000000E+02  0.00000E+00  9.000E+00
      21     1     1     2   512   501  1.932000319E+01 -3.353237445E+01 -2.637143994E+02  2.665388660E+02  5.394796609E-06  0.00000E+00  9.000E+00
#rwgt            1           1 -0.30399316907731300                7      478879           0
</event>
<event>
      5   9999  3.79277E-02  3.56344E+01 -1.00000E+00  1.48023E-01
      21    -1     0     0   511   501  0.000000000E+00  0.000000000E+00  1.207016388E+03  1.207016388E+03  0.000000000E+00  0.00000E+00  9.000E+00
      21    -1     0     0   501   502  0.000000000E+00  0.000000000E+00 -1.126312125E+02  1.126312125E+02  0.000000000E+00  0.00000E+00  9.000E+00
      25     1     1     2     0     0 -2.356120991E+02  7.802412595E+01  8.094943943E+02  8.558662278E+02  1.250000000E+02  0.00000E+00  9.000E+00
      25     1     1     2     0     0  2.711654684E+02 -7.562174264E+01  1.887499891E+02  3.612491074E+02  1.250000000E+02  0.00000E+00  9.000E+00
      21     1     1     2   511   502 -3.555336928E+01 -2.402383319E+00  9.614079188E+01  1.025322651E+02  0.000000000E+00  0.00000E+00  9.000E+00
#rwgt            1           1   3.8356800928889045E-002           7      478977           0
</event>
<event>
      5   9999  3.79277E-02  6.44457E+01 -1.00000E+00  1.33065E-01
      21    -1     0     0   512   501  0.000000000E+00  0.000000000E+00  1.892929822E+02  1.892929822E+02  0.000000000E+00  0.00000E+00  9.000E+00
      21    -1     0     0   501   502  0.000000000E+00  0.000000000E+00 -2.453064897E+02  2.453064897E+02  0.000000000E+00  0.00000E+00  9.000E+00
      25     1     1     2     0     0  7.561629995E+01  9.849752575E+01 -4.583367343E+01  1.820585428E+02  1.250000000E+02  0.00000E+00  9.000E+00
      25     1     1     2     0     0 -6.313354257E+01 -3.527229603E+01 -7.363200577E+01  1.621007444E+02  1.250000000E+02  0.00000E+00  9.000E+00
      21     1     1     2   512   502 -1.248275738E+01 -6.322522972E+01  6.345217175E+01  9.044018468E+01  9.536743164E-07  0.00000E+00  9.000E+00
#rwgt            1           1   3.6067703301031956E-002           7      479129           0
</event>
<event>
      5   9999  3.79277E-02  8.97258E+01 -1.00000E+00  1.25983E-01
      21    -1     0     0   502   511  0.000000000E+00  0.000000000E+00  2.626447233E+02  2.626447233E+02  0.000000000E+00  0.00000E+00  9.000E+00
      21    -1     0     0   501   502  0.000000000E+00  0.000000000E+00 -2.776588607E+02  2.776588607E+02  0.000000000E+00  0.00000E+00  9.000E+00
      25     1     1     2     0     0 -1.067806999E+02 -4.624765020E+01 -1.508824411E+02  2.278847824E+02  1.250000000E+02  0.00000E+00  9.000E+00
      25     1     1     2     0     0  3.360497134E+01  9.817095594E+01  1.679092477E+01  1.633210514E+02  1.250000000E+02  0.00000E+00  9.000E+00
      21     1     1     2   501   511  7.317572859E+01 -5.192330574E+01  1.190773789E+02  1.490977502E+02  3.015782986E-06  0.00000E+00  9.000E+00
#rwgt            2          11   1.9625733700717801E-003           7      479254           0
</event>
<event>
      5   9999  3.79277E-02  8.86860E+01 -1.00000E+00  1.26220E-01
      21    -1     0     0   502   501  0.000000000E+00  0.000000000E+00  8.362224054E+01  8.362224054E+01  0.000000000E+00  0.00000E+00  9.000E+00
       2    -1     0     0   501     0  0.000000000E+00  0.000000000E+00 -3.051202540E+03  3.051202540E+03  0.000000000E+00  0.00000E+00  9.000E+00
      25     1     1     2     0     0 -2.613329707E+01 -5.744287907E+01 -5.028233101E+02  5.219568131E+02  1.250000000E+02  0.00000E+00  9.000E+00
      25     1     1     2     0     0  1.061825763E+02  9.561778962E+01 -4.978459151E+01  1.962676916E+02  1.250000000E+02  0.00000E+00  9.000E+00
       2     1     1     2   502     0 -8.004927925E+01 -3.817491055E+01 -2.414972398E+03  2.416600276E+03  3.051757812E-05  0.00000E+00  9.000E+00
#rwgt            1           1   3.9360365522997397E-002           7      479334           0
</event>
<event>
      5   9999  3.79277E-02  7.75699E+01 -1.00000E+00  1.29001E-01
      21    -1     0     0   511   501  0.000000000E+00  0.000000000E+00  1.315191440E+03  1.315191440E+03  0.000000000E+00  0.00000E+00  9.000E+00
      21    -1     0     0   501   502  0.000000000E+00  0.000000000E+00 -3.089074755E+02  3.089074755E+02  0.000000000E+00  0.00000E+00  9.000E+00
      25     1     1     2     0     0  2.929847663E+02 -3.993350228E+02  3.048645869E+01  5.117254712E+02  1.250000000E+02  0.00000E+00  9.000E+00
      25     1     1     2     0     0 -2.237088017E+02  3.644361496E+02  7.359532010E+02  8.602973027E+02  1.250000000E+02  0.00000E+00  9.000E+00
      21     1     1     2   511   502 -6.927596452E+01  3.489887323E+01  2.398443050E+02  2.520761418E+02  3.814697266E-06  0.00000E+00  9.000E+00
#rwgt            1           1   5.3087953430169477E-002           7      479423           0
</event>
<event>
      5   9999  3.79277E-02  2.66372E+01 -1.00000E+00  1.56715E-01
      21    -1     0     0   502   501  0.000000000E+00  0.000000000E+00  4.866879243E+02  4.866879243E+02  0.000000000E+00  0.00000E+00  9.000E+00
      21    -1     0     0   512   502  0.000000000E+00  0.000000000E+00 -1.981555265E+02  1.981555265E+02  0.000000000E+00  0.00000E+00  9.000E+00
      25     1     1     2     0     0  1.735576681E+02  4.890081560E+01  1.324579719E+02  2.562882523E+02  1.250000000E+02  0.00000E+00  9.000E+00
      25     1     1     2     0     0 -1.536669763E+02 -3.118351187E+01  2.559729866E+02  3.251662973E+02  1.250000000E+02  0.00000E+00  9.000E+00
      21     1     1     2   512   501 -1.989069185E+01 -1.771730373E+01 -9.989856068E+01  1.033889012E+02  0.000000000E+00  0.00000E+00  9.000E+00
#rwgt            1           1   3.9949399846356544E-002           7      479515           0
</event>
<event>
      5   9999  3.79277E-02  5.34292E+01 -1.00000E+00  1.37452E-01
       2    -1     0     0   502     0  0.000000000E+00  0.000000000E+00  1.466702677E+03  1.466702677E+03  0.000000000E+00  0.00000E+00  9.000E+00
      21    -1     0     0   501   502  0.000000000E+00  0.000000000E+00 -9.905172518E+01  9.905172518E+01  0.000000000E+00  0.00000E+00  9.000E+00
      25     1     1     2     0     0  1.300567179E+01 -1.238488863E+01 -4.232764087E+01  1.331884460E+02  1.250000000E+02  0.00000E+00  9.000E+00
      25     1     1     2     0     0  1.317454979E+01 -3.419057976E+01  3.897871551E+02  4.109763871E+02  1.250000000E+02  0.00000E+00  9.000E+00
       2     1     1     2   501     0 -2.618022158E+01  4.657546839E+01  1.020191437E+03  1.021589569E+03  1.078959322E-05  0.00000E+00  9.000E+00
#rwgt            1           1   4.6619347904259090E-002           7      479657           0
</event>
<event>
      5   9999  3.79277E-02  4.76863E+01 -1.00000E+00  1.40260E-01
      21    -1     0     0   502   511  0.000000000E+00  0.000000000E+00  6.243318150E+01  6.243318150E+01  0.000000000E+00  0.00000E+00  9.000E+00
      21    -1     0     0   501   502  0.000000000E+00  0.000000000E+00 -7.940539946E+02  7.940539946E+02  0.000000000E+00  0.00000E+00  9.000E+00
      25     1     1     2     0     0  2.385364543E+01  2.711438658E+01 -6.087876191E+02  6.225363857E+02  1.250000000E+02  0.00000E+00  9.000E+00
      25     1     1     2     0     0 -6.789378852E+01 -4.540241865E+01 -7.784294058E+01  1.683908238E+02  1.250000000E+02  0.00000E+00  9.000E+00
      21     1     1     2   501   511  4.404014310E+01  1.828803207E+01 -4.499025348E+01  6.555996667E+01  6.743495762E-07  0.00000E+00  9.000E+00
#rwgt            1           1   4.5644949137812203E-002           7      479784           0
</event>
<event>
      5   9999  3.79277E-02  1.52688E+02 -1.00000E+00  1.16089E-01
      21    -1     0     0   502   501  0.000000000E+00  0.000000000E+00  3.593732347E+02  3.593732347E+02  0.000000000E+00  0.00000E+00  9.000E+00
      21    -1     0     0   512   502  0.000000000E+00  0.000000000E+00 -2.420773303E+02  2.420773303E+02  0.000000000E+00  0.00000E+00  9.000E+00
      25     1     1     2     0     0  6.712588156E+01  3.580177380E+01  1.609706095E+02  2.175412331E+02  1.250000000E+02  0.00000E+00  9.000E+00
      25     1     1     2     0     0 -9.801728247E+00 -1.773201092E+02  2.080355442E+01  2.181657234E+02  1.250000000E+02  0.00000E+00  9.000E+00
      21     1     1     2   512   501 -5.732415332E+01  1.415183354E+02 -6.447825948E+01  1.657436085E+02  9.536743164E-07  0.00000E+00  9.000E+00
#rwgt            1           1   3.7473395697933454E-002           7      479920           0
</event>
<event>
      5   9999  3.79277E-02  5.48440E+01 -1.00000E+00  1.36822E-01
      -4    -1     0     0     0   501  0.000000000E+00  0.000000000E+00  7.599952359E+02  7.599952359E+02  0.000000000E+00  0.00000E+00  9.000E+00
      21    -1     0     0   501   502  0.000000000E+00  0.000000000E+00 -3.358390598E+02  3.358390598E+02  0.000000000E+00  0.00000E+00  9.000E+00
      25     1     1     2     0     0  2.218628515E+02 -8.610044401E+01  3.796454796E+01  2.714824456E+02  1.250000000E+02  0.00000E+00  9.000E+00
      25     1     1     2     0     0 -2.076107024E+02  1.390602086E+02 -1.279420025E+02  3.073013201E+02  1.250000000E+02  0.00000E+00  9.000E+00
      -4     1     1     2     0   502 -1.425214918E+01 -5.295976457E+01  5.141336306E+02  5.170505300E+02  1.078959322E-05  0.00000E+00  9.000E+00
#rwgt            1           1   4.2332347658597079E-002           7      479995           0
</event>
<event>
      5   9999  3.79277E-02  1.25114E+02 -1.00000E+00  1.19604E-01
      21    -1     0     0   502   511  0.000000000E+00  0.000000000E+00  1.748656716E+02  1.748656716E+02  0.000000000E+00  0.00000E+00  9.000E+00
      21    -1     0     0   501   502  0.000000000E+00  0.000000000E+00 -1.020343120E+03  1.020343120E+03  0.000000000E+00  0.00000E+00  9.000E+00
      25     1     1     2     0     0 -9.058596899E+01  2.171377818E+02 -2.050039600E+02  3.361640339E+02  1.250000000E+02  0.00000E+00  9.000E+00
      25     1     1     2     0     0  4.208093450E+01 -3.324666863E+02 -6.408772159E+02  7.339301795E+02  1.250000000E+02  0.00000E+00  9.000E+00
      21     1     1     2   501   511  4.850503448E+01  1.153289045E+02  4.037278449E-01  1.251145778E+02  1.041550130E-06  0.00000E+00  9.000E+00
#rwgt            1           1   3.7298246574108206E-002           7      480100           0
</event>
<event>
      5   9999  3.79277E-02  4.41666E+01 -1.00000E+00  1.42221E-01
      21    -1     0     0   502   501  0.000000000E+00  0.000000000E+00  1.126223349E+02  1.126223349E+02  0.000000000E+00  0.00000E+00  9.000E+00
      21    -1     0     0   501   512  0.000000000E+00  0.000000000E+00 -8.041744720E+02  8.041744720E+02  0.000000000E+00  0.00000E+00  9.000E+00
      25     1     1     2     0     0  1.824972563E+02 -5.315625982E+01 -3.698768347E+02  4.342403820E+02  1.250000000E+02  0.00000E+00  9.000E+00
      25     1     1     2     0     0 -2.084575510E+02  8.888794863E+01 -1.373117531E+02  2.929763396E+02  1.250000000E+02  0.00000E+00  9.000E+00
      21     1     1     2   502   512  2.596029467E+01 -3.573168880E+01 -1.843635492E+02  1.895800854E+02  0.000000000E+00  0.00000E+00  9.000E+00
#rwgt            1           1   2.6445907350824194E-002           7      480219           0
</event>
<event>
      5   9999  3.79277E-02  4.12281E+01 -1.00000E+00  1.44030E-01
      21    -1     0     0   502   501  0.000000000E+00  0.000000000E+00  1.634842517E+01  1.634842517E+01  0.000000000E+00  0.00000E+00  9.000E+00
      21    -1     0     0   511   502  0.000000000E+00  0.000000000E+00 -3.498015350E+03  3.498015350E+03  0.000000000E+00  0.00000E+00  9.000E+00
      25     1     1     2     0     0  5.711895841E+01 -5.581332856E+01 -5.010996621E+02  5.225931252E+02  1.250000000E+02  0.00000E+00  9.000E+00
      25     1     1     2     0     0 -9.611936111E+01  6.918216803E+01 -1.383924552E+03  1.394595737E+03  1.250000000E+02  0.00000E+00  9.000E+00
      21     1     1     2   511   501  3.900040269E+01 -1.336883948E+01 -1.596642711E+03  1.597174913E+03  0.000000000E+00  0.00000E+00  9.000E+00
#rwgt            1           1  0.11121014017285269                7      480338           0
</event>
<event>
      5   9999  3.79277E-02  1.72151E+01 -1.00000E+00  1.71928E-01
      21    -1     0     0   502   501  0.000000000E+00  0.000000000E+00  1.325590675E+02  1.325590675E+02  0.000000000E+00  0.00000E+00  9.000E+00
      21    -1     0     0   512   502  0.000000000E+00  0.000000000E+00 -2.912532367E+02  2.912532367E+02  0.000000000E+00  0.00000E+00  9.000E+00
      25     1     1     2     0     0 -5.101717748E+01  6.118067025E+01 -2.585419422E+01  1.504635044E+02  1.250000000E+02  0.00000E+00  9.000E+00
      25     1     1     2     0     0  6.761893960E+01 -5.662647965E+01 -1.439466667E+01  1.536589913E+02  1.250000000E+02  0.00000E+00  9.000E+00
      21     1     1     2   512   501 -1.660176213E+01 -4.554190605E+00 -1.184453083E+02  1.196898083E+02  1.348699152E-06  0.00000E+00  9.000E+00
#rwgt            1           1  0.11189858157059798                7      480509           0
</event>
<event>
      5   9999  3.79277E-02  8.50009E+01 -1.00000E+00  1.27088E-01
      21    -1     0     0   502   501  0.000000000E+00  0.000000000E+00  1.971309598E+02  1.971309598E+02  0.000000000E+00  0.00000E+00  9.000E+00
      21    -1     0     0   501   511  0.000000000E+00  0.000000000E+00 -7.010551385E+02  7.010551385E+02  0.000000000E+00  0.00000E+00  9.000E+00
      25     1     1     2     0     0 -3.437691428E+01  1.593625230E+02 -1.373261101E+02  2.471065488E+02  1.250000000E+02  0.00000E+00  9.000E+00
      25     1     1     2     0     0 -5.000693672E+01 -1.491394967E+02  6.501525766E+01  2.111759146E+02  1.250000000E+02  0.00000E+00  9.000E+00
      21     1     1     2   502   511  8.438385100E+01 -1.022302629E+01 -4.316133263E+02  4.399036349E+02  0.000000000E+00  0.00000E+00  9.000E+00
#rwgt            1           1   4.5187337889781617E-002           7      480653           0
</event>
<event>
      5   9999  3.79277E-02  1.26019E+01 -1.00000E+00  1.84821E-01
      21    -1     0     0   502   512  0.000000000E+00  0.000000000E+00  6.919422066E+02  6.919422066E+02  0.000000000E+00  0.00000E+00  9.000E+00
      21    -1     0     0   501   502  0.000000000E+00  0.000000000E+00 -9.625938837E+01  9.625938837E+01  0.000000000E+00  0.00000E+00  9.000E+00
      25     1     1     2     0     0  4.898852215E+01 -4.363570169E+01  5.347941161E+02  5.531127339E+02  1.250000000E+02  0.00000E+00  9.000E+00
      25     1     1     2     0     0 -3.725288213E+01  4.822737291E+01 -3.088673423E+01  1.424522624E+02  1.250000000E+02  0.00000E+00  9.000E+00
      21     1     1     2   501   512 -1.173564003E+01 -4.591671215E+00  9.177543635E+01  9.263659864E+01  1.348699152E-06  0.00000E+00  9.000E+00
#rwgt            1           1   5.4157390454020307E-002           7      480703           0
</event>
<event>
      5   9999 -3.79277E-02  1.91621E+02 -1.00000E+00  1.12329E-01
      21    -1     0     0   502   501  0.000000000E+00  0.000000000E+00  2.736980586E+03  2.736980586E+03  0.000000000E+00  0.00000E+00  9.000E+00
      21    -1     0     0   501   511  0.000000000E+00  0.000000000E+00 -2.565709994E+02  2.565709994E+02  0.000000000E+00  0.00000E+00  9.000E+00
      25     1     1     2     0     0 -2.293379847E+02 -2.051306184E+02  2.208144726E+03  2.232980657E+03  1.250000000E+02  0.00000E+00  9.000E+00
      25     1     1     2     0     0  1.644201853E+02  2.484077574E+01  4.521717634E+02  4.977302131E+02  1.250000000E+02  0.00000E+00  9.000E+00
      21     1     1     2   502   511  6.491779946E+01  1.802898427E+02 -1.799069029E+02  2.628407156E+02  3.303624740E-06  0.00000E+00  9.000E+00
#rwgt            1           1  -4.8907080360104556E-002           7      480936           0
</event>
<event>
      5   9999 -3.79277E-02  1.15905E+01 -1.00000E+00  1.88628E-01
      21    -1     0     0   502   501  0.000000000E+00  0.000000000E+00  1.867204530E+01  1.867204530E+01  0.000000000E+00  0.00000E+00  9.000E+00
      21    -1     0     0   501   512  0.000000000E+00  0.000000000E+00 -1.387594048E+03  1.387594048E+03  0.000000000E+00  0.00000E+00  9.000E+00
      25     1     1     2     0     0  1.756200767E+01 -7.525312098E+01 -8.483243924E+02  8.609591925E+02  1.250000000E+02  0.00000E+00  9.000E+00
      25     1     1     2     0     0 -6.677291408E+00  7.923579972E+01 -4.498687947E+02  4.736347017E+02  1.250000000E+02  0.00000E+00  9.000E+00
      21     1     1     2   502   512 -1.088471626E+01 -3.982678740E+00 -7.072881513E+01  7.167219870E+01  1.651812370E-06  0.00000E+00  9.000E+00
#rwgt            1           1  -2.4589999523552720E-002           7      481004           0
</event>
<event>
      5   9999  3.79277E-02  1.35613E+01 -1.00000E+00  1.81611E-01
      21    -1     0     0   502   501  0.000000000E+00  0.000000000E+00  1.006117843E+03  1.006117843E+03  0.000000000E+00  0.00000E+00  9.000E+00
      21    -1     0     0   501   511  0.000000000E+00  0.000000000E+00 -1.504317477E+02  1.504317477E+02  0.000000000E+00  0.00000E+00  9.000E+00
      25     1     1     2     0     0  8.342283850E+01  2.084253935E+02  6.098762184E+02  6.617964313E+02  1.250000000E+02  0.00000E+00  9.000E+00
      25     1     1     2     0     0 -6.987169282E+01 -2.079005501E+02  3.266229163E+02  4.128101520E+02  1.250000000E+02  0.00000E+00  9.000E+00
      21     1     1     2   502   511 -1.355114568E+01 -5.248434587E-01 -8.081303971E+01  8.194300701E+01  0.000000000E+00  0.00000E+00  9.000E+00
#rwgt            1           1   3.5362578947237225E-002           7      481191           0
</event>
<event>
      5   9999  3.79277E-02  1.85738E+01 -1.00000E+00  1.69064E-01
      21    -1     0     0   502   512  0.000000000E+00  0.000000000E+00  7.078321128E+01  7.078321128E+01  0.000000000E+00  0.00000E+00  9.000E+00
      21    -1     0     0   501   502  0.000000000E+00  0.000000000E+00 -1.017060916E+03  1.017060916E+03  0.000000000E+00  0.00000E+00  9.000E+00
      25     1     1     2     0     0  9.101931775E+01 -1.406614566E+02 -6.884374772E+02  7.194729471E+02  1.250000000E+02  0.00000E+00  9.000E+00
      25     1     1     2     0     0 -7.262181023E+01  1.432142045E+02 -2.756587329E+02  3.426324163E+02  1.250000000E+02  0.00000E+00  9.000E+00
      21     1     1     2   501   512 -1.839750752E+01 -2.552747906E+00  1.781850567E+01  2.573876355E+01  3.371747881E-07  0.00000E+00  9.000E+00
#rwgt            1           1   1.9691973000442176E-002           7      481464           0
</event>
<event>
      5   9999  3.79277E-02  4.06386E+01 -1.00000E+00  1.44415E-01
      21    -1     0     0   502   501  0.000000000E+00  0.000000000E+00  6.611498115E+02  6.611498115E+02  0.000000000E+00  0.00000E+00  9.000E+00
      21    -1     0     0   511   502  0.000000000E+00  0.000000000E+00 -1.149611932E+02  1.149611932E+02  0.000000000E+00  0.00000E+00  9.000E+00
      25     1     1     2     0     0  4.917635167E+01 -7.797847530E+01  5.149700806E+02  5.378830171E+02  1.250000000E+02  0.00000E+00  9.000E+00
      25     1     1     2     0     0 -8.244658278E+01  1.013149576E+02  5.763247567E+01  1.897594844E+02  1.250000000E+02  0.00000E+00  9.000E+00
      21     1     1     2   511   501  3.327023111E+01 -2.333648233E+01 -2.641393793E+01  4.846850320E+01  5.840038640E-07  0.00000E+00  9.000E+00
#rwgt            1           1   5.1989072294948174E-002           7      481663           0
</event>
<event>
      5   9999  3.79277E-02  4.94459E+01 -1.00000E+00  1.39352E-01
      21    -1     0     0   502   501  0.000000000E+00  0.000000000E+00  3.112637108E+02  3.112637108E+02  0.000000000E+00  0.00000E+00  9.000E+00
      21    -1     0     0   501   512  0.000000000E+00  0.000000000E+00 -6.347982745E+02  6.347982745E+02  0.000000000E+00  0.00000E+00  9.000E+00
      25     1     1     2     0     0  2.351988196E+02  7.640092052E+00 -1.814816311E+01  2.670790362E+02  1.250000000E+02  0.00000E+00  9.000E+00
      25     1     1     2     0     0 -1.997234431E+02  2.680400159E+01  1.094751010E+02  2.611851948E+02  1.250000000E+02  0.00000E+00  9.000E+00
      21     1     1     2   502   512 -3.547537652E+01 -3.444409364E+01 -4.148615016E+02  4.177977542E+02  0.000000000E+00  0.00000E+00  9.000E+00
#rwgt            1           1   2.0875987501873070E-002           7      481851           0
</event>
<event>
      5   9999  3.79277E-02  2.86015E+01 -1.00000E+00  1.54494E-01
      21    -1     0     0   502   511  0.000000000E+00  0.000000000E+00  2.998967313E+02  2.998967313E+02  0.000000000E+00  0.00000E+00  9.000E+00
      21    -1     0     0   501   502  0.000000000E+00  0.000000000E+00 -2.311258021E+02  2.311258021E+02  0.000000000E+00  0.00000E+00  9.000E+00
      25     1     1     2     0     0  1.739252268E+02  1.491131105E+02  2.839501910E+01  2.625185353E+02  1.250000000E+02  0.00000E+00  9.000E+00
      25     1     1     2     0     0 -1.495592311E+02 -1.341349793E+02  3.246544195E+01  2.388287277E+02  1.250000000E+02  0.00000E+00  9.000E+00
      21     1     1     2   501   511 -2.436599577E+01 -1.497813118E+01  7.910468165E+00  2.967527035E+01  5.591411304E-07  0.00000E+00  9.000E+00
#rwgt            1           1   4.0135583564068024E-002           7      482010           0
</event>
<event>
      5   9999  3.79277E-02  1.94601E+01 -1.00000E+00  1.67356E-01
      21    -1     0     0   502   501  0.000000000E+00  0.000000000E+00  1.134368795E+02  1.134368795E+02  0.000000000E+00  0.00000E+00  9.000E+00
      21    -1     0     0   512   502  0.000000000E+00  0.000000000E+00 -6.252990119E+02  6.252990119E+02  0.000000000E+00  0.00000E+00  9.000E+00
      25     1     1     2     0     0 -6.802566378E+01  1.706397346E+01 -3.803123399E+02  4.064248344E+02  1.250000000E+02  0.00000E+00  9.000E+00
      25     1     1     2     0     0  6.229039048E+01  1.531800673E+00  5.102832644E+01  1.486987870E+02  1.250000000E+02  0.00000E+00  9.000E+00
      21     1     1     2   512   501  5.735273306E+00 -1.859577413E+01 -1.825781189E+02  1.836122700E+02  3.814697266E-06  0.00000E+00  9.000E+00
#rwgt            1           1   3.8115674949996139E-002           7      482307           0
</event>
<event>
      5   9999  3.79277E-02  1.74918E+01 -1.00000E+00  1.71318E-01
      21    -1     0     0   511   501  0.000000000E+00  0.000000000E+00  3.645512388E+02  3.645512388E+02  0.000000000E+00  0.00000E+00  9.000E+00
      21    -1     0     0   501   502  0.000000000E+00  0.000000000E+00 -1.624136087E+02  1.624136087E+02  0.000000000E+00  0.00000E+00  9.000E+00
      25     1     1     2     0     0 -1.791028973E+02 -2.751604866E+01  8.216646267E+01  2.349708670E+02  1.250000000E+02  0.00000E+00  9.000E+00
      25     1     1     2     0     0  1.954983517E+02  3.361118202E+01  7.895361243E+01  2.474024858E+02  1.250000000E+02  0.00000E+00  9.000E+00
      21     1     1     2   511   502 -1.639545436E+01 -6.095133362E+00  4.101755503E+01  4.459149465E+01  4.768371582E-07  0.00000E+00  9.000E+00
#rwgt            1           1   3.2495791500651371E-002           7      482495           0
</event>
<event>
      5   9999 -3.79277E-02  7.15314E+00 -1.00000E+00  2.14234E-01
      21    -1     0     0   502   501  0.000000000E+00  0.000000000E+00  2.109864502E+02  2.109864502E+02  0.000000000E+00  0.00000E+00  9.000E+00
      21    -1     0     0   512   502  0.000000000E+00  0.000000000E+00 -4.271244215E+02  4.271244215E+02  0.000000000E+00  0.00000E+00  9.000E+00
      25     1     1     2     0     0 -2.596973497E+02 -3.308162111E+01 -5.150212363E+01  2.946431331E+02  1.250000000E+02  0.00000E+00  9.000E+00
      25     1     1     2     0     0  2.607821876E+02  2.601122548E+01 -1.491887641E+02  3.264448201E+02  1.250000000E+02  0.00000E+00  9.000E+00
      21     1     1     2   512   501 -1.084837823E+00  7.070395633E+00 -1.544708354E+01  1.702291859E+01  1.685873940E-07  0.00000E+00  9.000E+00
#rwgt            1           1 -0.17518281223631549                7      482676           0
</event>
<event>
      5   9999  3.79277E-02  5.25182E+01 -1.00000E+00  1.37869E-01
      21    -1     0     0   502   501  0.000000000E+00  0.000000000E+00  5.816678498E+02  5.816678498E+02  0.000000000E+00  0.00000E+00  9.000E+00
      21    -1     0     0   511   502  0.000000000E+00  0.000000000E+00 -1.235767356E+02  1.235767356E+02  0.000000000E+00  0.00000E+00  9.000E+00
      25     1     1     2     0     0 -4.816617529E+01 -1.196744053E+02  1.905234783E+01  1.806375811E+02  1.250000000E+02  0.00000E+00  9.000E+00
      25     1     1     2     0     0  8.837869606E+01  1.534548545E+02  4.119913291E+02  4.655330725E+02  1.250000000E+02  0.00000E+00  9.000E+00
      21     1     1     2   511   501 -4.021252077E+01 -3.378044919E+01  2.704743721E+01  5.907393193E+01  1.066240300E-06  0.00000E+00  9.000E+00
#rwgt            1           1   4.0417584319716142E-002           7      482958           0
</event>
<event>
      5   9999  3.79277E-02  9.77332E+01 -1.00000E+00  1.24277E-01
      21    -1     0     0   502   501  0.000000000E+00  0.000000000E+00  2.580339095E+02  2.580339095E+02  0.000000000E+00  0.00000E+00  9.000E+00
       1    -1     0     0   501     0  0.000000000E+00  0.000000000E+00 -8.507769025E+02  8.507769025E+02  0.000000000E+00  0.00000E+00  9.000E+00
      25     1     1     2     0     0 -3.462050798E+01 -2.460382650E+01  1.470637655E+02  1.976276271E+02  1.250000000E+02  0.00000E+00  9.000E+00
      25     1     1     2     0     0  1.320729198E+02  3.200700240E+01 -2.107953092E+01  1.858414673E+02  1.250000000E+02  0.00000E+00  9.000E+00
       1     1     1     2   502     0 -9.745241182E+01 -7.403175892E+00 -7.187272276E+02  7.253417176E+02  7.629394531E-06  0.00000E+00  9.000E+00
#rwgt            1           1   4.0247364945021728E-002           7      483170           0
</event>
<event>
      5   9999  3.79277E-02  6.62271E+01 -1.00000E+00  1.32451E-01
      21    -1     0     0   502   511  0.000000000E+00  0.000000000E+00  4.573886676E+01  4.573886676E+01  0.000000000E+00  0.00000E+00  9.000E+00
      21    -1     0     0   501   502  0.000000000E+00  0.000000000E+00 -1.243781442E+03  1.243781442E+03  0.000000000E+00  0.00000E+00  9.000E+00
      25     1     1     2     0     0  1.324873567E+02  5.696036985E+00 -4.422252446E+02  4.783027404E+02  1.250000000E+02  0.00000E+00  9.000E+00
      25     1     1     2     0     0 -1.304263507E+02 -7.189108543E+01 -6.936446476E+02  7.203799402E+02  1.250000000E+02  0.00000E+00  9.000E+00
      21     1     1     2   501   511 -2.061005923E+00  6.619504844E+01 -6.217268331E+01  9.083762840E+01  1.348699152E-06  0.00000E+00  9.000E+00
#rwgt            1           1   5.1675683403844430E-002           7      483226           0
</event>
<event>
      5   9999  3.79277E-02  6.45460E+01 -1.00000E+00  1.33030E-01
      21    -1     0     0   502   512  0.000000000E+00  0.000000000E+00  6.831809060E+01  6.831809060E+01  0.000000000E+00  0.00000E+00  9.000E+00
      21    -1     0     0   501   502  0.000000000E+00  0.000000000E+00 -1.234916878E+03  1.234916878E+03  0.000000000E+00  0.00000E+00  9.000E+00
      25     1     1     2     0     0  6.291467974E+01 -1.991585945E+01 -1.017935828E+03  1.027702899E+03  1.250000000E+02  0.00000E+00  9.000E+00
      25     1     1     2     0     0 -2.285227708E+01  7.052401068E+01 -1.527716194E+02  2.108554726E+02  1.250000000E+02  0.00000E+00  9.000E+00
      21     1     1     2   501   512 -4.006240266E+01 -5.060815123E+01  4.108660345E+00  6.467659675E+01  9.848303581E-07  0.00000E+00  9.000E+00
#rwgt            1           1   4.7052246670338048E-002           7      483339           0
</event>
<event>
      5   9999  3.79277E-02  1.89946E+02 -1.00000E+00  1.12470E-01
       2    -1     0     0   502     0  0.000000000E+00  0.000000000E+00  2.043576337E+03  2.043576337E+03  0.000000000E+00  0.00000E+00  9.000E+00
      21    -1     0     0   501   502  0.000000000E+00  0.000000000E+00 -7.961612288E+01  7.961612288E+01  0.000000000E+00  0.00000E+00  9.000E+00
      25     1     1     2     0     0 -1.009712906E+01  1.229089525E+02  9.945932139E+02  1.009974863E+03  1.250000000E+02  0.00000E+00  9.000E+00
      25     1     1     2     0     0  1.234066784E+02  2.953961076E+01  6.577469389E+01  1.898765579E+02  1.250000000E+02  0.00000E+00  9.000E+00
       2     1     1     2   501     0 -1.133095493E+02 -1.524485633E+02  9.035923062E+02  9.233410390E+02  0.000000000E+00  0.00000E+00  9.000E+00
#rwgt            1           1   2.4155813771692793E-003           7      483438           0
</event>
<event>
      5   9999  3.79277E-02  1.31742E+02 -1.00000E+00  1.18672E-01
      21    -1     0     0   502   501  0.000000000E+00  0.000000000E+00  4.793603490E+02  4.793603490E+02  0.000000000E+00  0.00000E+00  9.000E+00
      21    -1     0     0   501   511  0.000000000E+00  0.000000000E+00 -1.876495275E+02  1.876495275E+02  0.000000000E+00  0.00000E+00  9.000E+00
      25     1     1     2     0     0 -2.029570524E+02 -6.261267469E+00  2.693536329E+02  3.597320505E+02  1.250000000E+02  0.00000E+00  9.000E+00
      25     1     1     2     0     0  9.300109112E+01  7.882586314E+01  8.589740370E+00  1.748184867E+02  1.250000000E+02  0.00000E+00  9.000E+00
      21     1     1     2   502   511  1.099559612E+02 -7.256459567E+01  1.376744820E+01  1.324593394E+02  2.471976442E-06  0.00000E+00  9.000E+00
#rwgt            2          11   2.6520322117049768E-003           7      483617           0
</event>
<event>
      5   9999  3.79277E-02  4.58672E+01 -1.00000E+00  1.41248E-01
       2    -1     0     0   502     0  0.000000000E+00  0.000000000E+00  1.490261949E+03  1.490261949E+03  0.000000000E+00  0.00000E+00  9.000E+00
      21    -1     0     0   501   502  0.000000000E+00  0.000000000E+00 -1.211061782E+02  1.211061782E+02  0.000000000E+00  0.00000E+00  9.000E+00
      25     1     1     2     0     0  1.463785563E+02  1.109780475E+02  5.548078944E+01  2.290107569E+02  1.250000000E+02  0.00000E+00  9.000E+00
      25     1     1     2     0     0 -1.294082119E+02 -6.836570210E+01  2.397341266E+02  3.074374831E+02  1.250000000E+02  0.00000E+00  9.000E+00
       2     1     1     2   501     0 -1.697034441E+01 -4.261234537E+01  1.073940855E+03  1.074919887E+03  1.525878906E-05  0.00000E+00  9.000E+00
#rwgt            1           1   3.1343767348077520E-002           7      483637           0
</event>
<event>
      5   9999  3.79277E-02  8.75704E+01 -1.00000E+00  1.26477E-01
      21    -1     0     0   502   501  0.000000000E+00  0.000000000E+00  1.863976081E+02  1.863976081E+02  0.000000000E+00  0.00000E+00  9.000E+00
       2    -1     0     0   501     0  0.000000000E+00  0.000000000E+00 -1.440789244E+03  1.440789244E+03  0.000000000E+00  0.00000E+00  9.000E+00
      25     1     1     2     0     0 -7.194824544E+01 -1.820759885E+01 -6.940121402E+01  1.610887804E+02  1.250000000E+02  0.00000E+00  9.000E+00
      25     1     1     2     0     0  1.569349526E+02  3.932255121E+01  6.385212046E+01  2.141890186E+02  1.250000000E+02  0.00000E+00  9.000E+00
       2     1     1     2   502     0 -8.498670721E+01 -2.111495236E+01 -1.248842542E+03  1.251909053E+03  2.157918644E-05  0.00000E+00  9.000E+00
#rwgt            1           1   4.3794143367378136E-002           7      483752           0
</event>
<event>
      5   9999 -3.79277E-02  3.33901E+01 -1.00000E+00  1.49879E-01
      21    -1     0     0   511   501  0.000000000E+00  0.000000000E+00  2.459752903E+02  2.459752903E+02  0.000000000E+00  0.00000E+00  9.000E+00
      21    -1     0     0   501   502  0.000000000E+00  0.000000000E+00 -1.313478459E+03  1.313478459E+03  0.000000000E+00  0.00000E+00  9.000E+00
      25     1     1     2     0     0 -3.478796300E+02  2.785930068E+02 -7.515372045E+02  8.826479877E+02  1.250000000E+02  0.00000E+00  9.000E+00
      25     1     1     2     0     0  3.400361002E+02 -3.110487763E+02 -3.762324428E+02  6.079076752E+02  1.250000000E+02  0.00000E+00  9.000E+00
      21     1     1     2   511   502  7.843529814E+00  3.245576941E+01  6.026647827E+01  6.889808656E+01  2.023048729E-06  0.00000E+00  9.000E+00
#rwgt            1           1  -1.9708836089408127E-002           7      483815           0
</event>
<event>
      5   9999  3.79277E-02  6.17089E+01 -1.00000E+00  1.34055E-01
       1    -1     0     0   502     0  0.000000000E+00  0.000000000E+00  2.093462635E+03  2.093462635E+03  0.000000000E+00  0.00000E+00  9.000E+00
      21    -1     0     0   501   502  0.000000000E+00  0.000000000E+00 -5.450243745E+02  5.450243745E+02  0.000000000E+00  0.00000E+00  9.000E+00
      25     1     1     2     0     0  7.456300694E+01 -5.802996345E+01 -5.100024780E+02  5.335303611E+02  1.250000000E+02  0.00000E+00  9.000E+00
      25     1     1     2     0     0 -1.032348317E+02  3.386458236E+00  2.665115064E+02  3.119651930E+02  1.250000000E+02  0.00000E+00  9.000E+00
       1     1     1     2   501     0  2.867182472E+01  5.464350521E+01  1.791929232E+03  1.792991455E+03  3.737624730E-05  0.00000E+00  9.000E+00
#rwgt            1           1   7.7802643712352224E-002           7      484020           0
</event>
<event>
      5   9999  3.79277E-02  6.51555E+01 -1.00000E+00  1.32818E-01
      21    -1     0     0   502   501  0.000000000E+00  0.000000000E+00  2.139137185E+02  2.139137185E+02  0.000000000E+00  0.00000E+00  9.000E+00
      21    -1     0     0   501   511  0.000000000E+00  0.000000000E+00 -5.601705837E+02  5.601705837E+02  0.000000000E+00  0.00000E+00  9.000E+00
      25     1     1     2     0     0 -1.211779066E+02  1.830796789E+01  1.229971941E+02  2.139452651E+02  1.250000000E+02  0.00000E+00  9.000E+00
      25     1     1     2     0     0  1.178678389E+02  4.676336805E+01 -1.456486002E+02  2.300394635E+02  1.250000000E+02  0.00000E+00  9.000E+00
      21     1     1     2   502   511  3.310067615E+00 -6.507133594E+01 -3.236054590E+02  3.300995735E+02  6.607249480E-06  0.00000E+00  9.000E+00
#rwgt            1           1   4.6446935823590642E-002           7      484244           0
</event>
<event>
      5   9999  3.79277E-02  8.75290E+01 -1.00000E+00  1.26487E-01
      21    -1     0     0   512   501  0.000000000E+00  0.000000000E+00  1.809869902E+02  1.809869902E+02  0.000000000E+00  0.00000E+00  9.000E+00
      21    -1     0     0   501   502  0.000000000E+00  0.000000000E+00 -8.185761613E+02  8.185761613E+02  0.000000000E+00  0.00000E+00  9.000E+00
      25     1     1     2     0     0  1.809562232E+02  7.608886721E+01 -3.987298693E+02  4.616764875E+02  1.250000000E+02  0.00000E+00  9.000E+00
      25     1     1     2     0     0 -1.227166379E+02 -1.074757045E+01 -3.528988113E+02  3.941287283E+02  1.250000000E+02  0.00000E+00  9.000E+00
      21     1     1     2   512   502 -5.823958532E+01 -6.534129676E+01  1.140395094E+02  1.437579357E+02  2.336015456E-06  0.00000E+00  9.000E+00
#rwgt            1           1   3.0683607656290631E-002           7      484337           0
</event>
<event>
      5   9999  3.79277E-02  5.26087E+01 -1.00000E+00  1.37827E-01
      21    -1     0     0   502   501  0.000000000E+00  0.000000000E+00  4.504328535E+01  4.504328535E+01  0.000000000E+00  0.00000E+00  9.000E+00
      21    -1     0     0   511   502  0.000000000E+00  0.000000000E+00 -1.929562553E+03  1.929562553E+03  0.000000000E+00  0.00000E+00  9.000E+00
      25     1     1     2     0     0 -1.925368992E+02  3.631147948E+01 -4.842119471E+02  5.370988650E+02  1.250000000E+02  0.00000E+00  9.000E+00
      25     1     1     2     0     0  2.308055112E+02 -7.241111736E+01 -1.178491790E+03  1.209538116E+03  1.250000000E+02  0.00000E+00  9.000E+00
      21     1     1     2   511   501 -3.826861196E+01  3.609963788E+01 -2.218155309E+02  2.279688581E+02  2.697398305E-06  0.00000E+00  9.000E+00
#rwgt            1           1   3.2508449407731718E-002           7      484434           0
</event>
<event>
      5   9999  3.79277E-02  4.22923E+01 -1.00000E+00  1.43355E-01
      21    -1     0     0   502   501  0.000000000E+00  0.000000000E+00  1.172432532E+03  1.172432532E+03  0.000000000E+00  0.00000E+00  9.000E+00
      21    -1     0     0   501   512  0.000000000E+00  0.000000000E+00 -8.318024128E+01  8.318024128E+01  0.000000000E+00  0.00000E+00  9.000E+00
      25     1     1     2     0     0  2.240001081E+02  1.280941634E+01  5.415626385E+02  5.993790295E+02  1.250000000E+02  0.00000E+00  9.000E+00
      25     1     1     2     0     0 -1.919920993E+02 -4.045222781E+01  5.646264526E+02  6.106761662E+02  1.250000000E+02  0.00000E+00  9.000E+00
      21     1     1     2   502   512 -3.200800883E+01  2.764281147E+01 -1.693680052E+01  4.555757749E+01  1.369610464E-06  0.00000E+00  9.000E+00
#rwgt            1           1   3.4642868362135384E-002           7      484620           0
</event>
<event>
      5   9999 -3.79277E-02  1.49796E+01 -1.00000E+00  1.77439E-01
      21    -1     0     0   502   501  0.000000000E+00  0.000000000E+00  3.696382980E+02  3.696382980E+02  0.000000000E+00  0.00000E+00  9.000E+00
      21    -1     0     0   511   502  0.000000000E+00  0.000000000E+00 -1.834656342E+02  1.834656342E+02  0.000000000E+00  0.00000E+00  9.000E+00
      25     1     1     2     0     0 -1.095264431E+02 -1.081835802E+02  2.138195600E+02  2.916222437E+02  1.250000000E+02  0.00000E+00  9.000E+00
      25     1     1     2     0     0  1.180150049E+02  9.584131410E+01  3.251086809E+01  1.994869806E+02  1.250000000E+02  0.00000E+00  9.000E+00
      21     1     1     2   511   501 -8.488561805E+00  1.234226608E+01 -6.015776425E+01  6.199470794E+01  1.168007728E-06  0.00000E+00  9.000E+00
#rwgt            1           1  -1.1844543358339525E-002           7      484800           0
</event>
<event>
      5   9999  3.79277E-02  5.06798E+01 -1.00000E+00  1.38742E-01
      21    -1     0     0   502   512  0.000000000E+00  0.000000000E+00  4.279584779E+02  4.279584779E+02  0.000000000E+00  0.00000E+00  9.000E+00
      21    -1     0     0   501   502  0.000000000E+00  0.000000000E+00 -3.085823053E+02  3.085823053E+02  0.000000000E+00  0.00000E+00  9.000E+00
      25     1     1     2     0     0  1.167053022E+01 -4.731696262E+01 -2.513138931E+02  2.848837817E+02  1.250000000E+02  0.00000E+00  9.000E+00
      25     1     1     2     0     0 -3.659320500E+01  3.188716662E+00  7.231607104E+01  1.490095457E+02  1.250000000E+02  0.00000E+00  9.000E+00
      21     1     1     2   501   512  2.492267478E+01  4.412824595E+01  2.983739947E+02  3.026474558E+02  3.814697266E-06  0.00000E+00  9.000E+00
#rwgt            1           1   4.0482806110566663E-002           7      485047           0
</event>
<event>
      5   9999  3.79277E-02  4.22509E+01 -1.00000E+00  1.43381E-01
      21    -1     0     0   511   501  0.000000000E+00  0.000000000E+00  5.611721623E+02  5.611721623E+02  0.000000000E+00  0.00000E+00  9.000E+00
      21    -1     0     0   501   502  0.000000000E+00  0.000000000E+00 -5.870131194E+02  5.870131194E+02  0.000000000E+00  0.00000E+00  9.000E+00
      25     1     1     2     0     0 -4.974945405E+01  1.977725093E+02 -2.396973704E+02  3.386278237E+02  1.250000000E+02  0.00000E+00  9.000E+00
      25     1     1     2     0     0  7.998393957E+00 -2.042524828E+02 -2.485457778E+02  3.452289888E+02  1.250000000E+02  0.00000E+00  9.000E+00
      21     1     1     2   511   502  4.175106010E+01  6.479973438E+00  4.624021911E+02  4.643284693E+02  0.000000000E+00  0.00000E+00  9.000E+00
#rwgt            1           1   3.6947101346621124E-002           7      485121           0
</event>
<event>
      5   9999  3.79277E-02  3.82320E+01 -1.00000E+00  1.46068E-01
      21    -1     0     0   502   501  0.000000000E+00  0.000000000E+00  2.682023462E+01  2.682023462E+01  0.000000000E+00  0.00000E+00  9.000E+00
      21    -1     0     0   501   512  0.000000000E+00  0.000000000E+00 -2.066520756E+03  2.066520756E+03  0.000000000E+00  0.00000E+00  9.000E+00
      25     1     1     2     0     0 -1.523640964E+02  1.722479350E+01 -6.728829530E+02  7.013615187E+02  1.250000000E+02  0.00000E+00  9.000E+00
      25     1     1     2     0     0  1.574708302E+02 -5.511421846E+01 -9.104021911E+02  9.339656251E+02  1.250000000E+02  0.00000E+00  9.000E+00
      21     1     1     2   502   512 -5.106733876E+00  3.788942496E+01 -4.564153776E+02  4.580138471E+02  0.000000000E+00  0.00000E+00  9.000E+00
#rwgt            1           1   4.0791909420327767E-002           7      485472           0
</event>
<event>
      5   9999 -3.79277E-02  6.30115E+01 -1.00000E+00  1.33577E-01
      21    -1     0     0   502   501  0.000000000E+00  0.000000000E+00  8.703026570E+01  8.703026570E+01  0.000000000E+00  0.00000E+00  9.000E+00
       2    -1     0     0   501     0  0.000000000E+00  0.000000000E+00 -2.297347812E+03  2.297347812E+03  0.000000000E+00  0.00000E+00  9.000E+00
      25     1     1     2     0     0  1.580884089E+02 -9.042816249E+01 -3.180830604E+02  3.872609339E+02  1.250000000E+02  0.00000E+00  9.000E+00
      25     1     1     2     0     0 -1.003693966E+02  1.157058346E+02 -1.364900168E+02  2.402423373E+02  1.250000000E+02  0.00000E+00  9.000E+00
       2     1     1     2   502     0 -5.771901234E+01 -2.527767216E+01 -1.755744469E+03  1.756874806E+03  0.000000000E+00  0.00000E+00  9.000E+00
#rwgt            1           1 -0.16703876359489508                7      485547           0
</event>
<event>
      5   9999  3.79277E-02  1.75786E+01 -1.00000E+00  1.71130E-01
      -3    -1     0     0     0   501  0.000000000E+00  0.000000000E+00  3.008008733E+02  3.008008733E+02  0.000000000E+00  0.00000E+00  9.000E+00
      21    -1     0     0   501   502  0.000000000E+00  0.000000000E+00 -2.268882477E+02  2.268882477E+02  0.000000000E+00  0.00000E+00  9.000E+00
      25     1     1     2     0     0  3.455660841E+01  7.404224198E+01 -4.561509755E+01  1.561478463E+02  1.250000000E+02  0.00000E+00  9.000E+00
      25     1     1     2     0     0 -4.976456082E+01 -8.285852877E+01 -7.592163488E+01  1.753030004E+02  1.250000000E+02  0.00000E+00  9.000E+00
      -3     1     1     2     0   502  1.520795240E+01  8.816286782E+00  1.954493580E+02  1.962382742E+02  0.000000000E+00  0.00000E+00  9.000E+00
#rwgt            1           1   3.4082281824221461E-002           7      485699           0
</event>
<event>
      5   9999  3.79277E-02  4.90848E+01 -1.00000E+00  1.39535E-01
      21    -1     0     0   511   501  0.000000000E+00  0.000000000E+00  1.919755330E+02  1.919755330E+02  0.000000000E+00  0.00000E+00  9.000E+00
      21    -1     0     0   501   502  0.000000000E+00  0.000000000E+00 -5.174672886E+02  5.174672886E+02  0.000000000E+00  0.00000E+00  9.000E+00
      25     1     1     2     0     0 -2.023114350E+01 -9.187911903E+01 -4.250314208E+02  4.529103447E+02  1.250000000E+02  0.00000E+00  9.000E+00
      25     1     1     2     0     0 -2.479572381E+01  7.233689520E+01  1.105682658E+00  1.465389943E+02  1.250000000E+02  0.00000E+00  9.000E+00
      21     1     1     2   511   502  4.502686731E+01  1.954222383E+01  9.843398257E+01  1.099934826E+02  1.907348633E-06  0.00000E+00  9.000E+00
#rwgt            1           1   3.4380229978678518E-002           7      485894           0
</event>
<event>
      5   9999  3.79277E-02  1.50788E+01 -1.00000E+00  1.77170E-01
      21    -1     0     0   502   501  0.000000000E+00  0.000000000E+00  5.430266492E+02  5.430266492E+02  0.000000000E+00  0.00000E+00  9.000E+00
      21    -1     0     0   501   512  0.000000000E+00  0.000000000E+00 -9.854153527E+01  9.854153527E+01  0.000000000E+00  0.00000E+00  9.000E+00
      25     1     1     2     0     0  8.859075617E+01 -4.372643356E+01  3.210021259E+02  3.583680900E+02  1.250000000E+02  0.00000E+00  9.000E+00
      25     1     1     2     0     0 -9.460681541E+01  2.989979354E+01  1.706705362E+02  2.336618906E+02  1.250000000E+02  0.00000E+00  9.000E+00
      21     1     1     2   502   512  6.016059240E+00  1.382664002E+01 -4.718754819E+01  4.953820392E+01  6.743495762E-07  0.00000E+00  9.000E+00
#rwgt            1           1   4.2663824149777325E-002           7      486012           0
</event>
<event>
      5   9999  3.79277E-02  9.67723E+00 -1.00000E+00  1.97419E-01
      21    -1     0     0   511   501  0.000000000E+00  0.000000000E+00  5.304679414E+01  5.304679414E+01  0.000000000E+00  0.00000E+00  9.000E+00
      21    -1     0     0   501   502  0.000000000E+00  0.000000000E+00 -9.987335093E+02  9.987335093E+02  0.000000000E+00  0.00000E+00  9.000E+00
      25     1     1     2     0     0  1.518219137E+02 -6.463373758E+01 -2.691104565E+02  3.395185581E+02  1.250000000E+02  0.00000E+00  9.000E+00
      25     1     1     2     0     0 -1.561577412E+02  5.598217936E+01 -6.672096121E+02  6.987938974E+02  1.250000000E+02  0.00000E+00  9.000E+00
      21     1     1     2   511   502  4.335827568E+00  8.651558219E+00 -9.366646584E+00  1.346784796E+01  0.000000000E+00  0.00000E+00  9.000E+00
#rwgt            1           1   4.4452747885750300E-002           7      486178           0
</event>
<event>
      5   9999  3.79277E-02  8.23904E+01 -1.00000E+00  1.27734E-01
       1    -1     0     0   502     0  0.000000000E+00  0.000000000E+00  4.366081954E+03  4.366081954E+03  0.000000000E+00  0.00000E+00  9.000E+00
      21    -1     0     0   501   502  0.000000000E+00  0.000000000E+00 -5.485209436E+01  5.485209436E+01  0.000000000E+00  0.00000E+00  9.000E+00
      25     1     1     2     0     0 -8.421639818E+01 -8.093615900E+01  3.357561933E+02  3.768292516E+02  1.250000000E+02  0.00000E+00  9.000E+00
      25     1     1     2     0     0  1.597033521E+02  4.792248077E+01  2.868210010E+02  3.545321021E+02  1.250000000E+02  0.00000E+00  9.000E+00
       1     1     1     2   501     0 -7.548695388E+01  3.301367823E+01  3.688652665E+03  3.689572694E+03  7.475249459E-05  0.00000E+00  9.000E+00
#rwgt            1           1   8.3015187288074485E-002           7      486400           0
</event>
<event>
      5   9999  3.79277E-02  5.89284E+01 -1.00000E+00  1.35123E-01
      21    -1     0     0   502   501  0.000000000E+00  0.000000000E+00  2.383409592E+03  2.383409592E+03  0.000000000E+00  0.00000E+00  9.000E+00
      21    -1     0     0   511   502  0.000000000E+00  0.000000000E+00 -7.535254205E+01  7.535254205E+01  0.000000000E+00  0.00000E+00  9.000E+00
      25     1     1     2     0     0  8.564629641E+01  1.978745854E+02  1.932537398E+03  1.948541874E+03  1.250000000E+02  0.00000E+00  9.000E+00
      25     1     1     2     0     0 -1.133086667E+02 -1.458423995E+02  3.902521750E+02  4.494781636E+02  1.250000000E+02  0.00000E+00  9.000E+00
      21     1     1     2   511   501  2.766237025E+01 -5.203218596E+01 -1.473252278E+01  6.074209686E+01  9.830249847E-07  0.00000E+00  9.000E+00
#rwgt            1           1  0.16396163326328689                7      486482           0
</event>
<event>
      5   9999  3.79277E-02  1.07733E+02 -1.00000E+00  1.22390E-01
      21    -1     0     0   502   512  0.000000000E+00  0.000000000E+00  7.566980248E+01  7.566980248E+01  0.000000000E+00  0.00000E+00  9.000E+00
      21    -1     0     0   501   502  0.000000000E+00  0.000000000E+00 -8.461349727E+02  8.461349727E+02  0.000000000E+00  0.00000E+00  9.000E+00
      25     1     1     2     0     0 -5.442661043E+01 -1.320215162E+02 -3.689611555E+02  4.149087501E+02  1.250000000E+02  0.00000E+00  9.000E+00
      25     1     1     2     0     0  1.411280870E+02  6.807447216E+01 -2.823096111E+02  3.462296741E+02  1.250000000E+02  0.00000E+00  9.000E+00
      21     1     1     2   501   512 -8.670147659E+01  6.394704401E+01 -1.191944036E+02  1.606663510E+02  1.348699152E-06  0.00000E+00  9.000E+00
#rwgt            1           1   4.4733250975728063E-002           7      486713           0
</event>
<event>
      5   9999  3.79277E-02  1.51950E+01 -1.00000E+00  1.76857E-01
      21    -1     0     0   502   501  0.000000000E+00  0.000000000E+00  3.214265924E+02  3.214265924E+02  0.000000000E+00  0.00000E+00  9.000E+00
      21    -1     0     0   511   502  0.000000000E+00  0.000000000E+00 -1.904343783E+02  1.904343783E+02  0.000000000E+00  0.00000E+00  9.000E+00
      25     1     1     2     0     0  1.059385886E+02  1.633158032E+02  1.234767661E+02  2.622337658E+02  1.250000000E+02  0.00000E+00  9.000E+00
      25     1     1     2     0     0 -1.126610018E+02 -1.496887177E+02  2.483663225E+01  2.265856832E+02  1.250000000E+02  0.00000E+00  9.000E+00
      21     1     1     2   511   501  6.722413189E+00 -1.362708550E+01 -1.732118432E+01  2.304152175E+01  3.371747881E-07  0.00000E+00  9.000E+00
#rwgt            1           1   4.6803091759340165E-002           7      486943           0
</event>
<event>
      5   9999  3.79277E-02  4.31738E+01 -1.00000E+00  1.42813E-01
      21    -1     0     0   502   501  0.000000000E+00  0.000000000E+00  3.018974323E+02  3.018974323E+02  0.000000000E+00  0.00000E+00  9.000E+00
      21    -1     0     0   501   512  0.000000000E+00  0.000000000E+00 -1.851003487E+03  1.851003487E+03  0.000000000E+00  0.00000E+00  9.000E+00
      25     1     1     2     0     0 -1.813331668E+02 -1.795446420E+02  2.962263284E+01  2.856930105E+02  1.250000000E+02  0.00000E+00  9.000E+00
      25     1     1     2     0     0  1.813350360E+02  2.227183951E+02 -2.646355268E+01  3.143424858E+02  1.250000000E+02  0.00000E+00  9.000E+00
      21     1     1     2   502   512 -1.869197966E-03 -4.317375307E+01 -1.552265135E+03  1.552865423E+03  0.000000000E+00  0.00000E+00  9.000E+00
#rwgt            1           1   3.7740189242176848E-002           7      487179           0
</event>
<event>
      5   9999  3.79277E-02  5.53409E+01 -1.00000E+00  1.36606E-01
      21    -1     0     0   511   501  0.000000000E+00  0.000000000E+00  5.422253305E+02  5.422253305E+02  0.000000000E+00  0.00000E+00  9.000E+00
      21    -1     0     0   501   502  0.000000000E+00  0.000000000E+00 -6.863031059E+02  6.863031059E+02  0.000000000E+00  0.00000E+00  9.000E+00
      25     1     1     2     0     0  2.738284875E+01 -3.083029543E+02 -4.888334496E+02  5.919321528E+02  1.250000000E+02  0.00000E+00  9.000E+00
      25     1     1     2     0     0  2.129970686E+01  2.819851733E+02  2.291391492E+01  3.100312290E+02  1.250000000E+02  0.00000E+00  9.000E+00
      21     1     1     2   511   502 -4.868255562E+01  2.631778096E+01  3.218417594E+02  3.265650546E+02  0.000000000E+00  0.00000E+00  9.000E+00
#rwgt            1           1   6.1473085591090333E-002           7      487389           0
</event>
<event>
      5   9999  3.79277E-02  2.31410E+01 -1.00000E+00  1.61306E-01
      21    -1     0     0   512   501  0.000000000E+00  0.000000000E+00  2.192410605E+02  2.192410605E+02  0.000000000E+00  0.00000E+00  9.000E+00
      21    -1     0     0   501   502  0.000000000E+00  0.000000000E+00 -9.300175044E+02  9.300175044E+02  0.000000000E+00  0.00000E+00  9.000E+00
      25     1     1     2     0     0 -3.456255644E+02  9.367666325E+00 -6.505185567E+02  7.472243147E+02  1.250000000E+02  0.00000E+00  9.000E+00
      25     1     1     2     0     0  3.230470560E+02 -1.443906594E+01 -9.574695496E+01  3.596670216E+02  1.250000000E+02  0.00000E+00  9.000E+00
      21     1     1     2   512   502  2.257850837E+01  5.071399613E+00  3.548906775E+01  4.236722866E+01  4.768371582E-07  0.00000E+00  9.000E+00
#rwgt            1           1   5.2704166490045862E-002           7      487619           0
</event>
<event>
      5   9999 -3.79277E-02  6.31085E+01 -1.00000E+00  1.33542E-01
      21    -1     0     0   502   501  0.000000000E+00  0.000000000E+00  1.828792490E+02  1.828792490E+02  0.000000000E+00  0.00000E+00  9.000E+00
       2    -1     0     0   501     0  0.000000000E+00  0.000000000E+00 -1.217336903E+03  1.217336903E+03  0.000000000E+00  0.00000E+00  9.000E+00
      25     1     1     2     0     0  1.699611185E+02 -1.178272771E+02  3.367349502E+00  2.416741361E+02  1.250000000E+02  0.00000E+00  9.000E+00
      25     1     1     2     0     0 -1.082326052E+02  1.047021184E+02 -1.021914109E+02  2.207825058E+02  1.250000000E+02  0.00000E+00  9.000E+00
       2     1     1     2   502     0 -6.172851332E+01  1.312515873E+01 -9.356335923E+02  9.377595098E+02  1.868812365E-05  0.00000E+00  9.000E+00
#rwgt            1           1 -0.13453977734397493                7      487973           0
</event>
<event>
      5   9999  3.79277E-02  1.59665E+01 -1.00000E+00  1.74866E-01
      21    -1     0     0   511   501  0.000000000E+00  0.000000000E+00  2.656693361E+02  2.656693361E+02  0.000000000E+00  0.00000E+00  9.000E+00
      21    -1     0     0   501   502  0.000000000E+00  0.000000000E+00 -2.985841890E+02  2.985841890E+02  0.000000000E+00  0.00000E+00  9.000E+00
      25     1     1     2     0     0 -1.865538946E+02 -1.347323372E+02 -1.350115134E+01  2.622259319E+02  1.250000000E+02  0.00000E+00  9.000E+00
      25     1     1     2     0     0  2.021830551E+02  1.314673737E+02 -4.148500122E+01  2.747865780E+02  1.250000000E+02  0.00000E+00  9.000E+00
      21     1     1     2   511   502 -1.562916053E+01  3.264963454E+00  2.207129964E+01  2.724101527E+01  4.768371582E-07  0.00000E+00  9.000E+00
#rwgt            1           1   4.1199794790051578E-002           7      488083           0
</event>
<event>
      5   9999  3.79277E-02  6.89174E+01 -1.00000E+00  1.31564E-01
      21    -1     0     0   512   501  0.000000000E+00  0.000000000E+00  1.196538433E+03  1.196538433E+03  0.000000000E+00  0.00000E+00  9.000E+00
      21    -1     0     0   501   502  0.000000000E+00  0.000000000E+00 -2.215613846E+02  2.215613846E+02  0.000000000E+00  0.00000E+00  9.000E+00
      25     1     1     2     0     0  8.305405522E+01  2.613053496E+02  1.518256032E+02  3.374232885E+02  1.250000000E+02  0.00000E+00  9.000E+00
      25     1     1     2     0     0 -2.348771503E+01 -2.959674905E+02  7.682249233E+01  3.311723471E+02  1.250000000E+02  0.00000E+00  9.000E+00
      21     1     1     2   512   502 -5.956634019E+01  3.466214085E+01  7.463289528E+02  7.495041819E+02  1.078959322E-05  0.00000E+00  9.000E+00
#rwgt            1           1   3.2552006222538309E-002           7      488221           0
</event>
<event>
      5   9999  3.79277E-02  5.10875E+01 -1.00000E+00  1.38544E-01
      21    -1     0     0   502   511  0.000000000E+00  0.000000000E+00  3.691704522E+02  3.691704522E+02  0.000000000E+00  0.00000E+00  9.000E+00
      21    -1     0     0   501   502  0.000000000E+00  0.000000000E+00 -3.986228290E+02  3.986228290E+02  0.000000000E+00  0.00000E+00  9.000E+00
      25     1     1     2     0     0 -7.205681295E+01 -1.059730992E+02 -2.976573054E+02  3.473432791E+02  1.250000000E+02  0.00000E+00  9.000E+00
      25     1     1     2     0     0  4.539859862E+01  1.495537309E+02  6.424589802E+01  2.101901201E+02  1.250000000E+02  0.00000E+00  9.000E+00
      21     1     1     2   501   511  2.665821434E+01 -4.358063177E+01  2.039590305E+02  2.102598821E+02  0.000000000E+00  0.00000E+00  9.000E+00
#rwgt            1           1   2.9805754288462005E-002           7      488474           0
</event>
<event>
      5   9999  3.79277E-02  1.28783E+02 -1.00000E+00  1.19080E-01
      21    -1     0     0   502   501  0.000000000E+00  0.000000000E+00  5.286840685E+02  5.286840685E+02  0.000000000E+00  0.00000E+00  9.000E+00
      21    -1     0     0   512   502  0.000000000E+00  0.000000000E+00 -4.103628616E+02  4.103628616E+02  0.000000000E+00  0.00000E+00  9.000E+00
      25     1     1     2     0     0 -1.031014550E+01 -5.594345884E+01  3.970833199E+02  4.201620314E+02  1.250000000E+02  0.00000E+00  9.000E+00
      25     1     1     2     0     0 -2.619713705E+01  1.794439593E+02 -9.555692610E+00  2.204602816E+02  1.250000000E+02  0.00000E+00  9.000E+00
      21     1     1     2   512   501  3.650728255E+01 -1.235005004E+02 -2.692064204E+02  2.984246171E+02  3.814697266E-06  0.00000E+00  9.000E+00
#rwgt            1           1   3.2578378569826635E-002           7      488587           0
</event>
<event>
      5   9999  3.79277E-02  8.40549E+01 -1.00000E+00  1.27319E-01
       2    -1     0     0   502     0  0.000000000E+00  0.000000000E+00  2.678555917E+03  2.678555917E+03  0.000000000E+00  0.00000E+00  9.000E+00
      21    -1     0     0   501   502  0.000000000E+00  0.000000000E+00 -2.310699970E+01  2.310699970E+01  0.000000000E+00  0.00000E+00  9.000E+00
      25     1     1     2     0     0  1.155078658E+02 -1.531766577E+02  1.044924361E+03  1.069718223E+03  1.250000000E+02  0.00000E+00  9.000E+00
      25     1     1     2     0     0 -3.744271947E+01  1.220148090E+02  1.032605927E+03  1.047945405E+03  1.250000000E+02  0.00000E+00  9.000E+00
       2     1     1     2   501     0 -7.806514635E+01  3.116184868E+01  5.779186288E+02  5.839992889E+02  1.078959322E-05  0.00000E+00  9.000E+00
#rwgt            1           1   9.9852654555366030E-002           7      488627           0
</event>
<event>
      5   9999  3.79277E-02  2.40843E+01 -1.00000E+00  1.59974E-01
      21    -1     0     0   502   511  0.000000000E+00  0.000000000E+00  5.983249819E+02  5.983249819E+02  0.000000000E+00  0.00000E+00  9.000E+00
      21    -1     0     0   501   502  0.000000000E+00  0.000000000E+00 -4.902964610E+02  4.902964610E+02  0.000000000E+00  0.00000E+00  9.000E+00
      25     1     1     2     0     0 -1.832379619E+02  2.714800730E+01 -2.784982177E+02  3.570706124E+02  1.250000000E+02  0.00000E+00  9.000E+00
      25     1     1     2     0     0  1.612306579E+02 -3.693229819E+01 -1.098226804E+02  2.346174351E+02  1.250000000E+02  0.00000E+00  9.000E+00
      21     1     1     2   501   511  2.200730403E+01  9.784290895E+00  4.963494190E+02  4.969333954E+02  0.000000000E+00  0.00000E+00  9.000E+00
#rwgt            1           1   3.1759194471845303E-002           7      488710           0
</event>
<event>
      5   9999 -3.79277E-02  5.51413E+01 -1.00000E+00  1.36693E-01
      21    -1     0     0   502   501  0.000000000E+00  0.000000000E+00  4.225070654E+02  4.225070654E+02  0.000000000E+00  0.00000E+00  9.000E+00
      21    -1     0     0   501   512  0.000000000E+00  0.000000000E+00 -2.444469747E+02  2.444469747E+02  0.000000000E+00  0.00000E+00  9.000E+00
      25     1     1     2     0     0  1.112226574E+02  2.114387613E+02  2.443949968E+02  3.639103513E+02  1.250000000E+02  0.00000E+00  9.000E+00
      25     1     1     2     0     0 -6.363979856E+01 -1.835741027E+02 -2.159722680E+01  2.320364526E+02  1.250000000E+02  0.00000E+00  9.000E+00
      21     1     1     2   502   512 -4.758285883E+01 -2.786465859E+01 -4.473767931E+01  7.100723627E+01  4.768371582E-07  0.00000E+00  9.000E+00
#rwgt            1           1 -0.21466822980252978                7      488903           0
</event>
<event>
      5   9999  3.79277E-02  6.71056E+01 -1.00000E+00  1.32156E-01
      21    -1     0     0   502   501  0.000000000E+00  0.000000000E+00  2.074760226E+02  2.074760226E+02  0.000000000E+00  0.00000E+00  9.000E+00
      21    -1     0     0   501   511  0.000000000E+00  0.000000000E+00 -2.888332940E+02  2.888332940E+02  0.000000000E+00  0.00000E+00  9.000E+00
      25     1     1     2     0     0 -3.434307430E+01 -5.994701922E+01  1.259794347E+02  1.904439808E+02  1.250000000E+02  0.00000E+00  9.000E+00
      25     1     1     2     0     0  9.237094322E+01  2.624355317E+01 -1.502213861E+02  2.177442998E+02  1.250000000E+02  0.00000E+00  9.000E+00
      21     1     1     2   502   511 -5.802786893E+01  3.370346605E+01 -5.711531997E+01  8.812103592E+01  1.507891493E-06  0.00000E+00  9.000E+00
#rwgt            1           1   5.0381364680424229E-002           7      488990           0
</event>
<event>
      5   9999  3.79277E-02  2.15517E+01 -1.00000E+00  1.63735E-01
      21    -1     0     0   502   501  0.000000000E+00  0.000000000E+00  2.766441392E+02  2.766441392E+02  0.000000000E+00  0.00000E+00  9.000E+00
      21    -1     0     0   512   502  0.000000000E+00  0.000000000E+00 -7.433974380E+02  7.433974380E+02  0.000000000E+00  0.00000E+00  9.000E+00
      25     1     1     2     0     0 -7.685887736E+01 -3.444881078E+02 -1.445899364E+02  4.013858408E+02  1.250000000E+02  0.00000E+00  9.000E+00
      25     1     1     2     0     0  5.531620822E+01  3.438641830E+02 -8.391258513E+01  3.794321826E+02  1.250000000E+02  0.00000E+00  9.000E+00
      21     1     1     2   512   501  2.154266914E+01  6.239248446E-01 -2.382507773E+02  2.392235539E+02  2.697398305E-06  0.00000E+00  9.000E+00
#rwgt            1           1   3.3160321467061042E-002           7      489055           0
</event>
<event>
      5   9999 -3.79277E-02  3.23461E+01 -1.00000E+00  1.50803E-01
       2    -1     0     0   502     0  0.000000000E+00  0.000000000E+00  1.624518531E+03  1.624518531E+03  0.000000000E+00  0.00000E+00  9.000E+00
      21    -1     0     0   501   502  0.000000000E+00  0.000000000E+00 -5.734553615E+01  5.734553615E+01  0.000000000E+00  0.00000E+00  9.000E+00
      25     1     1     2     0     0  1.268091155E+02 -3.212029486E+01  1.885271447E+02  2.613039407E+02  1.250000000E+02  0.00000E+00  9.000E+00
      25     1     1     2     0     0 -9.633920021E+01  2.126421467E+01  2.852775257E+02  3.267134448E+02  1.250000000E+02  0.00000E+00  9.000E+00
       2     1     1     2   501     0 -3.046991528E+01  1.085608019E+01  1.093368324E+03  1.093846682E+03  1.525878906E-05  0.00000E+00  9.000E+00
#rwgt            1           1 -0.12087354831616876                7      489241           0
</event>
<event>
      5   9999  3.79277E-02  4.80721E+01 -1.00000E+00  1.40057E-01
      21    -1     0     0   502   501  0.000000000E+00  0.000000000E+00  1.482806010E+03  1.482806010E+03  0.000000000E+00  0.00000E+00  9.000E+00
      21    -1     0     0   511   502  0.000000000E+00  0.000000000E+00 -7.962044283E+01  7.962044283E+01  0.000000000E+00  0.00000E+00  9.000E+00
      25     1     1     2     0     0  1.809229089E+02  2.192153893E+02  5.535099902E+02  6.346548630E+02  1.250000000E+02  0.00000E+00  9.000E+00
      25     1     1     2     0     0 -1.578693515E+02 -1.770317536E+02  8.357769316E+02  8.777306268E+02  1.250000000E+02  0.00000E+00  9.000E+00
      21     1     1     2   511   501 -2.305355740E+01 -4.218363565E+01  1.389864523E+01  5.004096287E+01  8.920806376E-07  0.00000E+00  9.000E+00
#rwgt            1           1   3.4957139337885579E-002           7      489376           0
</event>
<event>
      5   9999  3.79277E-02  1.02409E+02 -1.00000E+00  1.23365E-01
      21    -1     0     0   502   501  0.000000000E+00  0.000000000E+00  1.537285171E+02  1.537285171E+02  0.000000000E+00  0.00000E+00  9.000E+00
       1    -1     0     0   501     0  0.000000000E+00  0.000000000E+00 -4.405630686E+02  4.405630686E+02  0.000000000E+00  0.00000E+00  9.000E+00
      25     1     1     2     0     0  7.269787957E+01  4.370381598E+00 -9.144840359E+01  1.711487436E+02  1.250000000E+02  0.00000E+00  9.000E+00
      25     1     1     2     0     0 -1.576271288E+02  5.285424153E+01 -6.290991074E+00  2.080972348E+02  1.250000000E+02  0.00000E+00  9.000E+00
       1     1     1     2   502     0  8.492924920E+01 -5.722462313E+01 -1.890951568E+02  2.150456072E+02  2.697398305E-06  0.00000E+00  9.000E+00
#rwgt            1           1   4.1290203849762112E-002           7      489629           0
</event>
<event>
      5   9999  3.79277E-02  3.32902E+01 -1.00000E+00  1.49966E-01
      21    -1     0     0   502   501  0.000000000E+00  0.000000000E+00  4.308962220E+02  4.308962220E+02  0.000000000E+00  0.00000E+00  9.000E+00
      21    -1     0     0   511   502  0.000000000E+00  0.000000000E+00 -4.694274336E+02  4.694274336E+02  0.000000000E+00  0.00000E+00  9.000E+00
      25     1     1     2     0     0 -1.426643164E+02  1.227670025E+02  4.323619882E+01  2.300417635E+02  1.250000000E+02  0.00000E+00  9.000E+00
      25     1     1     2     0     0  1.642260580E+02 -9.740306307E+01  2.490466908E+02  3.377969937E+02  1.250000000E+02  0.00000E+00  9.000E+00
      21     1     1     2   511   501 -2.156174161E+01 -2.536393943E+01 -3.308141011E+02  3.324848984E+02  3.814697266E-06  0.00000E+00  9.000E+00
#rwgt            1           1  0.13189307697516839                7      489758           0
</event>
<event>
      5   9999  3.79277E-02  2.19699E+01 -1.00000E+00  1.63072E-01
      21    -1     0     0   502   501  0.000000000E+00  0.000000000E+00  2.669161125E+02  2.669161125E+02  0.000000000E+00  0.00000E+00  9.000E+00
      21    -1     0     0   512   502  0.000000000E+00  0.000000000E+00 -6.482347525E+02  6.482347525E+02  0.000000000E+00  0.00000E+00  9.000E+00
      25     1     1     2     0     0  1.371198198E+02 -1.843122097E+02  7.072534251E+01  2.709241770E+02  1.250000000E+02  0.00000E+00  9.000E+00
      25     1     1     2     0     0 -1.578526027E+02  1.915805753E+02 -1.059571737E+02  2.974432445E+02  1.250000000E+02  0.00000E+00  9.000E+00
      21     1     1     2   512   501  2.073278298E+01 -7.268365599E+00 -3.460868088E+02  3.467834435E+02  5.394796609E-06  0.00000E+00  9.000E+00
#rwgt            1           1   3.6069463247239343E-002           7      489898           0
</event>
<event>
      5   9999  3.79277E-02  1.45919E+02 -1.00000E+00  1.16870E-01
       2    -1     0     0   502     0  0.000000000E+00  0.000000000E+00  2.974478024E+03  2.974478024E+03  0.000000000E+00  0.00000E+00  9.000E+00
      21    -1     0     0   501   502  0.000000000E+00  0.000000000E+00 -1.820996745E+02  1.820996745E+02  0.000000000E+00  0.00000E+00  9.000E+00
      25     1     1     2     0     0  3.477677721E+02  3.201627186E+02  4.421985233E+02  6.592504257E+02  1.250000000E+02  0.00000E+00  9.000E+00
      25     1     1     2     0     0 -4.379182994E+02 -2.054229861E+02  8.200036357E+02  9.602093536E+02  1.250000000E+02  0.00000E+00  9.000E+00
       2     1     1     2   501     0  9.015052731E+01 -1.147397325E+02  1.530176190E+03  1.537117919E+03  0.000000000E+00  0.00000E+00  9.000E+00
#rwgt            1           1  0.10839480402005421                7      490136           0
</event>
<event>
      5   9999  3.79277E-02  3.75914E+01 -1.00000E+00  1.46533E-01
      21    -1     0     0   502   501  0.000000000E+00  0.000000000E+00  5.627622190E+02  5.627622190E+02  0.000000000E+00  0.00000E+00  9.000E+00
      21    -1     0     0   511   502  0.000000000E+00  0.000000000E+00 -1.377916687E+02  1.377916687E+02  0.000000000E+00  0.00000E+00  9.000E+00
      25     1     1     2     0     0 -8.036839309E+01 -6.170674416E+01  1.168357731E+01  1.613329069E+02  1.250000000E+02  0.00000E+00  9.000E+00
      25     1     1     2     0     0  4.969350278E+01  3.997739274E+01  4.590370389E+02  4.800079575E+02  1.250000000E+02  0.00000E+00  9.000E+00
      21     1     1     2   511   501  3.067489032E+01  2.172935143E+01 -4.575006585E+01  5.921302336E+01  1.348699152E-06  0.00000E+00  9.000E+00
#rwgt            1           1   5.2212201212953412E-002           7      490242           0
</event>
<event>
      5   9999  3.79277E-02  3.28704E+02 -1.00000E+00  1.04318E-01
       1    -1     0     0   502     0  0.000000000E+00  0.000000000E+00  1.604668021E+03  1.604668021E+03  0.000000000E+00  0.00000E+00  9.000E+00
      21    -1     0     0   501   502  0.000000000E+00  0.000000000E+00 -2.012710973E+02  2.012710973E+02  0.000000000E+00  0.00000E+00  9.000E+00
      25     1     1     2     0     0  2.812764070E+02 -7.589566972E+01  2.351257116E+02  3.946969344E+02  1.250000000E+02  0.00000E+00  9.000E+00
      25     1     1     2     0     0 -2.830083971E+01 -1.339849142E+02 -1.224605685E+01  1.858167395E+02  1.250000000E+02  0.00000E+00  9.000E+00
       1     1     1     2   501     0 -2.529755673E+02  2.098805839E+02  1.180517269E+03  1.225425444E+03  1.525878906E-05  0.00000E+00  9.000E+00
#rwgt            1           1   3.7947566443541608E-002           7      490388           0
</event>
<event>
      5   9999  3.79277E-02  2.88144E+01 -1.00000E+00  1.54266E-01
      21    -1     0     0   502   511  0.000000000E+00  0.000000000E+00  4.549220081E+02  4.549220081E+02  0.000000000E+00  0.00000E+00  9.000E+00
      21    -1     0     0   501   502  0.000000000E+00  0.000000000E+00 -1.688569603E+02  1.688569603E+02  0.000000000E+00  0.00000E+00  9.000E+00
      25     1     1     2     0     0  5.510487390E+01 -2.009529362E+02  4.714386563E+00  2.430346789E+02  1.250000000E+02  0.00000E+00  9.000E+00
      25     1     1     2     0     0 -2.984979279E+01  1.870803351E+02  2.398020235E+02  3.301818778E+02  1.250000000E+02  0.00000E+00  9.000E+00
      21     1     1     2   501   511 -2.525508111E+01  1.387260106E+01  4.154863772E+01  5.056241171E+01  4.768371582E-07  0.00000E+00  9.000E+00
#rwgt            1           1   3.9601950544812997E-002           7      490459           0
</event>
<event>
      5   9999  3.79277E-02  4.83266E+01 -1.00000E+00  1.39924E-01
       2    -1     0     0   502     0  0.000000000E+00  0.000000000E+00  2.054187318E+02  2.054187318E+02  0.000000000E+00  0.00000E+00  9.000E+00
      21    -1     0     0   501   502  0.000000000E+00  0.000000000E+00 -4.632605908E+02  4.632605908E+02  0.000000000E+00  0.00000E+00  9.000E+00
      25     1     1     2     0     0 -1.379778667E+02  1.304434470E+02 -3.138765704E+01  2.294854452E+02  1.250000000E+02  0.00000E+00  9.000E+00
      25     1     1     2     0     0  1.767588468E+02 -1.592791138E+02 -2.649504300E+02  3.774086067E+02  1.250000000E+02  0.00000E+00  9.000E+00
       2     1     1     2   501     0 -3.878098011E+01  2.883566685E+01  3.849622808E+01  6.178527071E+01  8.259061849E-07  0.00000E+00  9.000E+00
#rwgt            1           1   3.0277858787463682E-002           7      490717           0
</event>
<event>
      5   9999  3.79277E-02  1.76977E+02 -1.00000E+00  1.13616E-01
      21    -1     0     0   502   501  0.000000000E+00  0.000000000E+00  1.854941196E+02  1.854941196E+02  0.000000000E+00  0.00000E+00  9.000E+00
      21    -1     0     0   501   511  0.000000000E+00  0.000000000E+00 -1.774235422E+03  1.774235422E+03  0.000000000E+00  0.00000E+00  9.000E+00
      25     1     1     2     0     0 -1.209686892E+02 -1.058413094E+02 -3.748405500E+02  4.265750162E+02  1.250000000E+02  0.00000E+00  9.000E+00
      25     1     1     2     0     0 -3.055046679E+00 -2.040897157E+01  1.277278623E+02  1.799034915E+02  1.250000000E+02  0.00000E+00  9.000E+00
      21     1     1     2   502   511  1.240237359E+02  1.262502810E+02 -1.341628614E+03  1.353251033E+03  0.000000000E+00  0.00000E+00  9.000E+00
#rwgt            1           1   4.4235497914363139E-002           7      490784           0
</event>
<event>
      5   9999  3.79277E-02  1.98880E+01 -1.00000E+00  1.66571E-01
      21    -1     0     0   512   501  0.000000000E+00  0.000000000E+00  1.054899854E+02  1.054899854E+02  0.000000000E+00  0.00000E+00  9.000E+00
      21    -1     0     0   501   502  0.000000000E+00  0.000000000E+00 -1.380747639E+03  1.380747639E+03  0.000000000E+00  0.00000E+00  9.000E+00
      25     1     1     2     0     0 -8.829281096E+01  1.089246152E+02 -9.578844303E+02  9.761289741E+02  1.250000000E+02  0.00000E+00  9.000E+00
      25     1     1     2     0     0  7.322115347E+01 -9.594860590E+01 -3.941747054E+02  4.307739206E+02  1.250000000E+02  0.00000E+00  9.000E+00
      21     1     1     2   512   502  1.507165749E+01 -1.297600931E+01  7.680148211E+01  7.933472966E+01  2.523185073E-06  0.00000E+00  9.000E+00
#rwgt            1           1   6.8531239718806883E-002           7      490913           0
</event>
<event>
      5   9999  3.79277E-02  3.53785E+01 -1.00000E+00  1.48226E-01
      21    -1     0     0   502   501  0.000000000E+00  0.000000000E+00  2.335112283E+03  2.335112283E+03  0.000000000E+00  0.00000E+00  9.000E+00
      21    -1     0     0   511   502  0.000000000E+00  0.000000000E+00 -7.555699954E+01  7.555699954E+01  0.000000000E+00  0.00000E+00  9.000E+00
      25     1     1     2     0     0  1.919748960E+01  1.623941386E+02  9.316871955E+02  9.541522049E+02  1.250000000E+02  0.00000E+00  9.000E+00
      25     1     1     2     0     0  2.286233642E+00 -1.905026764E+02  1.377137454E+03  1.395861405E+03  1.250000000E+02  0.00000E+00  9.000E+00
      21     1     1     2   511   501 -2.148372325E+01  2.810853774E+01 -4.926936538E+01  6.065567264E+01  3.371747881E-06  0.00000E+00  9.000E+00
#rwgt            1           1   4.8449552359536900E-002           7      491086           0
</event>
<event>
      5   9999  3.79277E-02  1.01596E+02 -1.00000E+00  1.23519E-01
      21    -1     0     0   502   501  0.000000000E+00  0.000000000E+00  2.885233291E+02  2.885233291E+02  0.000000000E+00  0.00000E+00  9.000E+00
      21    -1     0     0   512   502  0.000000000E+00  0.000000000E+00 -1.066947191E+03  1.066947191E+03  0.000000000E+00  0.00000E+00  9.000E+00
      25     1     1     2     0     0 -1.026250547E+02  1.084134801E+01  2.501875484E+02  2.981077759E+02  1.250000000E+02  0.00000E+00  9.000E+00
      25     1     1     2     0     0  2.171210398E+01  5.059792800E+01 -4.641129766E+02  4.837948127E+02  1.250000000E+02  0.00000E+00  9.000E+00
      21     1     1     2   512   501  8.091295074E+01 -6.143927601E+01 -5.644984333E+02  5.735679310E+02  1.321449896E-05  0.00000E+00  9.000E+00
#rwgt            2          11   1.1824414877865453E-003           7      491236           0
</event>
<event>
      5   9999  3.79277E-02  3.49237E+01 -1.00000E+00  1.48593E-01
      21    -1     0     0   502   501  0.000000000E+00  0.000000000E+00  1.812336977E+01  1.812336977E+01  0.000000000E+00  0.00000E+00  9.000E+00
      21    -1     0     0   511   502  0.000000000E+00  0.000000000E+00 -2.466355692E+03  2.466355692E+03  0.000000000E+00  0.00000E+00  9.000E+00
      25     1     1     2     0     0 -3.308915053E+01  1.158137487E+01 -2.981171514E+02  3.251582016E+02  1.250000000E+02  0.00000E+00  9.000E+00
      25     1     1     2     0     0  6.083694302E+01  9.625277092E+00 -1.123111158E+03  1.131723223E+03  1.250000000E+02  0.00000E+00  9.000E+00
      21     1     1     2   511   501 -2.774779249E+01 -2.120665196E+01 -1.027004013E+03  1.027597638E+03  0.000000000E+00  0.00000E+00  9.000E+00
#rwgt            1           1   4.7069771944674127E-002           7      491271           0
</event>
<event>
      5   9999  3.79277E-02  1.15905E+01 -1.00000E+00  1.88628E-01
      21    -1     0     0   502   512  0.000000000E+00  0.000000000E+00  6.066273498E+02  6.066273498E+02  0.000000000E+00  0.00000E+00  9.000E+00
      21    -1     0     0   501   502  0.000000000E+00  0.000000000E+00 -6.907583119E+01  6.907583119E+01  0.000000000E+00  0.00000E+00  9.000E+00
      25     1     1     2     0     0  2.361657539E+01 -8.510359520E+01  3.426179501E+02  3.752498158E+02  1.250000000E+02  0.00000E+00  9.000E+00
      25     1     1     2     0     0 -3.124105511E+01  9.383319986E+01  6.849647814E+01  1.734861390E+02  1.250000000E+02  0.00000E+00  9.000E+00
      21     1     1     2   501   512  7.624479722E+00 -8.729604664E+00  1.264370904E+02  1.269672261E+02  1.348699152E-06  0.00000E+00  9.000E+00
#rwgt            1           1   3.5547401517997082E-002           7      491432           0
</event>
<event>
      5   9999  3.79277E-02  1.53588E+01 -1.00000E+00  1.76422E-01
      21    -1     0     0   502   501  0.000000000E+00  0.000000000E+00  9.375996948E+01  9.375996948E+01  0.000000000E+00  0.00000E+00  9.000E+00
      21    -1     0     0   501   511  0.000000000E+00  0.000000000E+00 -5.747448887E+02  5.747448887E+02  0.000000000E+00  0.00000E+00  9.000E+00
      25     1     1     2     0     0  7.665251878E+01  6.931884191E+01 -2.130465264E+02  2.677583479E+02  1.250000000E+02  0.00000E+00  9.000E+00
      25     1     1     2     0     0 -6.728193012E+01 -8.148785843E+01 -3.510255207E+01  1.674046545E+02  1.250000000E+02  0.00000E+00  9.000E+00
      21     1     1     2   502   511 -9.370588659E+00  1.216901652E+01 -2.328358408E+02  2.333418557E+02  2.697398305E-06  0.00000E+00  9.000E+00
#rwgt            1           1   2.9812450060008551E-002           7      491605           0
</event>
<event>
      5   9999  3.79277E-02  4.81179E+01 -1.00000E+00  1.40033E-01
      21    -1     0     0   502   501  0.000000000E+00  0.000000000E+00  9.323001476E+02  9.323001476E+02  0.000000000E+00  0.00000E+00  9.000E+00
      21    -1     0     0   501   512  0.000000000E+00  0.000000000E+00 -7.643067061E+01  7.643067061E+01  0.000000000E+00  0.00000E+00  9.000E+00
      25     1     1     2     0     0 -1.297042685E+02 -7.897700692E+00  6.712947960E+02  6.950879614E+02  1.250000000E+02  0.00000E+00  9.000E+00
      25     1     1     2     0     0  1.585641840E+02 -3.060471440E+01  1.365693550E+02  2.456734371E+02  1.250000000E+02  0.00000E+00  9.000E+00
      21     1     1     2   502   512 -2.885991549E+01  3.850241509E+01  4.800532594E+01  6.796941965E+01  6.743495762E-07  0.00000E+00  9.000E+00
#rwgt            1           1   3.7807805307410416E-002           7      491792           0
</event>
<event>
      5   9999  3.79277E-02  1.55047E+02 -1.00000E+00  1.15827E-01
      21    -1     0     0   511   501  0.000000000E+00  0.000000000E+00  2.168126089E+02  2.168126089E+02  0.000000000E+00  0.00000E+00  9.000E+00
      21    -1     0     0   501   502  0.000000000E+00  0.000000000E+00 -7.838238557E+02  7.838238557E+02  0.000000000E+00  0.00000E+00  9.000E+00
      25     1     1     2     0     0 -4.615592531E+00  1.968481105E+02 -4.790172804E+02  5.327786006E+02  1.250000000E+02  0.00000E+00  9.000E+00
      25     1     1     2     0     0 -6.742397532E+00 -4.221804110E+01 -2.250226538E+02  2.609368078E+02  1.250000000E+02  0.00000E+00  9.000E+00
      21     1     1     2   511   502  1.135799006E+01 -1.546300694E+02  1.370286875E+02  2.069210562E+02  2.697398305E-06  0.00000E+00  9.000E+00
#rwgt            2          11   2.4583474728773554E-003           7      492060           0
</event>
<event>
      5   9999  3.79277E-02  4.97327E+01 -1.00000E+00  1.39208E-01
       1    -1     0     0   502     0  0.000000000E+00  0.000000000E+00  6.429857682E+02  6.429857682E+02  0.000000000E+00  0.00000E+00  9.000E+00
      21    -1     0     0   501   502  0.000000000E+00  0.000000000E+00 -7.344389697E+01  7.344389697E+01  0.000000000E+00  0.00000E+00  9.000E+00
      25     1     1     2     0     0 -1.060690385E+01  5.020026139E+00  3.127639334E+02  3.370222323E+02  1.250000000E+02  0.00000E+00  9.000E+00
      25     1     1     2     0     0  5.268764969E+01 -3.152577651E+01  2.392849336E+01  1.413061775E+02  1.250000000E+02  0.00000E+00  9.000E+00
       1     1     1     2   501     0 -4.208074584E+01  2.650575037E+01  2.328494445E+02  2.381012553E+02  2.697398305E-06  0.00000E+00  9.000E+00
#rwgt            1           1   4.5103430457858279E-002           7      492080           0
</event>
<event>
      5   9999  3.79277E-02  2.56895E+01 -1.00000E+00  1.57871E-01
      21    -1     0     0   502   511  0.000000000E+00  0.000000000E+00  1.085834899E+02  1.085834899E+02  0.000000000E+00  0.00000E+00  9.000E+00
      21    -1     0     0   501   502  0.000000000E+00  0.000000000E+00 -5.948094513E+02  5.948094513E+02  0.000000000E+00  0.00000E+00  9.000E+00
      25     1     1     2     0     0 -7.780108048E+01  3.784439962E+01 -1.288914750E+02  1.993068464E+02  1.250000000E+02  0.00000E+00  9.000E+00
      25     1     1     2     0     0  9.847270080E+01 -2.259206993E+01 -4.127862786E+02  4.429726698E+02  1.250000000E+02  0.00000E+00  9.000E+00
      21     1     1     2   501   511 -2.067162032E+01 -1.525232970E+01  5.545179225E+01  6.111342497E+01  9.536743164E-07  0.00000E+00  9.000E+00
#rwgt            1           1   4.2775593285963913E-002           7      492176           0
</event>
<event>
      5   9999 -3.79277E-02  3.03830E+01 -1.00000E+00  1.52658E-01
      21    -1     0     0   502   501  0.000000000E+00  0.000000000E+00  7.131644195E+01  7.131644195E+01  0.000000000E+00  0.00000E+00  9.000E+00
      21    -1     0     0   501   512  0.000000000E+00  0.000000000E+00 -1.499459006E+03  1.499459006E+03  0.000000000E+00  0.00000E+00  9.000E+00
      25     1     1     2     0     0 -6.323731545E+01 -2.575525370E+02 -8.825522880E+02  9.299762408E+02  1.250000000E+02  0.00000E+00  9.000E+00
      25     1     1     2     0     0  3.737588778E+01  2.734998203E+02 -4.687175095E+02  5.581399577E+02  1.250000000E+02  0.00000E+00  9.000E+00
      21     1     1     2   502   512  2.586142767E+01 -1.594728333E+01 -7.687276697E+01  8.265924986E+01  1.348699152E-06  0.00000E+00  9.000E+00
#rwgt            1           1 -0.16636343623164693                7      492338           0
</event>
<event>
      5   9999  3.79277E-02  3.03215E+01 -1.00000E+00  1.52719E-01
       2    -1     0     0   502     0  0.000000000E+00  0.000000000E+00  8.929829007E+02  8.929829007E+02  0.000000000E+00  0.00000E+00  9.000E+00
      21    -1     0     0   501   502  0.000000000E+00  0.000000000E+00 -1.205677038E+02  1.205677038E+02  0.000000000E+00  0.00000E+00  9.000E+00
      25     1     1     2     0     0  4.763774431E+01 -1.356074191E+02  4.853695902E+01  1.965694869E+02  1.250000000E+02  0.00000E+00  9.000E+00
      25     1     1     2     0     0 -7.786232813E+01  1.331849412E+02  1.674880037E+02  2.597652827E+02  1.250000000E+02  0.00000E+00  9.000E+00
       2     1     1     2   501     0  3.022458382E+01  2.422477941E+00  5.563902342E+02  5.572158348E+02  7.629394531E-06  0.00000E+00  9.000E+00
#rwgt            1           1   3.9837797504183044E-002           7      492574           0
</event>
<event>
      5   9999  3.79277E-02  6.67227E+01 -1.00000E+00  1.32284E-01
      21    -1     0     0   502   511  0.000000000E+00  0.000000000E+00  1.092920397E+03  1.092920397E+03  0.000000000E+00  0.00000E+00  9.000E+00
      21    -1     0     0   501   502  0.000000000E+00  0.000000000E+00 -1.136416834E+02  1.136416834E+02  0.000000000E+00  0.00000E+00  9.000E+00
      25     1     1     2     0     0 -7.798311306E+01 -7.930971670E+01  3.781491494E+02  4.135132118E+02  1.250000000E+02  0.00000E+00  9.000E+00
      25     1     1     2     0     0  1.204226340E+01  8.949436236E+01 -3.109844292E+01  1.573097904E+02  1.250000000E+02  0.00000E+00  9.000E+00
      21     1     1     2   501   511  6.594084966E+01 -1.018464566E+01  6.322280069E+02  6.357390781E+02  7.629394531E-06  0.00000E+00  9.000E+00
#rwgt            1           1   5.1359930996157169E-002           7      492748           0
</event>
<event>
      5   9999  3.79277E-02  3.27175E+01 -1.00000E+00  1.50469E-01
      21    -1     0     0   502   512  0.000000000E+00  0.000000000E+00  1.106160847E+02  1.106160847E+02  0.000000000E+00  0.00000E+00  9.000E+00
      21    -1     0     0   501   502  0.000000000E+00  0.000000000E+00 -1.163530427E+03  1.163530427E+03  0.000000000E+00  0.00000E+00  9.000E+00
      25     1     1     2     0     0  2.486128206E+02  3.715146976E+01 -3.895615923E+02  4.801789255E+02  1.250000000E+02  0.00000E+00  9.000E+00
      25     1     1     2     0     0 -2.433262771E+02 -6.943903709E+01 -6.939657295E+02  7.491614584E+02  1.250000000E+02  0.00000E+00  9.000E+00
      21     1     1     2   501   512 -5.286543468E+00  3.228756734E+01  3.061297966E+01  4.480612760E+01  5.840038640E-07  0.00000E+00  9.000E+00
#rwgt            1           1   4.4338084424887424E-002           7      492858           0
</event>
<event>
      5   9999  3.79277E-02  2.49514E+01 -1.00000E+00  1.58814E-01
      21    -1     0     0   502   501  0.000000000E+00  0.000000000E+00  1.289867440E+03  1.289867440E+03  0.000000000E+00  0.00000E+00  9.000E+00
      21    -1     0     0   501   511  0.000000000E+00  0.000000000E+00 -1.276397570E+02  1.276397570E+02  0.000000000E+00  0.00000E+00  9.000E+00
      25     1     1     2     0     0  5.297624294E+01 -9.142711173E+01  1.035801971E+03  1.048654434E+03  1.250000000E+02  0.00000E+00  9.000E+00
      25     1     1     2     0     0 -7.529422259E+01  1.025841312E+02  2.135379137E+02  2.782376044E+02  1.250000000E+02  0.00000E+00  9.000E+00
      21     1     1     2   502   511  2.231797965E+01 -1.115701951E+01 -8.711220158E+01  9.061515857E+01  2.697398305E-06  0.00000E+00  9.000E+00
#rwgt            1           1   3.6054248741314993E-002           7      493072           0
</event>
<event>
      5   9999  3.79277E-02  1.99608E+01 -1.00000E+00  1.66439E-01
      21    -1     0     0   502   501  0.000000000E+00  0.000000000E+00  2.152579463E+02  2.152579463E+02  0.000000000E+00  0.00000E+00  9.000E+00
      21    -1     0     0   501   512  0.000000000E+00  0.000000000E+00 -2.022905926E+02  2.022905926E+02  0.000000000E+00  0.00000E+00  9.000E+00
      25     1     1     2     0     0 -8.414922965E+01  7.959666236E+01  1.157301569E+02  2.059980357E+02  1.250000000E+02  0.00000E+00  9.000E+00
      25     1     1     2     0     0  8.842783099E+01 -6.009978316E+01 -9.611748519E+01  1.905125618E+02  1.250000000E+02  0.00000E+00  9.000E+00
      21     1     1     2   502   512 -4.278601343E+00 -1.949687920E+01 -6.645317977E+00  2.103794142E+01  3.039252468E-07  0.00000E+00  9.000E+00
#rwgt            1           1   4.0053721631540050E-002           7      493217           0
</event>
<event>
      5   9999 -3.79277E-02  4.43401E+01 -1.00000E+00  1.42119E-01
      21    -1     0     0   502   501  0.000000000E+00  0.000000000E+00  9.310776328E+02  9.310776328E+02  0.000000000E+00  0.00000E+00  9.000E+00
      21    -1     0     0   511   502  0.000000000E+00  0.000000000E+00 -1.954931095E+02  1.954931095E+02  0.000000000E+00  0.00000E+00  9.000E+00
      25     1     1     2     0     0  4.202074370E+01 -1.784511088E+02 -9.466612940E+01  2.412409940E+02  1.250000000E+02  0.00000E+00  9.000E+00
      25     1     1     2     0     0 -5.462209773E+00  1.533609965E+02  8.146128926E+02  8.383129462E+02  1.250000000E+02  0.00000E+00  9.000E+00
      21     1     1     2   511   501 -3.655853392E+01  2.509011233E+01  1.563776005E+01  4.701680209E+01  9.684608465E-07  0.00000E+00  9.000E+00
#rwgt            1           1  -2.0175688990519944E-002           7      493382           0
</event>
<event>
      5   9999  3.79277E-02  1.48253E+01 -1.00000E+00  1.77864E-01
      21    -1     0     0   512   501  0.000000000E+00  0.000000000E+00  1.883775753E+03  1.883775753E+03  0.000000000E+00  0.00000E+00  9.000E+00
      21    -1     0     0   501   502  0.000000000E+00  0.000000000E+00 -4.545926304E+01  4.545926304E+01  0.000000000E+00  0.00000E+00  9.000E+00
      25     1     1     2     0     0  8.908703043E+01 -2.292287728E+02  1.013739321E+03  1.050606843E+03  1.250000000E+02  0.00000E+00  9.000E+00
      25     1     1     2     0     0 -1.029898791E+02  2.343764860E+02  7.436430681E+02  7.963474525E+02  1.250000000E+02  0.00000E+00  9.000E+00
      21     1     1     2   512   502  1.390284872E+01 -5.147713173E+00  8.093410093E+01  8.228071977E+01  0.000000000E+00  0.00000E+00  9.000E+00
#rwgt            1           1   4.1017619129805526E-002           7      493767           0
</event>
<event>
      5   9999  3.79277E-02  2.27513E+01 -1.00000E+00  1.61879E-01
      21    -1     0     0   502   501  0.000000000E+00  0.000000000E+00  8.321245533E+02  8.321245533E+02  0.000000000E+00  0.00000E+00  9.000E+00
      21    -1     0     0   511   502  0.000000000E+00  0.000000000E+00 -9.444374688E+01  9.444374688E+01  0.000000000E+00  0.00000E+00  9.000E+00
      25     1     1     2     0     0 -6.071869609E+01 -2.188844931E+02  3.260056987E+02  4.165355891E+02  1.250000000E+02  0.00000E+00  9.000E+00
      25     1     1     2     0     0  5.814613358E+01  2.414898904E+02  3.859582781E+02  4.756964709E+02  1.250000000E+02  0.00000E+00  9.000E+00
      21     1     1     2   511   501  2.572562516E+00 -2.260539728E+01  2.571682968E+01  3.433624023E+01  3.371747881E-07  0.00000E+00  9.000E+00
#rwgt            1           1   4.1343836248726729E-002           7      494007           0
</event>
<event>
      5   9999  3.79277E-02  3.64802E+01 -1.00000E+00  1.47365E-01
      21    -1     0     0   512   501  0.000000000E+00  0.000000000E+00  7.289058040E+01  7.289058040E+01  0.000000000E+00  0.00000E+00  9.000E+00
      21    -1     0     0   501   502  0.000000000E+00  0.000000000E+00 -5.838299679E+02  5.838299679E+02  0.000000000E+00  0.00000E+00  9.000E+00
      25     1     1     2     0     0  1.418702303E+02  6.868806215E+00 -2.318565547E+02  2.992604296E+02  1.250000000E+02  0.00000E+00  9.000E+00
      25     1     1     2     0     0 -1.066034390E+02 -1.619940481E+01 -2.750108979E+02  3.207533443E+02  1.250000000E+02  0.00000E+00  9.000E+00
      21     1     1     2   512   502 -3.526679122E+01  9.330598593E+00 -4.071934854E+00  3.670677440E+01  4.460403188E-07  0.00000E+00  9.000E+00
#rwgt            1           1   2.7159307308589564E-002           7      494252           0
</event>
<event>
      5   9999  3.79277E-02  1.03300E+02 -1.00000E+00  1.23197E-01
       4    -1     0     0   502     0  0.000000000E+00  0.000000000E+00  4.580217713E+02  4.580217713E+02  0.000000000E+00  0.00000E+00  9.000E+00
      21    -1     0     0   501   502  0.000000000E+00  0.000000000E+00 -2.397139637E+02  2.397139637E+02  0.000000000E+00  0.00000E+00  9.000E+00
      25     1     1     2     0     0 -1.361189947E+02 -1.268936120E+02 -9.021186558E+01  2.416475743E+02  1.250000000E+02  0.00000E+00  9.000E+00
      25     1     1     2     0     0  4.620942291E+01  7.602971654E+01  2.644382796E+01  1.556923396E+02  1.250000000E+02  0.00000E+00  9.000E+00
       4     1     1     2   501     0  8.990957176E+01  5.086389544E+01  2.820758452E+02  3.003958212E+02  0.000000000E+00  0.00000E+00  9.000E+00
#rwgt            1           1   3.1109056576240027E-002           7      494327           0
</event>
<event>
      5   9999  3.79277E-02  3.13709E+01 -1.00000E+00  1.51704E-01
      21    -1     0     0   511   501  0.000000000E+00  0.000000000E+00  5.966169889E+02  5.966169889E+02  0.000000000E+00  0.00000E+00  9.000E+00
      21    -1     0     0   501   502  0.000000000E+00  0.000000000E+00 -1.711050587E+02  1.711050587E+02  0.000000000E+00  0.00000E+00  9.000E+00
      25     1     1     2     0     0 -2.450336339E+02  7.740474327E+01  1.212162368E+02  3.104051419E+02  1.250000000E+02  0.00000E+00  9.000E+00
      25     1     1     2     0     0  2.344446582E+02 -4.787501028E+01  1.691539263E+02  3.185818029E+02  1.250000000E+02  0.00000E+00  9.000E+00
      21     1     1     2   511   502  1.058897573E+01 -2.952973299E+01  1.351417671E+02  1.387351028E+02  0.000000000E+00  0.00000E+00  9.000E+00
#rwgt            1           1   1.8724438505150407E-002           7      494434           0
</event>
<event>
      5   9999  3.79277E-02  4.22250E+01 -1.00000E+00  1.43397E-01
      21    -1     0     0   502   501  0.000000000E+00  0.000000000E+00  1.613087349E+02  1.613087349E+02  0.000000000E+00  0.00000E+00  9.000E+00
      21    -1     0     0   512   502  0.000000000E+00  0.000000000E+00 -5.173939452E+02  5.173939452E+02  0.000000000E+00  0.00000E+00  9.000E+00
      25     1     1     2     0     0 -1.251931625E+02 -4.463818639E+00  4.881719645E+01  1.835793351E+02  1.250000000E+02  0.00000E+00  9.000E+00
      25     1     1     2     0     0  1.392814707E+02  4.426921885E+01 -1.706942802E+02  2.571393185E+02  1.250000000E+02  0.00000E+00  9.000E+00
      21     1     1     2   512   501 -1.408830823E+01 -3.980540021E+01 -2.342081266E+02  2.379840265E+02  2.697398305E-06  0.00000E+00  9.000E+00
#rwgt            1           1   4.4692539577112264E-002           7      494669           0
</event>
<event>
      5   9999  3.79277E-02  1.34465E+02 -1.00000E+00  1.18307E-01
      21    -1     0     0   502   511  0.000000000E+00  0.000000000E+00  1.539476426E+02  1.539476426E+02  0.000000000E+00  0.00000E+00  9.000E+00
      21    -1     0     0   501   502  0.000000000E+00  0.000000000E+00 -4.963755564E+02  4.963755564E+02  0.000000000E+00  0.00000E+00  9.000E+00
      25     1     1     2     0     0  1.961879152E-01  1.689909436E+02 -1.119022280E+02  2.381282976E+02  1.250000000E+02  0.00000E+00  9.000E+00
      25     1     1     2     0     0  4.952161734E+01 -4.405557190E+01 -2.387007179E+02  2.774821017E+02  1.250000000E+02  0.00000E+00  9.000E+00
      21     1     1     2   501   511 -4.971780526E+01 -1.249353717E+02  8.175032177E+00  1.347127997E+02  1.011524364E-06  0.00000E+00  9.000E+00
#rwgt            1           1   3.7856011939184517E-002           7      494769           0
</event>
<event>
      5   9999  3.79277E-02  4.75612E+01 -1.00000E+00  1.40326E-01
       2    -1     0     0   502     0  0.000000000E+00  0.000000000E+00  8.124603532E+02  8.124603532E+02  0.000000000E+00  0.00000E+00  9.000E+00
      21    -1     0     0   501   502  0.000000000E+00  0.000000000E+00 -1.528316507E+02  1.528316507E+02  0.000000000E+00  0.00000E+00  9.000E+00
      25     1     1     2     0     0  3.597006573E+01 -5.407903607E+01  3.872136108E+02  4.120409788E+02  1.250000000E+02  0.00000E+00  9.000E+00
      25     1     1     2     0     0 -7.772872464E+01  3.131329106E+01 -9.813564111E+01  1.796604600E+02  1.250000000E+02  0.00000E+00  9.000E+00
       2     1     1     2   501     0  4.175865891E+01  2.276574502E+01  3.705507329E+02  3.735905651E+02  0.000000000E+00  0.00000E+00  9.000E+00
#rwgt            2          18   1.3168181682230560E-004           7      494846           0
</event>
<event>
      5   9999  3.79277E-02  5.08885E+01 -1.00000E+00  1.38640E-01
      21    -1     0     0   502   501  0.000000000E+00  0.000000000E+00  2.661148922E+02  2.661148922E+02  0.000000000E+00  0.00000E+00  9.000E+00
      21    -1     0     0   511   502  0.000000000E+00  0.000000000E+00 -2.663635814E+02  2.663635814E+02  0.000000000E+00  0.00000E+00  9.000E+00
      25     1     1     2     0     0 -2.067037034E+01  1.215167901E+02  1.227570930E+02  2.142146082E+02  1.250000000E+02  0.00000E+00  9.000E+00
      25     1     1     2     0     0  1.025646891E+01 -1.713283351E+02 -3.301390771E+01  2.148802263E+02  1.250000000E+02  0.00000E+00  9.000E+00
      21     1     1     2   511   501  1.041390143E+01  4.981154491E+01 -8.999187447E+01  1.033836390E+02  1.651812370E-06  0.00000E+00  9.000E+00
#rwgt            1           1  0.27764676278992473                7      494895           0
</event>
<event>
      5   9999  3.79277E-02  1.30915E+02 -1.00000E+00  1.18785E-01
      21    -1     0     0   502   501  0.000000000E+00  0.000000000E+00  1.384465886E+03  1.384465886E+03  0.000000000E+00  0.00000E+00  9.000E+00
       1    -1     0     0   501     0  0.000000000E+00  0.000000000E+00 -4.116884524E+02  4.116884524E+02  0.000000000E+00  0.00000E+00  9.000E+00
      25     1     1     2     0     0  7.422486670E+01 -2.759378307E+02  7.339883420E+02  7.975054254E+02  1.250000000E+02  0.00000E+00  9.000E+00
      25     1     1     2     0     0  5.550958331E+01  2.934825354E+02  5.627419576E+02  6.492432697E+02  1.250000000E+02  0.00000E+00  9.000E+00
       1     1     1     2   502     0 -1.297344500E+02 -1.754470467E+01 -3.239528660E+02  3.494056433E+02  5.394796609E-06  0.00000E+00  9.000E+00
#rwgt            1           1   4.1691148101943215E-002           7      494997           0
</event>
<event>
      5   9999  3.79277E-02  1.05142E+02 -1.00000E+00  1.22856E-01
      21    -1     0     0   502   501  0.000000000E+00  0.000000000E+00  8.798890440E+01  8.798890440E+01  0.000000000E+00  0.00000E+00  9.000E+00
      21    -1     0     0   501   511  0.000000000E+00  0.000000000E+00 -1.070435947E+03  1.070435947E+03  0.000000000E+00  0.00000E+00  9.000E+00
      25     1     1     2     0     0 -1.665038946E+02 -1.093819285E+02 -1.595525542E+02  2.842005819E+02  1.250000000E+02  0.00000E+00  9.000E+00
      25     1     1     2     0     0  6.158195041E+01  1.161735585E+02 -4.135812376E+02  4.516227102E+02  1.250000000E+02  0.00000E+00  9.000E+00
      21     1     1     2   502   511  1.049219442E+02 -6.791629994E+00 -4.093132505E+02  4.226015589E+02  0.000000000E+00  0.00000E+00  9.000E+00
#rwgt            1           1   4.4414419172294967E-002           7      495060           0
</event>
<event>
      5   9999  3.79277E-02  1.99238E+02 -1.00000E+00  1.11708E-01
      21    -1     0     0   502   501  0.000000000E+00  0.000000000E+00  9.442621875E+02  9.442621875E+02  0.000000000E+00  0.00000E+00  9.000E+00
      21    -1     0     0   512   502  0.000000000E+00  0.000000000E+00 -1.067051523E+03  1.067051523E+03  0.000000000E+00  0.00000E+00  9.000E+00
      25     1     1     2     0     0 -4.052223960E+02  6.276993468E+02  2.830520658E+02  8.086749237E+02  1.250000000E+02  0.00000E+00  9.000E+00
      25     1     1     2     0     0  4.282907863E+02 -4.298016449E+02  1.282095206E+02  6.326334901E+02  1.250000000E+02  0.00000E+00  9.000E+00
      21     1     1     2   512   501 -2.306839029E+01 -1.978977019E+02 -5.340509221E+02  5.700052969E+02  1.078959322E-05  0.00000E+00  9.000E+00
#rwgt            2          11   1.9560034158809811E-003           7      495174           0
</event>
<event>
      5   9999  3.79277E-02  1.81965E+02 -1.00000E+00  1.13163E-01
      21    -1     0     0   502   501  0.000000000E+00  0.000000000E+00  1.055422724E+03  1.055422724E+03  0.000000000E+00  0.00000E+00  9.000E+00
      21    -1     0     0   511   502  0.000000000E+00  0.000000000E+00 -1.890404303E+02  1.890404303E+02  0.000000000E+00  0.00000E+00  9.000E+00
      25     1     1     2     0     0  1.111951943E+02  2.193409120E+02  5.562352102E+02  6.208843822E+02  1.250000000E+02  0.00000E+00  9.000E+00
      25     1     1     2     0     0  4.957093300E+01 -1.341020125E+02  3.830576664E+02  4.275497666E+02  1.250000000E+02  0.00000E+00  9.000E+00
      21     1     1     2   511   501 -1.607661273E+02 -8.523889952E+01 -7.291058334E+01  1.960290051E+02  4.473129043E-06  0.00000E+00  9.000E+00
#rwgt            1           1   3.3819652939239532E-002           7      495254           0
</event>
<event>
      5   9999 -3.79277E-02  5.38693E+01 -1.00000E+00  1.37253E-01
      21    -1     0     0   512   501  0.000000000E+00  0.000000000E+00  2.035927779E+02  2.035927779E+02  0.000000000E+00  0.00000E+00  9.000E+00
      21    -1     0     0   501   502  0.000000000E+00  0.000000000E+00 -2.878245466E+02  2.878245466E+02  0.000000000E+00  0.00000E+00  9.000E+00
      25     1     1     2     0     0  1.225296343E+02 -7.875805729E+01 -1.364983702E+02  2.355273826E+02  1.250000000E+02  0.00000E+00  9.000E+00
      25     1     1     2     0     0 -1.481533394E+02  3.137313868E+01  4.579748101E+01  2.016335663E+02  1.250000000E+02  0.00000E+00  9.000E+00
      21     1     1     2   512   502  2.562370505E+01  4.738491860E+01  6.469120441E+00  5.425637558E+01  7.725644944E-07  0.00000E+00  9.000E+00
#rwgt            1           1 -0.13006691673154086                7      495358           0
</event>
<event>
      5   9999  3.79277E-02  3.38534E+01 -1.00000E+00  1.49482E-01
       1    -1     0     0   502     0  0.000000000E+00  0.000000000E+00  2.290050158E+03  2.290050158E+03  0.000000000E+00  0.00000E+00  9.000E+00
      21    -1     0     0   501   502  0.000000000E+00  0.000000000E+00 -1.608584265E+02  1.608584265E+02  0.000000000E+00  0.00000E+00  9.000E+00
      25     1     1     2     0     0  6.857076668E+01  7.579371262E+01  3.582458108E+02  3.929525390E+02  1.250000000E+02  0.00000E+00  9.000E+00
      25     1     1     2     0     0 -6.103936399E+01 -1.087987307E+02 -8.896012448E+01  1.977419316E+02  1.250000000E+02  0.00000E+00  9.000E+00
       1     1     1     2   501     0 -7.531402692E+00  3.300501806E+01  1.859906045E+03  1.860214114E+03  2.157918644E-05  0.00000E+00  9.000E+00
#rwgt            1           1   3.1116481374625807E-002           7      495432           0
</event>
<event>
      5   9999  3.79277E-02  7.15694E+01 -1.00000E+00  1.30735E-01
      21    -1     0     0   502   511  0.000000000E+00  0.000000000E+00  2.186104596E+02  2.186104596E+02  0.000000000E+00  0.00000E+00  9.000E+00
      21    -1     0     0   501   502  0.000000000E+00  0.000000000E+00 -4.039653294E+02  4.039653294E+02  0.000000000E+00  0.00000E+00  9.000E+00
      25     1     1     2     0     0  1.324188713E+02 -2.951057161E+01 -2.232572883E+02  2.896108563E+02  1.250000000E+02  0.00000E+00  9.000E+00
      25     1     1     2     0     0 -2.032535496E+02  1.928202167E+01 -2.094711648E+01  2.403072688E+02  1.250000000E+02  0.00000E+00  9.000E+00
      21     1     1     2   501   511  7.083467828E+01  1.022854994E+01  5.884953503E+01  9.265766376E+01  1.168007728E-06  0.00000E+00  9.000E+00
#rwgt            1           1   3.9815060828374445E-002           7      495659           0
</event>
<event>
      5   9999  3.79277E-02  7.19841E+01 -1.00000E+00  1.30609E-01
      21    -1     0     0   502   501  0.000000000E+00  0.000000000E+00  7.094289099E+02  7.094289099E+02  0.000000000E+00  0.00000E+00  9.000E+00
      21    -1     0     0   512   502  0.000000000E+00  0.000000000E+00 -1.161845100E+02  1.161845100E+02  0.000000000E+00  0.00000E+00  9.000E+00
      25     1     1     2     0     0  8.732587527E+01  1.581678846E+02  6.953659421E+01  2.304413724E+02  1.250000000E+02  0.00000E+00  9.000E+00
      25     1     1     2     0     0 -1.576866682E+01 -1.503403747E+02  4.557844423E+02  4.962009038E+02  1.250000000E+02  0.00000E+00  9.000E+00
      21     1     1     2   512   501 -7.155720845E+01 -7.827509910E+00  6.792336339E+01  9.897114371E+01  9.536743164E-07  0.00000E+00  9.000E+00
#rwgt            1           1   2.7064866443481533E-002           7      495721           0
</event>
<event>
      5   9999  3.79277E-02  1.62113E+02 -1.00000E+00  1.15072E-01
       2    -1     0     0   502     0  0.000000000E+00  0.000000000E+00  3.178773809E+02  3.178773809E+02  0.000000000E+00  0.00000E+00  9.000E+00
      21    -1     0     0   501   502  0.000000000E+00  0.000000000E+00 -3.932188138E+02  3.932188138E+02  0.000000000E+00  0.00000E+00  9.000E+00
      25     1     1     2     0     0 -1.153595294E+02  2.336666921E+02 -2.131952603E+02  3.591450446E+02  1.250000000E+02  0.00000E+00  9.000E+00
      25     1     1     2     0     0  5.996203875E+01 -8.131238502E+01  8.240236575E+01  1.806164442E+02  1.250000000E+02  0.00000E+00  9.000E+00
       2     1     1     2   501     0  5.539749064E+01 -1.523543071E+02  5.545146160E+01  1.713347059E+02  2.939421655E-06  0.00000E+00  9.000E+00
#rwgt            1           1   3.7709169210241075E-002           7      495859           0
</event>
<event>
      5   9999  3.79277E-02  1.03031E+02 -1.00000E+00  1.23248E-01
      21    -1     0     0   502   511  0.000000000E+00  0.000000000E+00  2.528144369E+02  2.528144369E+02  0.000000000E+00  0.00000E+00  9.000E+00
      21    -1     0     0   501   502  0.000000000E+00  0.000000000E+00 -2.333481803E+02  2.333481803E+02  0.000000000E+00  0.00000E+00  9.000E+00
      25     1     1     2     0     0  7.374408345E+01 -1.035759846E+02  1.178047869E+02  2.137033978E+02  1.250000000E+02  0.00000E+00  9.000E+00
      25     1     1     2     0     0  3.108304624E+00  3.495382618E+01 -1.081318686E+02  1.689642936E+02  1.250000000E+02  0.00000E+00  9.000E+00
      21     1     1     2   501   511 -7.685238808E+01  6.862215837E+01  9.793338199E+00  1.034949257E+02  6.529361695E-07  0.00000E+00  9.000E+00
#rwgt            1           1   4.5060412250015454E-002           7      495948           0
</event>
<event>
      5   9999  3.79277E-02  2.68345E+01 -1.00000E+00  1.56481E-01
      21    -1     0     0   502   512  0.000000000E+00  0.000000000E+00  7.557788334E+02  7.557788334E+02  0.000000000E+00  0.00000E+00  9.000E+00
      21    -1     0     0   501   502  0.000000000E+00  0.000000000E+00 -2.561361553E+02  2.561361553E+02  0.000000000E+00  0.00000E+00  9.000E+00
      25     1     1     2     0     0  1.493961902E+02 -4.854901616E+01 -1.596595451E+02  2.565002903E+02  1.250000000E+02  0.00000E+00  9.000E+00
      25     1     1     2     0     0 -1.655357760E+02  6.998736949E+01  2.037227895E+02  2.990456487E+02  1.250000000E+02  0.00000E+00  9.000E+00
      21     1     1     2   501   512  1.613958585E+01 -2.143835333E+01  4.555794336E+02  4.563690497E+02  0.000000000E+00  0.00000E+00  9.000E+00
#rwgt            1           1   2.9048648998019774E-002           7      496097           0
</event>
<event>
      5   9999  3.79277E-02  5.31408E+01 -1.00000E+00  1.37583E-01
       2    -1     0     0   502     0  0.000000000E+00  0.000000000E+00  5.644872909E+02  5.644872909E+02  0.000000000E+00  0.00000E+00  9.000E+00
      21    -1     0     0   501   502  0.000000000E+00  0.000000000E+00 -1.766537764E+03  1.766537764E+03  0.000000000E+00  0.00000E+00  9.000E+00
      25     1     1     2     0     0 -1.882396729E+02 -8.093978066E+01 -7.408187228E+02  7.787315344E+02  1.250000000E+02  0.00000E+00  9.000E+00
      25     1     1     2     0     0  2.408324052E+02  8.855190575E+01 -9.851616956E+02  1.025675511E+03  1.250000000E+02  0.00000E+00  9.000E+00
       2     1     1     2   501     0 -5.259273231E+01 -7.612125088E+00  5.239299455E+02  5.266180093E+02  1.078959322E-05  0.00000E+00  9.000E+00
#rwgt            1           1   2.7388327317208642E-002           7      496271           0
</event>
<event>
      5   9999  3.79277E-02  4.16776E+01 -1.00000E+00  1.43742E-01
      21    -1     0     0   502   511  0.000000000E+00  0.000000000E+00  1.836215140E+02  1.836215140E+02  0.000000000E+00  0.00000E+00  9.000E+00
      21    -1     0     0   501   502  0.000000000E+00  0.000000000E+00 -8.392547107E+02  8.392547107E+02  0.000000000E+00  0.00000E+00  9.000E+00
      25     1     1     2     0     0  3.399167915E+01 -7.650884675E+01 -8.529237530E+01  1.729416872E+02  1.250000000E+02  0.00000E+00  9.000E+00
      25     1     1     2     0     0  3.372752274E+00  9.497299708E+01 -6.981038907E+02  7.155454478E+02  1.250000000E+02  0.00000E+00  9.000E+00
      21     1     1     2   501   511 -3.736443142E+01 -1.846415032E+01  1.277630693E+02  1.343890898E+02  3.814697266E-06  0.00000E+00  9.000E+00
#rwgt            1           1   3.9484092919564805E-002           7      496451           0
</event>
<event>
      5   9999  3.79277E-02  4.40044E+01 -1.00000E+00  1.42316E-01
      21    -1     0     0   502   501  0.000000000E+00  0.000000000E+00  9.227063088E+02  9.227063088E+02  0.000000000E+00  0.00000E+00  9.000E+00
      21    -1     0     0   501   512  0.000000000E+00  0.000000000E+00 -2.812342288E+03  2.812342288E+03  0.000000000E+00  0.00000E+00  9.000E+00
      25     1     1     2     0     0  3.538617550E+02  2.091995618E+02  4.689530777E+02  6.360224740E+02  1.250000000E+02  0.00000E+00  9.000E+00
      25     1     1     2     0     0 -3.170243657E+02 -2.332701022E+02  2.548109878E+02  4.852556321E+02  1.250000000E+02  0.00000E+00  9.000E+00
      21     1     1     2   502   512 -3.683738932E+01  2.407054037E+01 -2.613400044E+03  2.613770490E+03  4.315837288E-05  0.00000E+00  9.000E+00
#rwgt            1           1   3.8971996041513593E-002           7      496688           0
</event>
<event>
      5   9999  3.79277E-02  1.38692E+02 -1.00000E+00  1.17759E-01
       4    -1     0     0   502     0  0.000000000E+00  0.000000000E+00  1.830087930E+03  1.830087930E+03  0.000000000E+00  0.00000E+00  9.000E+00
      21    -1     0     0   501   502  0.000000000E+00  0.000000000E+00 -3.268746879E+02  3.268746879E+02  0.000000000E+00  0.00000E+00  9.000E+00
      25     1     1     2     0     0 -9.467842083E+01  4.846289209E+02  8.078704546E+01  5.157332072E+02  1.250000000E+02  0.00000E+00  9.000E+00
      25     1     1     2     0     0 -4.318082899E+01 -4.998010258E+02  5.385690477E+02  7.465569425E+02  1.250000000E+02  0.00000E+00  9.000E+00
       4     1     1     2   501     0  1.378592498E+02  1.517210489E+01  8.838571489E+02  8.946724681E+02  1.525878906E-05  0.00000E+00  9.000E+00
#rwgt            1           1   5.7155040182671431E-002           7      496859           0
</event>
<event>
      5   9999  3.79277E-02  3.29831E+01 -1.00000E+00  1.50234E-01
      21    -1     0     0   502   511  0.000000000E+00  0.000000000E+00  1.420522876E+02  1.420522876E+02  0.000000000E+00  0.00000E+00  9.000E+00
      21    -1     0     0   501   502  0.000000000E+00  0.000000000E+00 -2.903434799E+02  2.903434799E+02  0.000000000E+00  0.00000E+00  9.000E+00
      25     1     1     2     0     0 -4.111071641E+01 -1.245017541E+02 -1.502752087E+02  2.353686813E+02  1.250000000E+02  0.00000E+00  9.000E+00
      25     1     1     2     0     0  1.716450171E+01  1.018199710E+02 -8.675245778E+00  1.623643634E+02  1.250000000E+02  0.00000E+00  9.000E+00
      21     1     1     2   501   511  2.394621470E+01  2.268178312E+01  1.065926220E+01  3.466272284E+01  7.444617746E-07  0.00000E+00  9.000E+00
#rwgt            1           1  0.14405520133480681                7      496961           0
</event>
<event>
      5   9999  3.79277E-02  1.53367E+01 -1.00000E+00  1.76480E-01
       1    -1     0     0   502     0  0.000000000E+00  0.000000000E+00  3.192446791E+03  3.192446791E+03  0.000000000E+00  0.00000E+00  9.000E+00
      21    -1     0     0   501   502  0.000000000E+00  0.000000000E+00 -7.864258869E+01  7.864258869E+01  0.000000000E+00  0.00000E+00  9.000E+00
      25     1     1     2     0     0 -7.782553317E+01  6.974542989E+01  1.848084586E+02  2.463745218E+02  1.250000000E+02  0.00000E+00  9.000E+00
      25     1     1     2     0     0  8.996725592E+01 -7.911521885E+01  1.088248377E+02  2.045022501E+02  1.250000000E+02  0.00000E+00  9.000E+00
       1     1     1     2   501     0 -1.214172274E+01  9.369788963E+00  2.820170906E+03  2.820212608E+03  0.000000000E+00  0.00000E+00  9.000E+00
#rwgt            1           1   4.6517551398629724E-002           7      497109           0
</event>
<event>
      5   9999  3.79277E-02  8.84595E+01 -1.00000E+00  1.26272E-01
      21    -1     0     0   502   501  0.000000000E+00  0.000000000E+00  2.965495729E+02  2.965495729E+02  0.000000000E+00  0.00000E+00  9.000E+00
      21    -1     0     0   511   502  0.000000000E+00  0.000000000E+00 -1.025602468E+03  1.025602468E+03  0.000000000E+00  0.00000E+00  9.000E+00
      25     1     1     2     0     0 -1.559507273E+02 -2.004692537E+02  1.278582233E+02  3.106143530E+02  1.250000000E+02  0.00000E+00  9.000E+00
      25     1     1     2     0     0  1.013409833E+02  1.308786291E+02 -6.888483459E+01  2.185619612E+02  1.250000000E+02  0.00000E+00  9.000E+00
      21     1     1     2   511   501  5.460974400E+01  6.959062456E+01 -7.880262840E+02  7.929757269E+02  1.078959322E-05  0.00000E+00  9.000E+00
#rwgt            1           1   3.6265706235951191E-002           7      497402           0
</event>
<event>
      5   9999 -3.79277E-02  7.49635E+01 -1.00000E+00  1.29731E-01
      21    -1     0     0   502   501  0.000000000E+00  0.000000000E+00  2.809892223E+03  2.809892223E+03  0.000000000E+00  0.00000E+00  9.000E+00
      21    -1     0     0   501   512  0.000000000E+00  0.000000000E+00 -1.949208915E+01  1.949208915E+01  0.000000000E+00  0.00000E+00  9.000E+00
      25     1     1     2     0     0  1.590279922E+02  3.626462555E+01  1.854343733E+03  1.865695770E+03  1.250000000E+02  0.00000E+00  9.000E+00
      25     1     1     2     0     0 -8.792102708E+01 -1.253020102E+01  6.657271020E+02  6.831578787E+02  1.250000000E+02  0.00000E+00  9.000E+00
      21     1     1     2   502   512 -7.110696510E+01 -2.373442453E+01  2.703292983E+02  2.805306630E+02  0.000000000E+00  0.00000E+00  9.000E+00
#rwgt            1           1 -0.11256041597220583                7      497467           0
</event>
<event>
      5   9999  3.79277E-02  2.61112E+01 -1.00000E+00  1.57349E-01
      21    -1     0     0   502   501  0.000000000E+00  0.000000000E+00  3.962720294E+02  3.962720294E+02  0.000000000E+00  0.00000E+00  9.000E+00
      21    -1     0     0   501   511  0.000000000E+00  0.000000000E+00 -1.511904588E+02  1.511904588E+02  0.000000000E+00  0.00000E+00  9.000E+00
      25     1     1     2     0     0 -3.157933138E+01  1.435004324E+02  2.784446127E+02  3.387418348E+02  1.250000000E+02  0.00000E+00  9.000E+00
      25     1     1     2     0     0  1.273091399E+01 -1.254302751E+02 -1.805730214E+01  1.784541853E+02  1.250000000E+02  0.00000E+00  9.000E+00
      21     1     1     2   502   511  1.884841739E+01 -1.807015728E+01 -1.530573998E+01  3.026646822E+01  2.384185791E-07  0.00000E+00  9.000E+00
#rwgt            1           1   2.5996514902322354E-002           7      497553           0
</event>
<event>
      5   9999  3.79277E-02  1.15699E+02 -1.00000E+00  1.21045E-01
      21    -1     0     0   512   501  0.000000000E+00  0.000000000E+00  1.875341950E+02  1.875341950E+02  0.000000000E+00  0.00000E+00  9.000E+00
      21    -1     0     0   501   502  0.000000000E+00  0.000000000E+00 -6.888444577E+02  6.888444577E+02  0.000000000E+00  0.00000E+00  9.000E+00
      25     1     1     2     0     0 -2.099773088E+02  4.876789070E+01 -1.751667743E+02  3.045934605E+02  1.250000000E+02  0.00000E+00  9.000E+00
      25     1     1     2     0     0  3.138397729E+02  2.210116027E+00 -3.029888145E+02  4.537923637E+02  1.250000000E+02  0.00000E+00  9.000E+00
      21     1     1     2   512   502 -1.038624642E+02 -5.097800673E+01 -2.315467389E+01  1.179928284E+02  1.815741803E-06  0.00000E+00  9.000E+00
#rwgt            1           1   3.6762576778444446E-002           7      497697           0
</event>
<event>
      5   9999  3.79277E-02  7.43982E+01 -1.00000E+00  1.29894E-01
      21    -1     0     0   502   501  0.000000000E+00  0.000000000E+00  1.588687464E+02  1.588687464E+02  0.000000000E+00  0.00000E+00  9.000E+00
       1    -1     0     0   501     0  0.000000000E+00  0.000000000E+00 -1.584522262E+03  1.584522262E+03  0.000000000E+00  0.00000E+00  9.000E+00
      25     1     1     2     0     0  2.981547736E+02  2.196988162E+02 -6.042559761E+02  7.196625067E+02  1.250000000E+02  0.00000E+00  9.000E+00
      25     1     1     2     0     0 -3.029985159E+02 -1.454584899E+02 -2.263727839E+02  4.240706429E+02  1.250000000E+02  0.00000E+00  9.000E+00
       1     1     1     2   502     0  4.843742217E+00 -7.424032631E+01 -5.950247556E+02  5.996578588E+02  7.629394531E-06  0.00000E+00  9.000E+00
#rwgt            2          12   1.6050358058398680E-004           7      497768           0
</event>
<event>
      5   9999  3.79277E-02  2.87892E+01 -1.00000E+00  1.54293E-01
      21    -1     0     0   502   501  0.000000000E+00  0.000000000E+00  7.813412402E+02  7.813412402E+02  0.000000000E+00  0.00000E+00  9.000E+00
      21    -1     0     0   511   502  0.000000000E+00  0.000000000E+00 -9.700962998E+01  9.700962998E+01  0.000000000E+00  0.00000E+00  9.000E+00
      25     1     1     2     0     0  1.048274492E+02  9.272963534E+01  5.956481176E+02  6.245072132E+02  1.250000000E+02  0.00000E+00  9.000E+00
      25     1     1     2     0     0 -1.178873446E+02 -1.183861183E+02  8.264559463E+01  2.244281474E+02  1.250000000E+02  0.00000E+00  9.000E+00
      21     1     1     2   511   501  1.305989547E+01  2.565648299E+01  6.037897968E+00  2.941550953E+01  3.264680848E-07  0.00000E+00  9.000E+00
#rwgt            1           1   3.4869885075385111E-002           7      497907           0
</event>
<event>
      5   9999  3.79277E-02  6.13517E+01 -1.00000E+00  1.34188E-01
      21    -1     0     0   502   501  0.000000000E+00  0.000000000E+00  2.549934922E+02  2.549934922E+02  0.000000000E+00  0.00000E+00  9.000E+00
      -2    -1     0     0     0   502  0.000000000E+00  0.000000000E+00 -9.073684134E+02  9.073684134E+02  0.000000000E+00  0.00000E+00  9.000E+00
      25     1     1     2     0     0  7.609106256E+01  1.613874093E+02 -1.719235266E+02  2.775219715E+02  1.250000000E+02  0.00000E+00  9.000E+00
      25     1     1     2     0     0 -2.162167907E+01 -1.331541634E+02  1.585997135E+02  2.428505659E+02  1.250000000E+02  0.00000E+00  9.000E+00
      -2     1     1     2     0   501 -5.446938349E+01 -2.823324585E+01 -6.390511082E+02  6.419893682E+02  7.629394531E-06  0.00000E+00  9.000E+00
#rwgt            1           1   3.4918840260444978E-002           7      498061           0
</event>
<event>
      5   9999  3.79277E-02  1.22599E+02 -1.00000E+00  1.19975E-01
      21    -1     0     0   502   501  0.000000000E+00  0.000000000E+00  2.447926323E+02  2.447926323E+02  0.000000000E+00  0.00000E+00  9.000E+00
      21    -1     0     0   501   511  0.000000000E+00  0.000000000E+00 -4.000337459E+02  4.000337459E+02  0.000000000E+00  0.00000E+00  9.000E+00
      25     1     1     2     0     0  8.473127374E+01 -1.238044311E+01 -1.331730452E+01  1.521019879E+02  1.250000000E+02  0.00000E+00  9.000E+00
      25     1     1     2     0     0 -1.883873580E+02 -5.308638653E+01  7.458188204E+01  2.439168264E+02  1.250000000E+02  0.00000E+00  9.000E+00
      21     1     1     2   502   511  1.036560842E+02  6.546682964E+01 -2.165056911E+02  2.488075639E+02  2.697398305E-06  0.00000E+00  9.000E+00
#rwgt            1           1   3.9407514170699931E-002           7      498183           0
</event>
<event>
      5   9999  3.79277E-02  2.14587E+01 -1.00000E+00  1.63885E-01
      21    -1     0     0   512   501  0.000000000E+00  0.000000000E+00  2.853791419E+03  2.853791419E+03  0.000000000E+00  0.00000E+00  9.000E+00
      21    -1     0     0   501   502  0.000000000E+00  0.000000000E+00 -1.035175394E+02  1.035175394E+02  0.000000000E+00  0.00000E+00  9.000E+00
      25     1     1     2     0     0 -9.216577496E+01 -1.023789064E+02  8.848809378E+01  2.059881387E+02  1.250000000E+02  0.00000E+00  9.000E+00
      25     1     1     2     0     0  1.080930059E+02  8.799844675E+01  1.512282484E+02  2.406715764E+02  1.250000000E+02  0.00000E+00  9.000E+00
      21     1     1     2   512   502 -1.592723097E+01  1.438045969E+01  2.510557537E+03  2.510649243E+03  0.000000000E+00  0.00000E+00  9.000E+00
#rwgt            1           1   4.4723296781122877E-002           7      498312           0
</event>
<event>
      5   9999  3.79277E-02  1.79274E+02 -1.00000E+00  1.13406E-01
      21    -1     0     0   511   501  0.000000000E+00  0.000000000E+00  4.777144595E+02  4.777144595E+02  0.000000000E+00  0.00000E+00  9.000E+00
      21    -1     0     0   501   502  0.000000000E+00  0.000000000E+00 -6.710997568E+02  6.710997568E+02  0.000000000E+00  0.00000E+00  9.000E+00
      25     1     1     2     0     0  1.632517262E+02  4.763860375E+02  6.280486679E+01  5.226511591E+02  1.250000000E+02  0.00000E+00  9.000E+00
      25     1     1     2     0     0 -6.523838239E+01 -3.262779655E+02 -2.699956463E+02  4.463586073E+02  1.250000000E+02  0.00000E+00  9.000E+00
      21     1     1     2   511   502 -9.801334380E+01 -1.501080720E+02  1.380548223E+01  1.798044499E+02  3.194275142E-06  0.00000E+00  9.000E+00
#rwgt            2          11   3.1793025769399530E-003           7      498458           0
</event>
<event>
      5   9999  3.79277E-02  5.17523E+01 -1.00000E+00  1.38227E-01
      -3    -1     0     0     0   501  0.000000000E+00  0.000000000E+00  6.355506733E+02  6.355506733E+02  0.000000000E+00  0.00000E+00  9.000E+00
      21    -1     0     0   501   502  0.000000000E+00  0.000000000E+00 -1.770966590E+02  1.770966590E+02  0.000000000E+00  0.00000E+00  9.000E+00
      25     1     1     2     0     0 -2.009600320E+01  2.243413353E+02  3.410419067E+02  4.273961467E+02  1.250000000E+02  0.00000E+00  9.000E+00
      25     1     1     2     0     0 -1.784278008E+01 -1.891426437E+02 -2.965697593E+01  2.293421913E+02  1.250000000E+02  0.00000E+00  9.000E+00
      -3     1     1     2     0   502  3.793878328E+01 -3.519869158E+01  1.470690836E+02  1.559089944E+02  0.000000000E+00  0.00000E+00  9.000E+00
#rwgt            1           1   3.3884509113274695E-002           7      498478           0
</event>
<event>
      5   9999  3.79277E-02  1.85250E+01 -1.00000E+00  1.69162E-01
      21    -1     0     0   511   501  0.000000000E+00  0.000000000E+00  1.834807864E+02  1.834807864E+02  0.000000000E+00  0.00000E+00  9.000E+00
      21    -1     0     0   501   502  0.000000000E+00  0.000000000E+00 -3.775660685E+02  3.775660685E+02  0.000000000E+00  0.00000E+00  9.000E+00
      25     1     1     2     0     0  1.588260054E+02  9.186509319E+01 -1.831493920E+02  2.878082611E+02  1.250000000E+02  0.00000E+00  9.000E+00
      25     1     1     2     0     0 -1.631371045E+02 -1.098814901E+02 -4.225544023E+01  2.368505414E+02  1.250000000E+02  0.00000E+00  9.000E+00
      21     1     1     2   511   502  4.311099043E+00  1.801639695E+01  3.131955022E+01  3.638805243E+01  8.259061849E-07  0.00000E+00  9.000E+00
#rwgt            1           1   3.7949617256094408E-002           7      498651           0
</event>
<event>
      5   9999  3.79277E-02  9.92914E+01 -1.00000E+00  1.23967E-01
      21    -1     0     0   502   501  0.000000000E+00  0.000000000E+00  1.926161796E+02  1.926161796E+02  0.000000000E+00  0.00000E+00  9.000E+00
      21    -1     0     0   512   502  0.000000000E+00  0.000000000E+00 -8.466639201E+02  8.466639201E+02  0.000000000E+00  0.00000E+00  9.000E+00
      25     1     1     2     0     0 -9.303818049E+01  5.520771122E+01 -6.183115239E+02  6.400297923E+02  1.250000000E+02  0.00000E+00  9.000E+00
      25     1     1     2     0     0  1.887804088E+02 -8.151763303E+01  7.351530908E+01  2.516200865E+02  1.250000000E+02  0.00000E+00  9.000E+00
      21     1     1     2   512   501 -9.574222831E+01  2.630992181E+01 -1.092515257E+02  1.476302210E+02  0.000000000E+00  0.00000E+00  9.000E+00
#rwgt            1           1   3.4162125748861294E-002           7      498891           0
</event>
<event>
      5   9999  3.79277E-02  2.35370E+01 -1.00000E+00  1.60738E-01
      21    -1     0     0   502   501  0.000000000E+00  0.000000000E+00  1.586203529E+03  1.586203529E+03  0.000000000E+00  0.00000E+00  9.000E+00
      21    -1     0     0   511   502  0.000000000E+00  0.000000000E+00 -6.631654849E+01  6.631654849E+01  0.000000000E+00  0.00000E+00  9.000E+00
      25     1     1     2     0     0 -8.882276966E+01 -1.600031343E+02  4.064059178E+02  4.629052359E+02  1.250000000E+02  0.00000E+00  9.000E+00
      25     1     1     2     0     0  8.662126935E+01  1.365693220E+02  1.137657276E+03  1.155873480E+03  1.250000000E+02  0.00000E+00  9.000E+00
      21     1     1     2   511   501  2.201500314E+00  2.343381235E+01 -2.417621356E+01  3.374136137E+01  1.390207266E-06  0.00000E+00  9.000E+00
#rwgt            1           1   5.4751995335274389E-002           7      499018           0
</event>
<event>
      5   9999  3.79277E-02  1.14667E+02 -1.00000E+00  1.21212E-01
      -1    -1     0     0     0   501  0.000000000E+00  0.000000000E+00  6.263739384E+02  6.263739384E+02  0.000000000E+00  0.00000E+00  9.000E+00
      21    -1     0     0   501   502  0.000000000E+00  0.000000000E+00 -1.328149937E+02  1.328149937E+02  0.000000000E+00  0.00000E+00  9.000E+00
      25     1     1     2     0     0 -5.814196073E+01  9.715564003E+01  2.179695612E+02  2.756001372E+02  1.250000000E+02  0.00000E+00  9.000E+00
      25     1     1     2     0     0  1.359801890E+02 -1.813564130E+02  1.078999919E+02  2.804428080E+02  1.250000000E+02  0.00000E+00  9.000E+00
      -1     1     1     2     0   502 -7.783822824E+01  8.420077294E+01  1.676893917E+02  2.031459870E+02  5.394796609E-06  0.00000E+00  9.000E+00
#rwgt            1           1   3.9868064783752863E-002           7      499190           0
</event>
<event>
      5   9999  3.79277E-02  1.02543E+01 -1.00000E+00  1.94505E-01
      21    -1     0     0   511   501  0.000000000E+00  0.000000000E+00  3.104833277E+02  3.104833277E+02  0.000000000E+00  0.00000E+00  9.000E+00
      21    -1     0     0   501   502  0.000000000E+00  0.000000000E+00 -3.211041518E+02  3.211041518E+02  0.000000000E+00  0.00000E+00  9.000E+00
      25     1     1     2     0     0 -1.022077537E+02 -7.231587886E+01 -1.639280200E+02  2.411916395E+02  1.250000000E+02  0.00000E+00  9.000E+00
      25     1     1     2     0     0  1.118333649E+02  6.878053967E+01 -4.903432811E+01  1.877946471E+02  1.250000000E+02  0.00000E+00  9.000E+00
      21     1     1     2   511   502 -9.625611267E+00  3.535339189E+00  2.023415240E+02  2.026011928E+02  0.000000000E+00  0.00000E+00  9.000E+00
#rwgt            1           1   4.8497218019094707E-002           7      499254           0
</event>
<event>
      5   9999 -3.79277E-02  5.27304E+01 -1.00000E+00  1.37771E-01
      -3    -1     0     0     0   501  0.000000000E+00  0.000000000E+00  3.311216634E+02  3.311216634E+02  0.000000000E+00  0.00000E+00  9.000E+00
      21    -1     0     0   501   502  0.000000000E+00  0.000000000E+00 -3.977178634E+02  3.977178634E+02  0.000000000E+00  0.00000E+00  9.000E+00
      25     1     1     2     0     0 -1.715213641E+02 -9.433180679E+01 -4.261257515E+01  2.361332245E+02  1.250000000E+02  0.00000E+00  9.000E+00
      25     1     1     2     0     0  1.209535653E+02  1.092782655E+02 -2.133313924E+02  2.961533172E+02  1.250000000E+02  0.00000E+00  9.000E+00
      -3     1     1     2     0   502  5.056779887E+01 -1.494645869E+01  1.893477675E+02  1.965529852E+02  2.697398305E-06  0.00000E+00  9.000E+00
#rwgt            1           1  -4.0411776280219545E-002           7      499501           0
</event>
<event>
      5   9999  3.79277E-02  1.20588E+02 -1.00000E+00  1.20278E-01
      21    -1     0     0   502   501  0.000000000E+00  0.000000000E+00  5.419247148E+02  5.419247148E+02  0.000000000E+00  0.00000E+00  9.000E+00
      21    -1     0     0   501   511  0.000000000E+00  0.000000000E+00 -3.503355311E+02  3.503355311E+02  0.000000000E+00  0.00000E+00  9.000E+00
      25     1     1     2     0     0  3.537205159E+02 -4.618707804E+01  2.607509235E+02  4.592031072E+02  1.250000000E+02  0.00000E+00  9.000E+00
      25     1     1     2     0     0 -2.341648752E+02  3.044386689E+01  4.029451075E+01  2.702011573E+02  1.250000000E+02  0.00000E+00  9.000E+00
      21     1     1     2   502   511 -1.195556407E+02  1.574321115E+01 -1.094562506E+02  1.628559815E+02  0.000000000E+00  0.00000E+00  9.000E+00
#rwgt            1           1   2.5685488130538968E-002           7      499714           0
</event>
<event>
      5   9999 -3.79277E-02  2.62850E+01 -1.00000E+00  1.57138E-01
      21    -1     0     0   502   501  0.000000000E+00  0.000000000E+00  8.718819639E+01  8.718819639E+01  0.000000000E+00  0.00000E+00  9.000E+00
      21    -1     0     0   512   502  0.000000000E+00  0.000000000E+00 -6.173592761E+02  6.173592761E+02  0.000000000E+00  0.00000E+00  9.000E+00
      25     1     1     2     0     0 -1.696642160E+02  1.097053019E+01 -1.907015109E+02  2.844263788E+02  1.250000000E+02  0.00000E+00  9.000E+00
      25     1     1     2     0     0  1.817564793E+02  1.236780900E+01 -3.093370324E+02  3.801352129E+02  1.250000000E+02  0.00000E+00  9.000E+00
      21     1     1     2   512   501 -1.209226335E+01 -2.333833918E+01 -3.013253639E+01  3.998588073E+01  5.840038640E-07  0.00000E+00  9.000E+00
#rwgt            1           1  -3.2514737942854942E-002           7      499786           0
</event>
<event>
      5   9999  3.79277E-02  8.47927E+01 -1.00000E+00  1.27138E-01
      21    -1     0     0   502   501  0.000000000E+00  0.000000000E+00  4.174896850E+02  4.174896850E+02  0.000000000E+00  0.00000E+00  9.000E+00
      21    -1     0     0   501   511  0.000000000E+00  0.000000000E+00 -1.879868450E+02  1.879868450E+02  0.000000000E+00  0.00000E+00  9.000E+00
      25     1     1     2     0     0 -6.650812555E+01  2.029828626E+02  2.267568454E+02  3.356620923E+02  1.250000000E+02  0.00000E+00  9.000E+00
      25     1     1     2     0     0  1.715816132E+01 -1.340308846E+02 -8.544440798E+00  1.842734055E+02  1.250000000E+02  0.00000E+00  9.000E+00
      21     1     1     2   502   511  4.934996423E+01 -6.895197800E+01  1.129043539E+01  8.554103208E+01  1.918491952E-06  0.00000E+00  9.000E+00
#rwgt            1           1   3.8140271113474587E-002           7      499897           0
</event>
<event>
      5   9999  3.79277E-02  1.65412E+01 -1.00000E+00  1.73473E-01
      21    -1     0     0   502   501  0.000000000E+00  0.000000000E+00  1.524057658E+02  1.524057658E+02  0.000000000E+00  0.00000E+00  9.000E+00
      21    -1     0     0   512   502  0.000000000E+00  0.000000000E+00 -3.393885232E+02  3.393885232E+02  0.000000000E+00  0.00000E+00  9.000E+00
      25     1     1     2     0     0 -1.432062899E+01 -1.609194259E+02 -1.484393060E+02  2.525061774E+02  1.250000000E+02  0.00000E+00  9.000E+00
      25     1     1     2     0     0  1.622769636E+01  1.773502927E+02 -2.729873921E+01  2.192867657E+02  1.250000000E+02  0.00000E+00  9.000E+00
      21     1     1     2   512   501 -1.907067374E+00 -1.643086674E+01 -1.124471214E+01  2.000134593E+01  3.769728732E-07  0.00000E+00  9.000E+00
#rwgt            1           1   3.9854896237171110E-002           7      499974           0
</event>
<event>
      5   9999  3.79277E-02  9.43020E+01 -1.00000E+00  1.24985E-01
      21    -1     0     0   502   501  0.000000000E+00  0.000000000E+00  6.916079181E+02  6.916079181E+02  0.000000000E+00  0.00000E+00  9.000E+00
      21    -1     0     0   511   502  0.000000000E+00  0.000000000E+00 -5.934943217E+02  5.934943217E+02  0.000000000E+00  0.00000E+00  9.000E+00
      25     1     1     2     0     0  7.744696910E+01 -1.953929896E+02  3.887121827E+02  4.592369915E+02  1.250000000E+02  0.00000E+00  9.000E+00
      25     1     1     2     0     0 -1.660270740E+02  1.630443801E+02  1.968181685E+02  3.294098521E+02  1.250000000E+02  0.00000E+00  9.000E+00
      21     1     1     2   511   501  8.858010494E+01  3.234860945E+01 -4.874167548E+02  4.964553962E+02  5.394796609E-06  0.00000E+00  9.000E+00
#rwgt            1           1   4.0937177541541137E-002           7      500166           0
</event>
<event>
      5   9999  3.79277E-02  1.56750E+02 -1.00000E+00  1.15641E-01
       1    -1     0     0   502     0  0.000000000E+00  0.000000000E+00  2.254408891E+02  2.254408891E+02  0.000000000E+00  0.00000E+00  9.000E+00
      21    -1     0     0   501   502  0.000000000E+00  0.000000000E+00 -3.115081349E+02  3.115081349E+02  0.000000000E+00  0.00000E+00  9.000E+00
      25     1     1     2     0     0  4.503623887E+01 -3.086589505E+01 -1.410702345E+02  1.962314383E+02  1.250000000E+02  0.00000E+00  9.000E+00
      25     1     1     2     0     0 -1.758988242E+00 -1.197913665E+02  6.174713526E+01  1.838226706E+02  1.250000000E+02  0.00000E+00  9.000E+00
       1     1     1     2   501     0 -4.327725063E+01  1.506572615E+02 -6.744146554E+00  1.568949151E+02  2.702661526E-06  0.00000E+00  9.000E+00
#rwgt            1           1   4.6164841230409606E-002           7      500261           0
</event>
<event>
      5   9999  3.79277E-02  3.67405E+01 -1.00000E+00  1.47167E-01
      21    -1     0     0   502   501  0.000000000E+00  0.000000000E+00  8.661308486E+02  8.661308486E+02  0.000000000E+00  0.00000E+00  9.000E+00
      21    -1     0     0   511   502  0.000000000E+00  0.000000000E+00 -3.066603127E+02  3.066603127E+02  0.000000000E+00  0.00000E+00  9.000E+00
      25     1     1     2     0     0 -2.898454799E+02 -2.186788817E+02  6.010700517E+02  7.132608657E+02  1.250000000E+02  0.00000E+00  9.000E+00
      25     1     1     2     0     0  3.247100026E+02  2.302690195E+02 -5.408496656E+01  4.207262658E+02  1.250000000E+02  0.00000E+00  9.000E+00
      21     1     1     2   511   501 -3.486452270E+01 -1.159013780E+01  1.248545081E+01  3.880402968E+01  5.057621821E-07  0.00000E+00  9.000E+00
#rwgt            1           1  0.12890128683889238                7      500294           0
</event>
<event>
      5   9999  3.79277E-02  1.55754E+01 -1.00000E+00  1.75857E-01
       2    -1     0     0   502     0  0.000000000E+00  0.000000000E+00  2.929754478E+03  2.929754478E+03  0.000000000E+00  0.00000E+00  9.000E+00
      21    -1     0     0   501   502  0.000000000E+00  0.000000000E+00 -2.421710718E+02  2.421710718E+02  0.000000000E+00  0.00000E+00  9.000E+00
      25     1     1     2     0     0 -5.743837551E+01 -3.795989141E+02  1.088340613E+02  4.181678556E+02  1.250000000E+02  0.00000E+00  9.000E+00
      25     1     1     2     0     0  6.721781455E+01  3.674764107E+02  3.560178089E+02  5.309715880E+02  1.250000000E+02  0.00000E+00  9.000E+00
       2     1     1     2   501     0 -9.779439040E+00  1.212250341E+01  2.222731536E+03  2.222786106E+03  4.315837288E-05  0.00000E+00  9.000E+00
#rwgt            1           1   2.6369353465927784E-002           7      500497           0
</event>
<event>
      5   9999 -3.79277E-02  4.53899E+01 -1.00000E+00  1.41516E-01
      21    -1     0     0   502   501  0.000000000E+00  0.000000000E+00  5.593100338E+01  5.593100338E+01  0.000000000E+00  0.00000E+00  9.000E+00
      21    -1     0     0   501   511  0.000000000E+00  0.000000000E+00 -1.166340846E+03  1.166340846E+03  0.000000000E+00  0.00000E+00  9.000E+00
      25     1     1     2     0     0 -5.404278845E+01 -1.677562760E+02 -3.998798477E+02  4.545235789E+02  1.250000000E+02  0.00000E+00  9.000E+00
      25     1     1     2     0     0  1.370315823E+01  1.469486898E+02 -3.151051906E+02  3.697268927E+02  1.250000000E+02  0.00000E+00  9.000E+00
      21     1     1     2   502   511  4.033963022E+01  2.080758616E+01 -3.954248046E+02  3.980213782E+02  0.000000000E+00  0.00000E+00  9.000E+00
#rwgt            1           1  -7.0451482738815348E-003           7      500825           0
</event>
<event>
      5   9999  3.79277E-02  1.15906E+01 -1.00000E+00  1.88627E-01
      21    -1     0     0   502   501  0.000000000E+00  0.000000000E+00  7.391690123E+01  7.391690123E+01  0.000000000E+00  0.00000E+00  9.000E+00
       1    -1     0     0   501     0  0.000000000E+00  0.000000000E+00 -6.121290671E+02  6.121290671E+02  0.000000000E+00  0.00000E+00  9.000E+00
      25     1     1     2     0     0 -4.683511248E+01  8.101040483E+01 -4.376164672E+02  4.646389844E+02  1.250000000E+02  0.00000E+00  9.000E+00
      25     1     1     2     0     0  3.545076976E+01 -7.883359891E+01 -3.653362781E+01  1.563048283E+02  1.250000000E+02  0.00000E+00  9.000E+00
       1     1     1     2   502     0  1.138434272E+01 -2.176805915E+00 -6.406207090E+01  6.510215566E+01  9.536743164E-07  0.00000E+00  9.000E+00
#rwgt            1           1   4.3094680244399858E-002           7      500978           0
</event>
<event>
      5   9999  3.79277E-02  1.12397E+02 -1.00000E+00  1.21587E-01
       1    -1     0     0   502     0  0.000000000E+00  0.000000000E+00  6.515557923E+02  6.515557923E+02  0.000000000E+00  0.00000E+00  9.000E+00
      21    -1     0     0   501   502  0.000000000E+00  0.000000000E+00 -2.823493295E+02  2.823493295E+02  0.000000000E+00  0.00000E+00  9.000E+00
      25     1     1     2     0     0 -2.270786384E+02  5.723489599E+01  9.211027465E+01  2.809801488E+02  1.250000000E+02  0.00000E+00  9.000E+00
      25     1     1     2     0     0  2.688161760E+02  4.712546120E+01 -5.245971919E+01  3.047293352E+02  1.250000000E+02  0.00000E+00  9.000E+00
       1     1     1     2   501     0 -4.173753764E+01 -1.043603572E+02  3.295559073E+02  3.481956379E+02  5.394796609E-06  0.00000E+00  9.000E+00
#rwgt            2          17   1.9141578877048215E-004           7      501527           0
</event>
<event>
      5   9999  3.79277E-02  5.60553E+01 -1.00000E+00  1.36301E-01
      21    -1     0     0   511   501  0.000000000E+00  0.000000000E+00  5.247723285E+02  5.247723285E+02  0.000000000E+00  0.00000E+00  9.000E+00
      21    -1     0     0   501   502  0.000000000E+00  0.000000000E+00 -1.882399057E+02  1.882399057E+02  0.000000000E+00  0.00000E+00  9.000E+00
      25     1     1     2     0     0  1.363156050E+02  2.783737813E+01  1.516754036E+02  2.408055063E+02  1.250000000E+02  0.00000E+00  9.000E+00
      25     1     1     2     0     0 -1.183564205E+02 -8.093785853E+01 -7.640976080E+01  2.049942213E+02  1.250000000E+02  0.00000E+00  9.000E+00
      21     1     1     2   511   502 -1.795918451E+01  5.310048040E+01  2.612667800E+02  2.672125065E+02  3.814697266E-06  0.00000E+00  9.000E+00
#rwgt            1           1   3.8271798989183363E-002           7      501726           0
</event>
<event>
      5   9999  3.79277E-02  2.14696E+01 -1.00000E+00  1.63868E-01
      21    -1     0     0   502   512  0.000000000E+00  0.000000000E+00  1.591741409E+03  1.591741409E+03  0.000000000E+00  0.00000E+00  9.000E+00
      21    -1     0     0   501   502  0.000000000E+00  0.000000000E+00 -4.023382539E+01  4.023382539E+01  0.000000000E+00  0.00000E+00  9.000E+00
      25     1     1     2     0     0 -1.887897743E+02  3.149346540E+01  8.535918425E+02  8.836727057E+02  1.250000000E+02  0.00000E+00  9.000E+00
      25     1     1     2     0     0  1.956399414E+02 -5.184096029E+01  5.556944554E+02  6.044698500E+02  1.250000000E+02  0.00000E+00  9.000E+00
      21     1     1     2   501   512 -6.850167093E+00  2.034749489E+01  1.422212861E+02  1.438326790E+02  1.907348633E-06  0.00000E+00  9.000E+00
#rwgt            1           1   2.5585289955222135E-002           7      501826           0
</event>
<event>
      5   9999  3.79277E-02  1.57744E+01 -1.00000E+00  1.75348E-01
      21    -1     0     0   511   501  0.000000000E+00  0.000000000E+00  1.827408971E+02  1.827408971E+02  0.000000000E+00  0.00000E+00  9.000E+00
      21    -1     0     0   501   502  0.000000000E+00  0.000000000E+00 -7.862616192E+02  7.862616192E+02  0.000000000E+00  0.00000E+00  9.000E+00
      25     1     1     2     0     0 -1.760603472E+02 -2.705825326E+02 -1.761957389E+02  3.884354403E+02  1.250000000E+02  0.00000E+00  9.000E+00
      25     1     1     2     0     0  1.885557751E+02  2.609545787E+02 -4.406874171E+02  5.598937150E+02  1.250000000E+02  0.00000E+00  9.000E+00
      21     1     1     2   511   502 -1.249542789E+01  9.627953928E+00  1.336243397E+01  2.067336104E+01  3.371747881E-07  0.00000E+00  9.000E+00
#rwgt            1           1   2.0521271123992560E-002           7      501973           0
</event>
<event>
      5   9999  3.79277E-02  6.21684E+01 -1.00000E+00  1.33885E-01
      21    -1     0     0   502   512  0.000000000E+00  0.000000000E+00  1.822707119E+02  1.822707119E+02  0.000000000E+00  0.00000E+00  9.000E+00
      21    -1     0     0   501   502  0.000000000E+00  0.000000000E+00 -2.586116453E+02  2.586116453E+02  0.000000000E+00  0.00000E+00  9.000E+00
      25     1     1     2     0     0 -6.629283950E+01 -6.011762751E+01 -3.827910640E+01  1.584271432E+02  1.250000000E+02  0.00000E+00  9.000E+00
      25     1     1     2     0     0  1.210216542E+02  3.062759430E+01 -9.286277043E+01  1.995815233E+02  1.250000000E+02  0.00000E+00  9.000E+00
      21     1     1     2   501   512 -5.472881471E+01  2.949003322E+01  5.480094344E+01  8.287369076E+01  1.348699152E-06  0.00000E+00  9.000E+00
#rwgt            1           1   4.1466337217772112E-002           7      502234           0
</event>
<event>
      5   9999  3.79277E-02  2.15757E+01 -1.00000E+00  1.63697E-01
      21    -1     0     0   502   511  0.000000000E+00  0.000000000E+00  6.852396085E+02  6.852396085E+02  0.000000000E+00  0.00000E+00  9.000E+00
      21    -1     0     0   501   502  0.000000000E+00  0.000000000E+00 -7.646563359E+01  7.646563359E+01  0.000000000E+00  0.00000E+00  9.000E+00
      25     1     1     2     0     0 -6.705951794E+01  3.505133713E+01  1.585081122E+01  1.469755878E+02  1.250000000E+02  0.00000E+00  9.000E+00
      25     1     1     2     0     0  4.714629612E+01 -4.335648152E+01  5.248905597E+02  5.433577619E+02  1.250000000E+02  0.00000E+00  9.000E+00
      21     1     1     2   501   511  1.991322183E+01  8.305144382E+00  6.803260395E+01  7.137189241E+01  0.000000000E+00  0.00000E+00  9.000E+00
#rwgt            1           1   3.8483965260358757E-002           7      502329           0
</event>
<event>
      5   9999  3.79277E-02  6.98966E+01 -1.00000E+00  1.31253E-01
      21    -1     0     0   512   501  0.000000000E+00  0.000000000E+00  2.857047214E+02  2.857047214E+02  0.000000000E+00  0.00000E+00  9.000E+00
      21    -1     0     0   501   502  0.000000000E+00  0.000000000E+00 -3.382867844E+02  3.382867844E+02  0.000000000E+00  0.00000E+00  9.000E+00
      25     1     1     2     0     0 -1.904380874E+00  7.386813529E+01 -2.822005257E+02  3.173677123E+02  1.250000000E+02  0.00000E+00  9.000E+00
      25     1     1     2     0     0 -4.186672535E+01 -1.937382910E+01  1.467510510E+02  1.982146284E+02  1.250000000E+02  0.00000E+00  9.000E+00
      21     1     1     2   512   502  4.377110622E+01 -5.449430619E+01  8.286741178E+01  1.084091651E+02  1.348699152E-06  0.00000E+00  9.000E+00
#rwgt            1           1   3.4540647443441395E-002           7      502485           0
</event>
<event>
      5   9999  3.79277E-02  7.01678E+01 -1.00000E+00  1.31168E-01
       2    -1     0     0   502     0  0.000000000E+00  0.000000000E+00  3.750349573E+03  3.750349573E+03  0.000000000E+00  0.00000E+00  9.000E+00
      21    -1     0     0   501   502  0.000000000E+00  0.000000000E+00 -2.727048059E+02  2.727048059E+02  0.000000000E+00  0.00000E+00  9.000E+00
      25     1     1     2     0     0  1.212020582E+02  6.777885125E+01 -1.278649350E+02  2.264030768E+02  1.250000000E+02  0.00000E+00  9.000E+00
      25     1     1     2     0     0 -6.884298999E+01 -1.144912849E+02 -7.357191524E+00  1.831030853E+02  1.250000000E+02  0.00000E+00  9.000E+00
       2     1     1     2   501     0 -5.235906823E+01  4.671243364E+01  3.612866894E+03  3.613548217E+03  6.103515625E-05  0.00000E+00  9.000E+00
#rwgt            1           1   4.0981221903454407E-002           7      502588           0
</event>
<event>
      5   9999  3.79277E-02  1.48295E+01 -1.00000E+00  1.77853E-01
      21    -1     0     0   502   501  0.000000000E+00  0.000000000E+00  5.351046868E+02  5.351046868E+02  0.000000000E+00  0.00000E+00  9.000E+00
      21    -1     0     0   501   511  0.000000000E+00  0.000000000E+00 -1.492444709E+02  1.492444709E+02  0.000000000E+00  0.00000E+00  9.000E+00
      25     1     1     2     0     0  1.105296015E+01  1.270946874E+02  3.227731754E+02  3.688939553E+02  1.250000000E+02  0.00000E+00  9.000E+00
      25     1     1     2     0     0 -2.475155278E+01 -1.214147195E+02  1.475661150E+02  2.296844178E+02  1.250000000E+02  0.00000E+00  9.000E+00
      21     1     1     2   502   511  1.369859263E+01 -5.679967917E+00 -8.447907451E+01  8.577078468E+01  2.861022949E-06  0.00000E+00  9.000E+00
#rwgt            1           1   3.4931529361470121E-002           7      502669           0
</event>
<event>
      5   9999  3.79277E-02  8.97072E+01 -1.00000E+00  1.25987E-01
      21    -1     0     0   512   501  0.000000000E+00  0.000000000E+00  2.145521647E+02  2.145521647E+02  0.000000000E+00  0.00000E+00  9.000E+00
      21    -1     0     0   501   502  0.000000000E+00  0.000000000E+00 -3.095972142E+02  3.095972142E+02  0.000000000E+00  0.00000E+00  9.000E+00
      25     1     1     2     0     0  8.462307239E+01  1.582695739E+02  2.039649028E+01  2.196618748E+02  1.250000000E+02  0.00000E+00  9.000E+00
      25     1     1     2     0     0 -1.129834765E+02 -7.316338014E+01 -1.110957473E+02  2.146751295E+02  1.250000000E+02  0.00000E+00  9.000E+00
      21     1     1     2   512   502  2.836040406E+01 -8.510619378E+01 -4.345792547E+00  8.981237471E+01  9.536743164E-07  0.00000E+00  9.000E+00
#rwgt            1           1   4.2185745628750694E-002           7      502845           0
</event>
<event>
      5   9999  3.79277E-02  2.42347E+01 -1.00000E+00  1.59769E-01
      21    -1     0     0   502   501  0.000000000E+00  0.000000000E+00  3.833491968E+02  3.833491968E+02  0.000000000E+00  0.00000E+00  9.000E+00
      21    -1     0     0   511   502  0.000000000E+00  0.000000000E+00 -1.115802561E+02  1.115802561E+02  0.000000000E+00  0.00000E+00  9.000E+00
      25     1     1     2     0     0  1.355698510E+02  5.135386763E+01  1.878312191E+02  2.681827196E+02  1.250000000E+02  0.00000E+00  9.000E+00
      25     1     1     2     0     0 -1.353351293E+02 -2.712032522E+01  7.727942100E+01  2.016140327E+02  1.250000000E+02  0.00000E+00  9.000E+00
      21     1     1     2   511   501 -2.347216893E-01 -2.423354241E+01  6.658300701E+00  2.513270061E+01  4.616955931E-07  0.00000E+00  9.000E+00
#rwgt            1           1   3.9089134278222977E-002           7      502929           0
</event>
<event>
      5   9999  3.79277E-02  5.24305E+01 -1.00000E+00  1.37909E-01
      21    -1     0     0   502   501  0.000000000E+00  0.000000000E+00  1.404201421E+03  1.404201421E+03  0.000000000E+00  0.00000E+00  9.000E+00
      21    -1     0     0   501   512  0.000000000E+00  0.000000000E+00 -3.245964118E+02  3.245964118E+02  0.000000000E+00  0.00000E+00  9.000E+00
      25     1     1     2     0     0 -2.437808323E+02  2.365427263E+02  9.841006216E+02  1.048551663E+03  1.250000000E+02  0.00000E+00  9.000E+00
      25     1     1     2     0     0  2.705643480E+02 -1.914694560E+02  3.030462123E+02  4.661841114E+02  1.250000000E+02  0.00000E+00  9.000E+00
      21     1     1     2   502   512 -2.678351575E+01 -4.507327033E+01 -2.075418242E+02  2.140620592E+02  4.672030912E-06  0.00000E+00  9.000E+00
#rwgt            1           1   4.9652976678136153E-002           7      503033           0
</event>
<event>
      5   9999  3.79277E-02  1.44623E+01 -1.00000E+00  1.78890E-01
      21    -1     0     0   511   501  0.000000000E+00  0.000000000E+00  9.805630531E+01  9.805630531E+01  0.000000000E+00  0.00000E+00  9.000E+00
      21    -1     0     0   501   502  0.000000000E+00  0.000000000E+00 -7.347604016E+02  7.347604016E+02  0.000000000E+00  0.00000E+00  9.000E+00
      25     1     1     2     0     0  6.375723072E+01  5.750464516E+01  1.767713263E+01  1.526736706E+02  1.250000000E+02  0.00000E+00  9.000E+00
      25     1     1     2     0     0 -7.736707429E+01 -5.261290358E+01 -6.431516184E+02  6.618328989E+02  1.250000000E+02  0.00000E+00  9.000E+00
      21     1     1     2   511   502  1.360984357E+01 -4.891741587E+00 -1.122961043E+01  1.831013731E+01  2.064765462E-07  0.00000E+00  9.000E+00
#rwgt            1           1   4.0099932398560960E-002           7      503169           0
</event>
<event>
      5   9999  3.79277E-02  3.72250E+01 -1.00000E+00  1.46804E-01
      21    -1     0     0   512   501  0.000000000E+00  0.000000000E+00  1.161573161E+02  1.161573161E+02  0.000000000E+00  0.00000E+00  9.000E+00
      21    -1     0     0   501   502  0.000000000E+00  0.000000000E+00 -4.345218703E+02  4.345218703E+02  0.000000000E+00  0.00000E+00  9.000E+00
      25     1     1     2     0     0 -3.314362507E+01 -1.326430158E+02 -9.962055575E+01  2.103376444E+02  1.250000000E+02  0.00000E+00  9.000E+00
      25     1     1     2     0     0  6.987405345E+01  1.265954689E+02 -2.322081697E+02  3.007564300E+02  1.250000000E+02  0.00000E+00  9.000E+00
      21     1     1     2   512   502 -3.673042839E+01  6.047546895E+00  1.346417120E+01  3.958511208E+01  8.085167388E-07  0.00000E+00  9.000E+00
#rwgt            1           1   3.5909617049268754E-002           7      503355           0
</event>
<event>
      5   9999  3.79277E-02  5.57208E+01 -1.00000E+00  1.36443E-01
      21    -1     0     0   502   501  0.000000000E+00  0.000000000E+00  7.741241912E+01  7.741241912E+01  0.000000000E+00  0.00000E+00  9.000E+00
      21    -1     0     0   511   502  0.000000000E+00  0.000000000E+00 -7.891839752E+02  7.891839752E+02  0.000000000E+00  0.00000E+00  9.000E+00
      25     1     1     2     0     0 -7.730403233E+01  1.665051644E+02 -2.266742133E+02  3.173422161E+02  1.250000000E+02  0.00000E+00  9.000E+00
      25     1     1     2     0     0  2.243723922E+01 -1.567867942E+02 -3.731975455E+02  4.242486730E+02  1.250000000E+02  0.00000E+00  9.000E+00
      21     1     1     2   511   501  5.486679311E+01 -9.718370202E+00 -1.118997973E+02  1.250055053E+02  1.907348633E-06  0.00000E+00  9.000E+00
#rwgt            1           1   4.5828218567516323E-002           7      503451           0
</event>
<event>
      5   9999  3.79277E-02  2.05123E+01 -1.00000E+00  1.65468E-01
      21    -1     0     0   502   512  0.000000000E+00  0.000000000E+00  5.111520155E+02  5.111520155E+02  0.000000000E+00  0.00000E+00  9.000E+00
      21    -1     0     0   501   502  0.000000000E+00  0.000000000E+00 -1.623455645E+02  1.623455645E+02  0.000000000E+00  0.00000E+00  9.000E+00
      25     1     1     2     0     0  1.659124109E+02 -1.200220707E+02  1.872497558E+01  2.406405000E+02  1.250000000E+02  0.00000E+00  9.000E+00
      25     1     1     2     0     0 -1.845738131E+02  1.115069433E+02  2.614398813E+02  3.612161436E+02  1.250000000E+02  0.00000E+00  9.000E+00
      21     1     1     2   501   512  1.866140224E+01  8.515127377E+00  6.864159410E+01  7.164093641E+01  0.000000000E+00  0.00000E+00  9.000E+00
#rwgt            1           1   4.4032165048136465E-002           7      503591           0
</event>
<event>
      5   9999  3.79277E-02  2.19042E+01 -1.00000E+00  1.63175E-01
      21    -1     0     0   502   501  0.000000000E+00  0.000000000E+00  5.375047257E+02  5.375047257E+02  0.000000000E+00  0.00000E+00  9.000E+00
      -3    -1     0     0     0   502  0.000000000E+00  0.000000000E+00 -5.099686074E+02  5.099686074E+02  0.000000000E+00  0.00000E+00  9.000E+00
      25     1     1     2     0     0  1.103842214E+02 -1.396732228E+02  4.391682843E+02  4.900888363E+02  1.250000000E+02  0.00000E+00  9.000E+00
      25     1     1     2     0     0 -1.097166132E+02  1.177792382E+02 -7.064940435E+01  2.156989163E+02  1.250000000E+02  0.00000E+00  9.000E+00
      -3     1     1     2     0   501 -6.676082141E-01  2.189398460E+01 -3.409827616E+02  3.416855805E+02  3.814697266E-06  0.00000E+00  9.000E+00
#rwgt            1           1   5.7497172424895111E-002           7      503893           0
</event>
<event>
      5   9999  3.79277E-02  1.09442E+01 -1.00000E+00  1.91334E-01
      21    -1     0     0   511   501  0.000000000E+00  0.000000000E+00  2.412994691E+02  2.412994691E+02  0.000000000E+00  0.00000E+00  9.000E+00
      21    -1     0     0   501   502  0.000000000E+00  0.000000000E+00 -8.428175585E+02  8.428175585E+02  0.000000000E+00  0.00000E+00  9.000E+00
      25     1     1     2     0     0 -1.966432710E+02 -1.463548582E+02 -7.184939344E+02  7.693808252E+02  1.250000000E+02  0.00000E+00  9.000E+00
      25     1     1     2     0     0  2.071144792E+02  1.431720704E+02  1.106686757E+02  3.021046259E+02  1.250000000E+02  0.00000E+00  9.000E+00
      21     1     1     2   511   502 -1.047120819E+01  3.182787835E+00  6.307169283E+00  1.263157646E+01  1.192092896E-07  0.00000E+00  9.000E+00
#rwgt            1           1   6.0396380678755385E-002           7      504220           0
</event>
<event>
      5   9999  3.79277E-02  4.87515E+01 -1.00000E+00  1.39705E-01
      21    -1     0     0   502   501  0.000000000E+00  0.000000000E+00  3.188181442E+01  3.188181442E+01  0.000000000E+00  0.00000E+00  9.000E+00
      21    -1     0     0   512   502  0.000000000E+00  0.000000000E+00 -1.505677409E+03  1.505677409E+03  0.000000000E+00  0.00000E+00  9.000E+00
      25     1     1     2     0     0 -1.254306256E+02  5.509250606E+01 -4.551318682E+02  4.914652008E+02  1.250000000E+02  0.00000E+00  9.000E+00
      25     1     1     2     0     0  1.192519185E+02 -6.734116117E+00 -5.942558893E+02  6.188953307E+02  1.250000000E+02  0.00000E+00  9.000E+00
      21     1     1     2   512   501  6.178707128E+00 -4.835838995E+01 -4.244078365E+02  4.271986915E+02  7.629394531E-06  0.00000E+00  9.000E+00
#rwgt            1           1   3.7062593277731634E-002           7      504524           0
</event>
<event>
      5   9999  3.79277E-02  1.96474E+01 -1.00000E+00  1.67009E-01
      21    -1     0     0   502   501  0.000000000E+00  0.000000000E+00  2.398678070E+02  2.398678070E+02  0.000000000E+00  0.00000E+00  9.000E+00
      21    -1     0     0   501   511  0.000000000E+00  0.000000000E+00 -3.289106657E+02  3.289106657E+02  0.000000000E+00  0.00000E+00  9.000E+00
      25     1     1     2     0     0  7.549843771E+01  2.807585349E+00  1.927118016E+02  2.418072272E+02  1.250000000E+02  0.00000E+00  9.000E+00
      25     1     1     2     0     0 -6.759958710E+01  1.518205943E+01 -2.652908781E+02  3.013377658E+02  1.250000000E+02  0.00000E+00  9.000E+00
      21     1     1     2   502   511 -7.898850615E+00 -1.798964477E+01 -1.646378228E+01  2.563347981E+01  2.384185791E-07  0.00000E+00  9.000E+00
#rwgt            1           1   4.8945379945776482E-002           7      504614           0
</event>
<event>
      5   9999  3.79277E-02  8.45368E+01 -1.00000E+00  1.27201E-01
      21    -1     0     0   512   501  0.000000000E+00  0.000000000E+00  4.628750677E+02  4.628750677E+02  0.000000000E+00  0.00000E+00  9.000E+00
      21    -1     0     0   501   502  0.000000000E+00  0.000000000E+00 -5.680327872E+02  5.680327872E+02  0.000000000E+00  0.00000E+00  9.000E+00
      25     1     1     2     0     0 -2.739625212E+02  3.643086403E+00 -3.499818367E+02  4.617153031E+02  1.250000000E+02  0.00000E+00  9.000E+00
      25     1     1     2     0     0  2.380267326E+02 -8.016163902E+01 -2.954029984E+01  2.820997042E+02  1.250000000E+02  0.00000E+00  9.000E+00
      21     1     1     2   512   502  3.593578856E+01  7.651855261E+01  2.743644170E+02  2.870928476E+02  3.814697266E-06  0.00000E+00  9.000E+00
#rwgt            1           1   3.3956155886879717E-002           7      504797           0
</event>
<event>
      5   9999  3.79277E-02  1.73325E+01 -1.00000E+00  1.71667E-01
      21    -1     0     0   502   501  0.000000000E+00  0.000000000E+00  1.366380463E+02  1.366380463E+02  0.000000000E+00  0.00000E+00  9.000E+00
      21    -1     0     0   501   511  0.000000000E+00  0.000000000E+00 -5.105132695E+02  5.105132695E+02  0.000000000E+00  0.00000E+00  9.000E+00
      25     1     1     2     0     0 -6.718906690E+01 -7.829023813E+01  4.573158970E+01  1.684046032E+02  1.250000000E+02  0.00000E+00  9.000E+00
      25     1     1     2     0     0  5.132518419E+01  8.527245896E+01 -1.890054800E+02  2.474949257E+02  1.250000000E+02  0.00000E+00  9.000E+00
      21     1     1     2   502   511  1.586388272E+01 -6.982220829E+00 -2.306013329E+02  2.312517869E+02  4.672030912E-06  0.00000E+00  9.000E+00
#rwgt            1           1   4.2569022133280954E-002           7      505016           0
</event>
<event>
      5   9999  3.79277E-02  2.49699E+01 -1.00000E+00  1.58790E-01
      21    -1     0     0   502   501  0.000000000E+00  0.000000000E+00  1.365473298E+03  1.365473298E+03  0.000000000E+00  0.00000E+00  9.000E+00
      21    -1     0     0   512   502  0.000000000E+00  0.000000000E+00 -2.734362048E+01  2.734362048E+01  0.000000000E+00  0.00000E+00  9.000E+00
      25     1     1     2     0     0  7.184785866E+01  4.562410850E+01  4.049525243E+02  4.322675341E+02  1.250000000E+02  0.00000E+00  9.000E+00
      25     1     1     2     0     0 -8.224811775E+01 -6.832503405E+01  9.149892723E+02  9.296576959E+02  1.250000000E+02  0.00000E+00  9.000E+00
      21     1     1     2   512   501  1.040025909E+01  2.270092555E+01  1.818788105E+01  3.089168864E+01  9.830249847E-07  0.00000E+00  9.000E+00
#rwgt            1           1   4.7257823991657032E-002           7      505279           0
</event>
<event>
      5   9999  3.79277E-02  5.94572E+01 -1.00000E+00  1.34915E-01
      21    -1     0     0   511   501  0.000000000E+00  0.000000000E+00  9.349436555E+01  9.349436555E+01  0.000000000E+00  0.00000E+00  9.000E+00
      21    -1     0     0   501   502  0.000000000E+00  0.000000000E+00 -1.090787973E+03  1.090787973E+03  0.000000000E+00  0.00000E+00  9.000E+00
      25     1     1     2     0     0  2.437715575E+02  6.609241706E+01 -4.791324881E+02  5.558648406E+02  1.250000000E+02  0.00000E+00  9.000E+00
      25     1     1     2     0     0 -2.106901655E+02 -1.154966197E+02 -4.956875437E+02  5.648548096E+02  1.250000000E+02  0.00000E+00  9.000E+00
      21     1     1     2   511   502 -3.308139199E+01  4.940420267E+01 -2.247357552E+01  6.356268822E+01  1.092571186E-06  0.00000E+00  9.000E+00
#rwgt            1           1   3.8598214077931035E-002           7      505530           0
</event>
<event>
      5   9999  3.79277E-02  1.10789E+02 -1.00000E+00  1.21859E-01
      21    -1     0     0   512   501  0.000000000E+00  0.000000000E+00  2.192564321E+02  2.192564321E+02  0.000000000E+00  0.00000E+00  9.000E+00
      21    -1     0     0   501   502  0.000000000E+00  0.000000000E+00 -3.334852280E+02  3.334852280E+02  0.000000000E+00  0.00000E+00  9.000E+00
      25     1     1     2     0     0 -9.536688346E+01  3.709133204E+01 -5.243654355E+01  1.698387484E+02  1.250000000E+02  0.00000E+00  9.000E+00
      25     1     1     2     0     0  1.386946151E+02 -1.390570645E+02 -1.153868161E+02  2.598310620E+02  1.250000000E+02  0.00000E+00  9.000E+00
      21     1     1     2   512   502 -4.332773166E+01  1.019657325E+02  5.359456367E+01  1.230718497E+02  6.743495762E-07  0.00000E+00  9.000E+00
#rwgt            1           1   7.2202177530027542E-002           7      505672           0
</event>
<event>
      5   9999  3.79277E-02  3.00775E+01 -1.00000E+00  1.52962E-01
      21    -1     0     0   502   501  0.000000000E+00  0.000000000E+00  2.208253304E+02  2.208253304E+02  0.000000000E+00  0.00000E+00  9.000E+00
       2    -1     0     0   501     0  0.000000000E+00  0.000000000E+00 -2.395897845E+03  2.395897845E+03  0.000000000E+00  0.00000E+00  9.000E+00
      25     1     1     2     0     0 -8.299339007E+01 -2.270272545E+02 -7.563619936E+01  2.824448826E+02  1.250000000E+02  0.00000E+00  9.000E+00
      25     1     1     2     0     0  8.074134910E+01  1.970341516E+02 -1.261079580E+01  2.472360300E+02  1.250000000E+02  0.00000E+00  9.000E+00
       2     1     1     2   502     0  2.252040974E+00  2.999310289E+01 -2.086825520E+03  2.087042263E+03  3.051757812E-05  0.00000E+00  9.000E+00
#rwgt            1           1   2.8888023930097661E-002           7      505743           0
</event>
<event>
      5   9999  3.79277E-02  1.20318E+02 -1.00000E+00  1.20319E-01
      21    -1     0     0   511   501  0.000000000E+00  0.000000000E+00  1.661792054E+02  1.661792054E+02  0.000000000E+00  0.00000E+00  9.000E+00
      21    -1     0     0   501   502  0.000000000E+00  0.000000000E+00 -6.063954576E+02  6.063954576E+02  0.000000000E+00  0.00000E+00  9.000E+00
      25     1     1     2     0     0 -1.123891949E+02 -3.563947425E+01 -1.303991623E+01  1.723268483E+02  1.250000000E+02  0.00000E+00  9.000E+00
      25     1     1     2     0     0  9.179136859E+00  9.747932568E+01 -4.505238076E+02  4.776852277E+02  1.250000000E+02  0.00000E+00  9.000E+00
      21     1     1     2   511   502  1.032100580E+02 -6.183985143E+01  2.334747172E+01  1.225625870E+02  9.536743164E-07  0.00000E+00  9.000E+00
#rwgt            1           1   4.4066706830439097E-002           7      505988           0
</event>
<event>
      5   9999  3.79277E-02  2.55227E+01 -1.00000E+00  1.58081E-01
      21    -1     0     0   502   512  0.000000000E+00  0.000000000E+00  9.003805509E+01  9.003805509E+01  0.000000000E+00  0.00000E+00  9.000E+00
      21    -1     0     0   501   502  0.000000000E+00  0.000000000E+00 -5.788897645E+02  5.788897645E+02  0.000000000E+00  0.00000E+00  9.000E+00
      25     1     1     2     0     0 -9.851272586E+01 -1.091120959E+02 -4.080568912E+02  4.513819149E+02  1.250000000E+02  0.00000E+00  9.000E+00
      25     1     1     2     0     0  7.505949710E+01  9.904460942E+01 -6.729346172E+01  1.886721303E+02  1.250000000E+02  0.00000E+00  9.000E+00
      21     1     1     2   501   512  2.345322876E+01  1.006748649E+01 -1.350135655E+01  2.887377447E+01  3.371747881E-07  0.00000E+00  9.000E+00
#rwgt            1           1   3.1706894952134024E-002           7      506063           0
</event>
<event>
      5   9999  3.79277E-02  6.12626E+01 -1.00000E+00  1.34222E-01
      21    -1     0     0   502   501  0.000000000E+00  0.000000000E+00  4.753515077E+02  4.753515077E+02  0.000000000E+00  0.00000E+00  9.000E+00
      21    -1     0     0   501   511  0.000000000E+00  0.000000000E+00 -1.308445608E+02  1.308445608E+02  0.000000000E+00  0.00000E+00  9.000E+00
      25     1     1     2     0     0  1.366264228E+02 -5.046983648E+01  9.908432512E+01  2.160015910E+02  1.250000000E+02  0.00000E+00  9.000E+00
      25     1     1     2     0     0 -1.570317972E+02 -7.294580765E+00  2.586994526E+02  3.275096991E+02  1.250000000E+02  0.00000E+00  9.000E+00
      21     1     1     2   502   511  2.040537433E+01  5.776441725E+01 -1.327683081E+01  6.268477836E+01  1.625797951E-06  0.00000E+00  9.000E+00
#rwgt            1           1   3.8268484915871787E-002           7      506258           0
</event>
<event>
      5   9999  3.79277E-02  1.18642E+01 -1.00000E+00  1.87549E-01
      21    -1     0     0   502   501  0.000000000E+00  0.000000000E+00  4.356089543E+01  4.356089543E+01  0.000000000E+00  0.00000E+00  9.000E+00
      21    -1     0     0   501   512  0.000000000E+00  0.000000000E+00 -1.328124515E+03  1.328124515E+03  0.000000000E+00  0.00000E+00  9.000E+00
      25     1     1     2     0     0 -3.620422620E+01  1.065777300E+02 -7.173141747E+02  7.367728169E+02  1.250000000E+02  0.00000E+00  9.000E+00
      25     1     1     2     0     0  3.469275365E+01 -9.481022840E+01 -1.575198543E+02  2.250112687E+02  1.250000000E+02  0.00000E+00  9.000E+00
      21     1     1     2   502   512  1.511472546E+00 -1.176750157E+01 -4.097295911E+02  4.099013253E+02  9.344061824E-06  0.00000E+00  9.000E+00
#rwgt            1           1   4.4035036803506226E-002           7      506335           0
</event>
<event>
      5   9999  3.79277E-02  1.05376E+01 -1.00000E+00  1.93164E-01
      21    -1     0     0   502   501  0.000000000E+00  0.000000000E+00  5.052445096E+02  5.052445096E+02  0.000000000E+00  0.00000E+00  9.000E+00
      21    -1     0     0   511   502  0.000000000E+00  0.000000000E+00 -7.339666287E+01  7.339666287E+01  0.000000000E+00  0.00000E+00  9.000E+00
      25     1     1     2     0     0  1.874097627E+01 -8.385961220E+01  3.679321001E+02  3.979732265E+02  1.250000000E+02  0.00000E+00  9.000E+00
      25     1     1     2     0     0 -1.134360036E+01  9.136425818E+01  6.784356468E+01  1.694221184E+02  1.250000000E+02  0.00000E+00  9.000E+00
      21     1     1     2   511   501 -7.397375905E+00 -7.504645976E+00 -3.927818072E+00  1.124582751E+01  3.209808354E-07  0.00000E+00  9.000E+00
#rwgt            1           1   4.2750581748185010E-002           7      506610           0
</event>
<event>
      5   9999  3.79277E-02  4.39538E+01 -1.00000E+00  1.42346E-01
      21    -1     0     0   512   501  0.000000000E+00  0.000000000E+00  4.129211826E+02  4.129211826E+02  0.000000000E+00  0.00000E+00  9.000E+00
      21    -1     0     0   501   502  0.000000000E+00  0.000000000E+00 -1.254084111E+02  1.254084111E+02  0.000000000E+00  0.00000E+00  9.000E+00
      25     1     1     2     0     0 -3.058650975E+01 -1.119846126E+02  2.247217008E+02  2.821363692E+02  1.250000000E+02  0.00000E+00  9.000E+00
      25     1     1     2     0     0  6.474310976E+01  1.396479357E+02  2.824816441E+01  2.002902269E+02  1.250000000E+02  0.00000E+00  9.000E+00
      21     1     1     2   512   502 -3.415660001E+01 -2.766332312E+01  3.454290630E+01  5.590299765E+01  4.768371582E-07  0.00000E+00  9.000E+00
#rwgt            1           1   6.3868881383050372E-002           7      507004           0
</event>
<event>
      5   9999  3.79277E-02  7.88594E+01 -1.00000E+00  1.28652E-01
      21    -1     0     0   502   501  0.000000000E+00  0.000000000E+00  1.053734663E+03  1.053734663E+03  0.000000000E+00  0.00000E+00  9.000E+00
      21    -1     0     0   501   511  0.000000000E+00  0.000000000E+00 -5.245414398E+01  5.245414398E+01  0.000000000E+00  0.00000E+00  9.000E+00
      25     1     1     2     0     0 -4.691242833E+01  8.476291375E+01  2.108288057E+02  2.635513475E+02  1.250000000E+02  0.00000E+00  9.000E+00
      25     1     1     2     0     0 -2.319011757E+01 -1.208798302E+02  7.044036265E+02  7.259195437E+02  1.250000000E+02  0.00000E+00  9.000E+00
      21     1     1     2   502   511  7.010254591E+01  3.611691649E+01  8.604808672E+01  1.167179156E+02  9.536743164E-07  0.00000E+00  9.000E+00
#rwgt            1           1   4.4763828153547694E-002           7      507265           0
</event>
<event>
      5   9999  3.79277E-02  8.50483E+01 -1.00000E+00  1.27076E-01
      21    -1     0     0   502   512  0.000000000E+00  0.000000000E+00  2.040537220E+03  2.040537220E+03  0.000000000E+00  0.00000E+00  9.000E+00
      21    -1     0     0   501   502  0.000000000E+00  0.000000000E+00 -8.440049371E+01  8.440049371E+01  0.000000000E+00  0.00000E+00  9.000E+00
      25     1     1     2     0     0 -2.725273765E+00  5.204487062E+01  1.415512264E+03  1.421976112E+03  1.250000000E+02  0.00000E+00  9.000E+00
      25     1     1     2     0     0 -5.924125666E+01 -1.102974325E+02  2.301193871E+01  1.784085184E+02  1.250000000E+02  0.00000E+00  9.000E+00
      21     1     1     2   501   512  6.196653043E+01  5.825256190E+01  5.176125239E+02  5.245530829E+02  1.078959322E-05  0.00000E+00  9.000E+00
#rwgt            1           1   3.5771179398417036E-002           7      507354           0
</event>
<event>
      5   9999  3.79277E-02  4.58456E+01 -1.00000E+00  1.41260E-01
      21    -1     0     0   502   501  0.000000000E+00  0.000000000E+00  3.691104365E+01  3.691104365E+01  0.000000000E+00  0.00000E+00  9.000E+00
       1    -1     0     0   501     0  0.000000000E+00  0.000000000E+00 -2.906359717E+03  2.906359717E+03  0.000000000E+00  0.00000E+00  9.000E+00
      25     1     1     2     0     0  4.546143583E+01 -1.315913909E+02 -4.639144389E+02  5.002245925E+02  1.250000000E+02  0.00000E+00  9.000E+00
      25     1     1     2     0     0 -2.701700184E+00  1.481267934E+02 -4.897749835E+02  5.267384366E+02  1.250000000E+02  0.00000E+00  9.000E+00
       1     1     1     2   502     0 -4.275973565E+01 -1.653540251E+01 -1.915759250E+03  1.916307731E+03  2.157918644E-05  0.00000E+00  9.000E+00
#rwgt            1           1   4.1549847442562342E-002           7      507461           0
</event>
<event>
      5   9999  3.79277E-02  3.82498E+02 -1.00000E+00  1.02274E-01
      21    -1     0     0   502   501  0.000000000E+00  0.000000000E+00  2.728990665E+02  2.728990665E+02  0.000000000E+00  0.00000E+00  9.000E+00
      21    -1     0     0   511   502  0.000000000E+00  0.000000000E+00 -1.217764541E+03  1.217764541E+03  0.000000000E+00  0.00000E+00  9.000E+00
      25     1     1     2     0     0 -2.007726006E+02  2.151866470E+02 -1.438362890E+02  3.506120480E+02  1.250000000E+02  0.00000E+00  9.000E+00
      25     1     1     2     0     0  7.011701276E+01  1.443046875E+02  4.788422054E+01  2.089452964E+02  1.250000000E+02  0.00000E+00  9.000E+00
      21     1     1     2   511   501  1.306555878E+02 -3.594913345E+02 -8.489134060E+02  9.311062631E+02  1.525878906E-05  0.00000E+00  9.000E+00
#rwgt            2          11   5.1190653600670876E-004           7      507716           0
</event>
<event>
      5   9999  3.79277E-02  7.53960E+01 -1.00000E+00  1.29608E-01
      21    -1     0     0   502   512  0.000000000E+00  0.000000000E+00  4.160623358E+01  4.160623358E+01  0.000000000E+00  0.00000E+00  9.000E+00
      21    -1     0     0   501   502  0.000000000E+00  0.000000000E+00 -2.602892432E+03  2.602892432E+03  0.000000000E+00  0.00000E+00  9.000E+00
      25     1     1     2     0     0  1.235825246E+02 -7.259073405E+01 -2.610246662E+02  3.229565472E+02  1.250000000E+02  0.00000E+00  9.000E+00
      25     1     1     2     0     0 -8.859696782E+01  1.393782578E+02 -2.042640200E+03  2.053114636E+03  1.250000000E+02  0.00000E+00  9.000E+00
      21     1     1     2   501   512 -3.498555673E+01 -6.678752379E+01 -2.576213327E+02  2.684274829E+02  5.394796609E-06  0.00000E+00  9.000E+00
#rwgt            1           1  0.10435716025754711                7      507736           0
</event>
<event>
      5   9999  3.79277E-02  9.07299E+01 -1.00000E+00  1.25758E-01
      21    -1     0     0   502   501  0.000000000E+00  0.000000000E+00  5.942552404E+02  5.942552404E+02  0.000000000E+00  0.00000E+00  9.000E+00
      21    -1     0     0   511   502  0.000000000E+00  0.000000000E+00 -1.236874179E+03  1.236874179E+03  0.000000000E+00  0.00000E+00  9.000E+00
      25     1     1     2     0     0  6.623296278E+01 -1.547828474E+02  3.531602729E+02  4.107209680E+02  1.250000000E+02  0.00000E+00  9.000E+00
      25     1     1     2     0     0 -1.175270620E+02  7.994420437E+01  1.680069622E+02  2.530909431E+02  1.250000000E+02  0.00000E+00  9.000E+00
      21     1     1     2   511   501  5.129409919E+01  7.483864299E+01 -1.163786173E+03  1.167317508E+03  2.157918644E-05  0.00000E+00  9.000E+00
#rwgt            1           1   3.6787299454986537E-002           7      507841           0
</event>
<event>
      5   9999  3.79277E-02  1.19307E+02 -1.00000E+00  1.20475E-01
      21    -1     0     0   502   501  0.000000000E+00  0.000000000E+00  2.574051345E+02  2.574051345E+02  0.000000000E+00  0.00000E+00  9.000E+00
      21    -1     0     0   501   512  0.000000000E+00  0.000000000E+00 -1.124603481E+03  1.124603481E+03  0.000000000E+00  0.00000E+00  9.000E+00
      25     1     1     2     0     0 -3.194623922E+01 -6.803970406E+01  1.745555878E+02  2.274744310E+02  1.250000000E+02  0.00000E+00  9.000E+00
      25     1     1     2     0     0  5.996956796E+01  1.840088151E+02 -2.021770011E+02  3.065226466E+02  1.250000000E+02  0.00000E+00  9.000E+00
      21     1     1     2   502   512 -2.802332874E+01 -1.159691110E+02 -8.395769334E+02  8.480115381E+02  1.868812365E-05  0.00000E+00  9.000E+00
#rwgt            1           1   5.3503097334115360E-002           7      507940           0
</event>
<event>
      5   9999  3.79277E-02  1.25411E+02 -1.00000E+00  1.19561E-01
      21    -1     0     0   502   501  0.000000000E+00  0.000000000E+00  6.926449656E+02  6.926449656E+02  0.000000000E+00  0.00000E+00  9.000E+00
      21    -1     0     0   511   502  0.000000000E+00  0.000000000E+00 -9.496698541E+01  9.496698541E+01  0.000000000E+00  0.00000E+00  9.000E+00
      25     1     1     2     0     0 -1.837554632E+01 -7.686908030E+01  6.685237128E+01  1.622983541E+02  1.250000000E+02  0.00000E+00  9.000E+00
      25     1     1     2     0     0 -1.060450133E+02  6.113834664E+01  4.305631662E+02  4.647505593E+02  1.250000000E+02  0.00000E+00  9.000E+00
      21     1     1     2   511   501  1.244205596E+02  1.573073366E+01  1.002624427E+02  1.605630376E+02  2.697398305E-06  0.00000E+00  9.000E+00
#rwgt            1           1   5.6082237107191048E-002           7      508035           0
</event>
<event>
      5   9999  3.79277E-02  1.35993E+02 -1.00000E+00  1.18106E-01
       2    -1     0     0   502     0  0.000000000E+00  0.000000000E+00  2.203406169E+03  2.203406169E+03  0.000000000E+00  0.00000E+00  9.000E+00
      21    -1     0     0   501   502  0.000000000E+00  0.000000000E+00 -2.736052456E+02  2.736052456E+02  0.000000000E+00  0.00000E+00  9.000E+00
      25     1     1     2     0     0  1.125149503E+02 -1.401012816E+02 -1.600518989E+02  2.711634074E+02  1.250000000E+02  0.00000E+00  9.000E+00
      25     1     1     2     0     0 -2.485055557E+02  1.393541760E+02  3.823638379E+02  4.929520282E+02  1.250000000E+02  0.00000E+00  9.000E+00
       2     1     1     2   501     0  1.359906054E+02  7.471055738E-01  1.707488985E+03  1.712895979E+03  2.157918644E-05  0.00000E+00  9.000E+00
#rwgt            1           1   3.2568867730908703E-002           7      508111           0
</event>
<event>
      5   9999  3.79277E-02  7.10323E+01 -1.00000E+00  1.30899E-01
      21    -1     0     0   502   501  0.000000000E+00  0.000000000E+00  3.151496956E+02  3.151496956E+02  0.000000000E+00  0.00000E+00  9.000E+00
       2    -1     0     0   501     0  0.000000000E+00  0.000000000E+00 -7.700642681E+02  7.700642681E+02  0.000000000E+00  0.00000E+00  9.000E+00
      25     1     1     2     0     0 -6.150343859E+01 -7.024182327E+01  1.542644806E+02  2.194062822E+02  1.250000000E+02  0.00000E+00  9.000E+00
      25     1     1     2     0     0  1.325326446E+02  7.090672827E+01  5.082503657E+01  2.019922036E+02  1.250000000E+02  0.00000E+00  9.000E+00
       2     1     1     2   502     0 -7.102920598E+01 -6.649050054E-01 -6.600040897E+02  6.638154778E+02  1.078959322E-05  0.00000E+00  9.000E+00
#rwgt            1           1   6.2426651573628353E-002           7      508189           0
</event>
<event>
      5   9999  3.79277E-02  3.54358E+01 -1.00000E+00  1.48181E-01
      21    -1     0     0   502   511  0.000000000E+00  0.000000000E+00  8.555537107E+02  8.555537107E+02  0.000000000E+00  0.00000E+00  9.000E+00
      21    -1     0     0   501   502  0.000000000E+00  0.000000000E+00 -5.847696189E+01  5.847696189E+01  0.000000000E+00  0.00000E+00  9.000E+00
      25     1     1     2     0     0 -1.400793836E+02 -1.716049717E+01  1.816966030E+02  2.618308078E+02  1.250000000E+02  0.00000E+00  9.000E+00
      25     1     1     2     0     0  1.047184048E+02  1.946245511E+01  3.772194706E+02  4.114173799E+02  1.250000000E+02  0.00000E+00  9.000E+00
      21     1     1     2   501   511  3.536097876E+01 -2.301957943E+00  2.381606752E+02  2.407824849E+02  3.814697266E-06  0.00000E+00  9.000E+00
#rwgt            1           1   1.2742763308760225E-002           7      508281           0
</event>
<event>
      5   9999  3.79277E-02  7.11048E+01 -1.00000E+00  1.30877E-01
      21    -1     0     0   502   501  0.000000000E+00  0.000000000E+00  4.267698074E+02  4.267698074E+02  0.000000000E+00  0.00000E+00  9.000E+00
      21    -1     0     0   512   502  0.000000000E+00  0.000000000E+00 -2.852092938E+02  2.852092938E+02  0.000000000E+00  0.00000E+00  9.000E+00
      25     1     1     2     0     0  1.706233522E+02 -5.038110650E+01  1.994890119E+02  2.950787185E+02  1.250000000E+02  0.00000E+00  9.000E+00
      25     1     1     2     0     0 -1.114159825E+02  1.100631354E+01  1.323824671E+02  2.137399768E+02  1.250000000E+02  0.00000E+00  9.000E+00
      21     1     1     2   512   501 -5.920736971E+01  3.937479296E+01 -1.903109654E+02  2.031604058E+02  2.697398305E-06  0.00000E+00  9.000E+00
#rwgt            1           1  0.11451286554833449                7      508448           0
</event>
<event>
      5   9999  3.79277E-02  3.91862E+01 -1.00000E+00  1.45396E-01
       3    -1     0     0   502     0  0.000000000E+00  0.000000000E+00  3.035199866E+03  3.035199866E+03  0.000000000E+00  0.00000E+00  9.000E+00
      21    -1     0     0   501   502  0.000000000E+00  0.000000000E+00 -1.631632916E+02  1.631632916E+02  0.000000000E+00  0.00000E+00  9.000E+00
      25     1     1     2     0     0  1.807490603E+01 -1.011199594E+01 -1.154024663E+02  1.713816907E+02  1.250000000E+02  0.00000E+00  9.000E+00
      25     1     1     2     0     0 -1.490162366E+01  4.916951573E+01  2.129453748E+02  2.522110868E+02  1.250000000E+02  0.00000E+00  9.000E+00
       3     1     1     2   501     0 -3.173282370E+00 -3.905751979E+01  2.774493666E+03  2.774770380E+03  3.051757812E-05  0.00000E+00  9.000E+00
#rwgt            1           1   3.8949772359954025E-002           7      508537           0
</event>
<event>
      5   9999  3.79277E-02  5.20369E+01 -1.00000E+00  1.38093E-01
      21    -1     0     0   502   511  0.000000000E+00  0.000000000E+00  1.154354614E+03  1.154354614E+03  0.000000000E+00  0.00000E+00  9.000E+00
      21    -1     0     0   501   502  0.000000000E+00  0.000000000E+00 -2.504080776E+02  2.504080776E+02  0.000000000E+00  0.00000E+00  9.000E+00
      25     1     1     2     0     0 -1.469232141E+02 -3.819860458E+01  2.605668871E+01  1.983671224E+02  1.250000000E+02  0.00000E+00  9.000E+00
      25     1     1     2     0     0  1.546154541E+02 -1.326663020E+01 -1.028725534E+02  2.242536608E+02  1.250000000E+02  0.00000E+00  9.000E+00
      21     1     1     2   501   511 -7.692240018E+00  5.146523478E+01  9.807624008E+02  9.821419082E+02  1.078959322E-05  0.00000E+00  9.000E+00
#rwgt            1           1   4.5592877096701560E-002           7      508638           0
</event>
<event>
      5   9999  3.79277E-02  1.99360E+02 -1.00000E+00  1.11699E-01
       2    -1     0     0   502     0  0.000000000E+00  0.000000000E+00  7.405157167E+02  7.405157167E+02  0.000000000E+00  0.00000E+00  9.000E+00
      21    -1     0     0   501   502  0.000000000E+00  0.000000000E+00 -1.606530196E+02  1.606530196E+02  0.000000000E+00  0.00000E+00  9.000E+00
      25     1     1     2     0     0  1.062559923E+02 -2.609477262E+01  2.410983098E+00  1.661387549E+02  1.250000000E+02  0.00000E+00  9.000E+00
      25     1     1     2     0     0 -1.160465113E+02 -1.730247019E+02  2.306244781E+02  3.349880448E+02  1.250000000E+02  0.00000E+00  9.000E+00
       2     1     1     2   501     0  9.790519033E+00  1.991194745E+02  3.468272359E+02  4.000419365E+02  5.394796609E-06  0.00000E+00  9.000E+00
#rwgt            1           1   4.0068978343672873E-002           7      508755           0
</event>
<event>
      5   9999  3.79277E-02  8.10158E+01 -1.00000E+00  1.28085E-01
      21    -1     0     0   502   501  0.000000000E+00  0.000000000E+00  1.726336336E+02  1.726336336E+02  0.000000000E+00  0.00000E+00  9.000E+00
      21    -1     0     0   501   511  0.000000000E+00  0.000000000E+00 -5.328900382E+02  5.328900382E+02  0.000000000E+00  0.00000E+00  9.000E+00
      25     1     1     2     0     0  1.206100964E+02  5.480159257E+01 -1.297979781E+02  2.236571596E+02  1.250000000E+02  0.00000E+00  9.000E+00
      25     1     1     2     0     0 -2.012930301E+02 -4.746467893E+01 -4.362321910E+00  2.416936275E+02  1.250000000E+02  0.00000E+00  9.000E+00
      21     1     1     2   502   511  8.068293368E+01 -7.336913641E+00 -2.260961045E+02  2.401728848E+02  3.814697266E-06  0.00000E+00  9.000E+00
#rwgt            1           1   3.8607248682000626E-002           7      508844           0
</event>
<event>
      5   9999  3.79277E-02  1.40681E+01 -1.00000E+00  1.80049E-01
      21    -1     0     0   502   501  0.000000000E+00  0.000000000E+00  1.116316645E+02  1.116316645E+02  0.000000000E+00  0.00000E+00  9.000E+00
      21    -1     0     0   501   512  0.000000000E+00  0.000000000E+00 -5.068053560E+02  5.068053560E+02  0.000000000E+00  0.00000E+00  9.000E+00
      25     1     1     2     0     0 -4.829073211E+01  1.428548499E+02 -2.911663454E+02  3.509164340E+02  1.250000000E+02  0.00000E+00  9.000E+00
      25     1     1     2     0     0  4.216652753E+01 -1.555200023E+02 -4.764179871E+01  2.094259490E+02  1.250000000E+02  0.00000E+00  9.000E+00
      21     1     1     2   502   512  6.124204572E+00  1.266515236E+01 -5.636554742E+01  5.809463746E+01  0.000000000E+00  0.00000E+00  9.000E+00
#rwgt            1           1   3.1161935376148659E-002           7      508935           0
</event>
<event>
      5   9999  3.79277E-02  3.23534E+01 -1.00000E+00  1.50796E-01
      21    -1     0     0   511   501  0.000000000E+00  0.000000000E+00  5.659117306E+02  5.659117306E+02  0.000000000E+00  0.00000E+00  9.000E+00
      21    -1     0     0   501   502  0.000000000E+00  0.000000000E+00 -1.292555185E+02  1.292555185E+02  0.000000000E+00  0.00000E+00  9.000E+00
      25     1     1     2     0     0 -3.594755828E+00  1.454683895E+00 -7.918584713E+01  1.480217442E+02  1.250000000E+02  0.00000E+00  9.000E+00
      25     1     1     2     0     0 -1.069168507E+01  2.757362767E+01  4.874835564E+02  5.041228371E+02  1.250000000E+02  0.00000E+00  9.000E+00
      21     1     1     2   511   502  1.428644090E+01 -2.902831156E+01  2.835850274E+01  4.302266778E+01  6.743495762E-07  0.00000E+00  9.000E+00
#rwgt            1           1   1.9217552113151171E-002           7      509333           0
</event>
<event>
      5   9999  3.79277E-02  5.59214E+01 -1.00000E+00  1.36358E-01
      21    -1     0     0   502   501  0.000000000E+00  0.000000000E+00  2.350778928E+02  2.350778928E+02  0.000000000E+00  0.00000E+00  9.000E+00
      21    -1     0     0   512   502  0.000000000E+00  0.000000000E+00 -5.101619919E+02  5.101619919E+02  0.000000000E+00  0.00000E+00  9.000E+00
      25     1     1     2     0     0  2.393855724E+02 -1.810893915E+02 -1.658624775E+02  3.650125771E+02  1.250000000E+02  0.00000E+00  9.000E+00
      25     1     1     2     0     0 -1.929593650E+02  1.499155569E+02 -2.034529921E+01  2.752215870E+02  1.250000000E+02  0.00000E+00  9.000E+00
      21     1     1     2   512   501 -4.642620736E+01  3.117383464E+01 -8.887632238E+01  1.050057207E+02  1.907348633E-06  0.00000E+00  9.000E+00
#rwgt            1           1   3.7492543559169193E-002           7      509490           0
</event>
<event>
      5   9999  3.79277E-02  5.81479E+01 -1.00000E+00  1.35435E-01
      21    -1     0     0   511   501  0.000000000E+00  0.000000000E+00  1.053767627E+03  1.053767627E+03  0.000000000E+00  0.00000E+00  9.000E+00
      21    -1     0     0   501   502  0.000000000E+00  0.000000000E+00 -1.342647790E+02  1.342647790E+02  0.000000000E+00  0.00000E+00  9.000E+00
      25     1     1     2     0     0  6.154297772E+01  2.894105955E+02  2.734928441E+02  4.218641566E+02  1.250000000E+02  0.00000E+00  9.000E+00
      25     1     1     2     0     0 -4.802824919E+00 -3.021282475E+02  4.171743948E+02  5.300603935E+02  1.250000000E+02  0.00000E+00  9.000E+00
      21     1     1     2   511   502 -5.674015280E+01  1.271765202E+01  2.288356090E+02  2.361078557E+02  2.697398305E-06  0.00000E+00  9.000E+00
#rwgt            1           1   3.7940071189745114E-002           7      509606           0
</event>
<event>
      5   9999  3.79277E-02  3.39019E+01 -1.00000E+00  1.49441E-01
      21    -1     0     0   502   501  0.000000000E+00  0.000000000E+00  8.348418107E+02  8.348418107E+02  0.000000000E+00  0.00000E+00  9.000E+00
      21    -1     0     0   512   502  0.000000000E+00  0.000000000E+00 -8.958456254E+01  8.958456254E+01  0.000000000E+00  0.00000E+00  9.000E+00
      25     1     1     2     0     0 -2.116508795E+02 -7.984927012E+01  3.257774370E+02  4.158460523E+02  1.250000000E+02  0.00000E+00  9.000E+00
      25     1     1     2     0     0  1.884404607E+02  1.045599041E+02  3.940513448E+02  4.662017194E+02  1.250000000E+02  0.00000E+00  9.000E+00
      21     1     1     2   512   501  2.321041875E+01 -2.471063401E+01  2.542846633E+01  4.237860158E+01  0.000000000E+00  0.00000E+00  9.000E+00
#rwgt            1           1   2.1256445137903906E-002           7      509696           0
</event>
<event>
      5   9999  3.79277E-02  4.15235E+01 -1.00000E+00  1.43840E-01
      21    -1     0     0   511   501  0.000000000E+00  0.000000000E+00  1.659788735E+02  1.659788735E+02  0.000000000E+00  0.00000E+00  9.000E+00
      21    -1     0     0   501   502  0.000000000E+00  0.000000000E+00 -1.265656991E+03  1.265656991E+03  0.000000000E+00  0.00000E+00  9.000E+00
      25     1     1     2     0     0 -7.517920866E+00  2.483127057E+00 -1.083422898E+03  1.090638739E+03  1.250000000E+02  0.00000E+00  9.000E+00
      25     1     1     2     0     0  4.080707543E+01  2.233692286E+01 -1.501369465E+02  2.008239483E+02  1.250000000E+02  0.00000E+00  9.000E+00
      21     1     1     2   511   502 -3.328915457E+01 -2.482004991E+01  1.338817267E+02  1.401731766E+02  6.325959759E-06  0.00000E+00  9.000E+00
#rwgt            1           1   1.7951578234247326E-002           7      509784           0
</event>
<event>
      5   9999  3.79277E-02  1.09947E+02 -1.00000E+00  1.22004E-01
      21    -1     0     0   502   501  0.000000000E+00  0.000000000E+00  7.523862890E+01  7.523862890E+01  0.000000000E+00  0.00000E+00  9.000E+00
      21    -1     0     0   501   512  0.000000000E+00  0.000000000E+00 -1.222081104E+03  1.222081104E+03  0.000000000E+00  0.00000E+00  9.000E+00
      25     1     1     2     0     0 -9.402494354E+01 -8.087901269E+01 -1.104780574E+02  2.078761792E+02  1.250000000E+02  0.00000E+00  9.000E+00
      25     1     1     2     0     0  2.576420119E+01  1.670689889E+02 -5.084571444E+02  5.502086048E+02  1.250000000E+02  0.00000E+00  9.000E+00
      21     1     1     2   502   512  6.826074235E+01 -8.618997620E+01 -5.279072731E+02  5.392349488E+02  1.078959322E-05  0.00000E+00  9.000E+00
#rwgt            1           1   4.8240313498585527E-002           7      509879           0
</event>
<event>
      5   9999  3.79277E-02  9.86324E+01 -1.00000E+00  1.24097E-01
      21    -1     0     0   502   501  0.000000000E+00  0.000000000E+00  3.677039856E+02  3.677039856E+02  0.000000000E+00  0.00000E+00  9.000E+00
       2    -1     0     0   501     0  0.000000000E+00  0.000000000E+00 -4.606025015E+02  4.606025015E+02  0.000000000E+00  0.00000E+00  9.000E+00
      25     1     1     2     0     0 -1.883120750E+00 -1.370320828E+02  1.030685129E+02  2.122014519E+02  1.250000000E+02  0.00000E+00  9.000E+00
      25     1     1     2     0     0 -9.552961031E+01  1.524954137E+02  1.439554552E+02  2.621620314E+02  1.250000000E+02  0.00000E+00  9.000E+00
       2     1     1     2   502     0  9.741273106E+01 -1.546333090E+01 -3.399224840E+02  3.539430038E+02  0.000000000E+00  0.00000E+00  9.000E+00
#rwgt            1           1   3.6846015808569201E-002           7      509963           0
</event>
<event>
      5   9999  3.79277E-02  9.83774E+01 -1.00000E+00  1.24148E-01
      21    -1     0     0   502   511  0.000000000E+00  0.000000000E+00  6.869289165E+02  6.869289165E+02  0.000000000E+00  0.00000E+00  9.000E+00
      21    -1     0     0   501   502  0.000000000E+00  0.000000000E+00 -2.256140293E+02  2.256140293E+02  0.000000000E+00  0.00000E+00  9.000E+00
      25     1     1     2     0     0  1.887731867E+01  5.673241411E+00 -1.769558705E+02  2.175475096E+02  1.250000000E+02  0.00000E+00  9.000E+00
      25     1     1     2     0     0  6.453285329E+01 -5.783512523E+01  2.352193095E+02  2.801116106E+02  1.250000000E+02  0.00000E+00  9.000E+00
      21     1     1     2   501   511 -8.341017196E+01  5.216188381E+01  4.030514481E+02  4.148838256E+02  5.394796609E-06  0.00000E+00  9.000E+00
#rwgt            1           1   3.6526576914903366E-002           7      510047           0
</event>
<event>
      5   9999  3.79277E-02  1.80804E+01 -1.00000E+00  1.70068E-01
      21    -1     0     0   502   512  0.000000000E+00  0.000000000E+00  9.014724580E+01  9.014724580E+01  0.000000000E+00  0.00000E+00  9.000E+00
      21    -1     0     0   501   502  0.000000000E+00  0.000000000E+00 -4.905422974E+02  4.905422974E+02  0.000000000E+00  0.00000E+00  9.000E+00
      25     1     1     2     0     0 -6.732018971E+01  1.272445725E+02 -1.783587156E+02  2.610747414E+02  1.250000000E+02  0.00000E+00  9.000E+00
      25     1     1     2     0     0  4.981889008E+01 -1.227053184E+02 -2.350473927E+02  2.973395261E+02  1.250000000E+02  0.00000E+00  9.000E+00
      21     1     1     2   501   512  1.750129962E+01 -4.539254101E+00  1.301105663E+01  2.227527578E+01  5.331201500E-07  0.00000E+00  9.000E+00
#rwgt            1           1   3.7862519804236411E-002           7      510220           0
</event>
<event>
      5   9999  3.79277E-02  1.16380E+01 -1.00000E+00  1.88438E-01
      21    -1     0     0   511   501  0.000000000E+00  0.000000000E+00  1.922932134E+01  1.922932134E+01  0.000000000E+00  0.00000E+00  9.000E+00
      21    -1     0     0   501   502  0.000000000E+00  0.000000000E+00 -2.540249487E+03  2.540249487E+03  0.000000000E+00  0.00000E+00  9.000E+00
      25     1     1     2     0     0  1.101286268E+02  3.039688492E+01 -2.013838301E+03  2.020945815E+03  1.250000000E+02  0.00000E+00  9.000E+00
      25     1     1     2     0     0 -1.039381340E+02 -2.054185564E+01 -4.961075447E+02  5.224679889E+02  1.250000000E+02  0.00000E+00  9.000E+00
      21     1     1     2   511   502 -6.190492858E+00 -9.855029281E+00 -1.107432024E+01  1.606500460E+01  1.192092896E-07  0.00000E+00  9.000E+00
#rwgt            1           1   7.6847605915678074E-002           7      510565           0
</event>
<event>
      5   9999  3.79277E-02  7.26017E+01 -1.00000E+00  1.30423E-01
      21    -1     0     0   502   501  0.000000000E+00  0.000000000E+00  7.347377194E+02  7.347377194E+02  0.000000000E+00  0.00000E+00  9.000E+00
       3    -1     0     0   501     0  0.000000000E+00  0.000000000E+00 -3.159821259E+02  3.159821259E+02  0.000000000E+00  0.00000E+00  9.000E+00
      25     1     1     2     0     0 -2.896639941E+02  1.137158608E+01  3.786023206E+02  4.929495507E+02  1.250000000E+02  0.00000E+00  9.000E+00
      25     1     1     2     0     0  2.242783668E+02 -4.292661946E+01  2.344601851E+02  3.503427734E+02  1.250000000E+02  0.00000E+00  9.000E+00
       3     1     1     2   502     0  6.538562733E+01  3.155503338E+01 -1.943069122E+02  2.074275212E+02  4.672030912E-06  0.00000E+00  9.000E+00
#rwgt            1           1   2.7059899982525268E-002           7      510828           0
</event>
<event>
      5   9999  3.79277E-02  1.03215E+02 -1.00000E+00  1.23213E-01
      21    -1     0     0   502   501  0.000000000E+00  0.000000000E+00  5.573670598E+01  5.573670598E+01  0.000000000E+00  0.00000E+00  9.000E+00
       1    -1     0     0   501     0  0.000000000E+00  0.000000000E+00 -2.152360844E+03  2.152360844E+03  0.000000000E+00  0.00000E+00  9.000E+00
      25     1     1     2     0     0 -5.963377649E+01 -3.337360617E+01 -9.205163830E+01  1.696127619E+02  1.250000000E+02  0.00000E+00  9.000E+00
      25     1     1     2     0     0 -1.875521970E+01  1.005194793E+02 -4.112539571E+02  4.418265963E+02  1.250000000E+02  0.00000E+00  9.000E+00
       1     1     1     2   502     0  7.838899619E+01 -6.714587314E+01 -1.593318543E+03  1.596658192E+03  0.000000000E+00  0.00000E+00  9.000E+00
#rwgt            1           1   4.5239982891107491E-002           7      510911           0
</event>
<event>
      5   9999  3.79277E-02  1.55943E+01 -1.00000E+00  1.75808E-01
      21    -1     0     0   502   501  0.000000000E+00  0.000000000E+00  3.307381277E+02  3.307381277E+02  0.000000000E+00  0.00000E+00  9.000E+00
       2    -1     0     0   501     0  0.000000000E+00  0.000000000E+00 -1.430207218E+03  1.430207218E+03  0.000000000E+00  0.00000E+00  9.000E+00
      25     1     1     2     0     0  3.700390363E+02  4.209898387E+01 -2.968475252E+02  4.923867038E+02  1.250000000E+02  0.00000E+00  9.000E+00
      25     1     1     2     0     0 -3.715202427E+02 -5.762278611E+01  6.439934882E+01  4.013974992E+02  1.250000000E+02  0.00000E+00  9.000E+00
       2     1     1     2   502     0  1.481206387E+00  1.552380224E+01 -8.670209140E+02  8.671611429E+02  1.525878906E-05  0.00000E+00  9.000E+00
#rwgt            1           1  0.38400715855618439                7      510970           0
</event>
<event>
      5   9999  3.79277E-02  1.25390E+02 -1.00000E+00  1.19564E-01
      21    -1     0     0   511   501  0.000000000E+00  0.000000000E+00  5.812173889E+02  5.812173889E+02  0.000000000E+00  0.00000E+00  9.000E+00
      21    -1     0     0   501   502  0.000000000E+00  0.000000000E+00 -3.129784358E+02  3.129784358E+02  0.000000000E+00  0.00000E+00  9.000E+00
      25     1     1     2     0     0 -1.962200436E+01  1.808767294E+02  1.296329196E+02  2.559904454E+02  1.250000000E+02  0.00000E+00  9.000E+00
      25     1     1     2     0     0  7.471541351E+01 -6.823889328E+01 -2.118586043E+02  2.659849766E+02  1.250000000E+02  0.00000E+00  9.000E+00
      21     1     1     2   511   502 -5.509340915E+01 -1.126378361E+02  3.504646378E+02  3.722204027E+02  3.814697266E-06  0.00000E+00  9.000E+00
#rwgt            2          11   1.8320391755681951E-003           7      511261           0
</event>
<event>
      5   9999  3.79277E-02  6.42868E+01 -1.00000E+00  1.33121E-01
      21    -1     0     0   502   501  0.000000000E+00  0.000000000E+00  1.919562822E+02  1.919562822E+02  0.000000000E+00  0.00000E+00  9.000E+00
       1    -1     0     0   501     0  0.000000000E+00  0.000000000E+00 -7.916040953E+02  7.916040953E+02  0.000000000E+00  0.00000E+00  9.000E+00
      25     1     1     2     0     0 -6.436300396E+01  1.414125978E+02  9.317530759E+00  1.996294955E+02  1.250000000E+02  0.00000E+00  9.000E+00
      25     1     1     2     0     0  1.143809035E+02 -1.817982911E+02 -9.514371155E+01  2.661032424E+02  1.250000000E+02  0.00000E+00  9.000E+00
       1     1     1     2   502     0 -5.001789959E+01  4.038569330E+01 -5.138216323E+02  5.178276396E+02  0.000000000E+00  0.00000E+00  9.000E+00
#rwgt            1           1   4.4224915693807001E-002           7      511281           0
</event>
<event>
      5   9999  3.79277E-02  5.36247E+01 -1.00000E+00  1.37363E-01
       1    -1     0     0   502     0  0.000000000E+00  0.000000000E+00  3.400401022E+02  3.400401022E+02  0.000000000E+00  0.00000E+00  9.000E+00
      21    -1     0     0   501   502  0.000000000E+00  0.000000000E+00 -2.219752369E+02  2.219752369E+02  0.000000000E+00  0.00000E+00  9.000E+00
      25     1     1     2     0     0 -4.303184803E+01 -1.475673411E+02  1.482193229E+01  1.986769987E+02  1.250000000E+02  0.00000E+00  9.000E+00
      25     1     1     2     0     0 -6.285642207E+00  1.686242121E+02 -3.696512607E+01  2.132253614E+02  1.250000000E+02  0.00000E+00  9.000E+00
       1     1     1     2   501     0  4.931749024E+01 -2.105687099E+01  1.402080591E+02  1.501129791E+02  0.000000000E+00  0.00000E+00  9.000E+00
#rwgt            1           1   3.6256199194570050E-002           7      511485           0
</event>
<event>
      5   9999  3.79277E-02  1.51805E+01 -1.00000E+00  1.76896E-01
      21    -1     0     0   511   501  0.000000000E+00  0.000000000E+00  5.523426675E+02  5.523426675E+02  0.000000000E+00  0.00000E+00  9.000E+00
      21    -1     0     0   501   502  0.000000000E+00  0.000000000E+00 -1.692191518E+02  1.692191518E+02  0.000000000E+00  0.00000E+00  9.000E+00
      25     1     1     2     0     0 -1.399615390E+01  5.282453755E+01  2.688238786E+02  3.014591213E+02  1.250000000E+02  0.00000E+00  9.000E+00
      25     1     1     2     0     0 -1.031461178E+00 -5.497355049E+01 -1.221190087E+02  1.831971819E+02  1.250000000E+02  0.00000E+00  9.000E+00
      21     1     1     2   511   502  1.502761507E+01  2.149012933E+00  2.364186458E+02  2.369055161E+02  2.697398305E-06  0.00000E+00  9.000E+00
#rwgt            1           1   3.1393912577897400E-002           7      511648           0
</event>
<event>
      5   9999  3.79277E-02  5.69894E+01 -1.00000E+00  1.35909E-01
      21    -1     0     0   502   501  0.000000000E+00  0.000000000E+00  5.699890691E+02  5.699890691E+02  0.000000000E+00  0.00000E+00  9.000E+00
      21    -1     0     0   512   502  0.000000000E+00  0.000000000E+00 -1.260094245E+02  1.260094245E+02  0.000000000E+00  0.00000E+00  9.000E+00
      25     1     1     2     0     0  1.866490723E+01 -2.238835103E+01  4.539062763E+02  4.717049128E+02  1.250000000E+02  0.00000E+00  9.000E+00
      25     1     1     2     0     0 -7.117317816E+01  2.372057603E-01  3.916093102E+01  1.490780201E+02  1.250000000E+02  0.00000E+00  9.000E+00
      21     1     1     2   512   501  5.250827093E+01  2.215114527E+01 -4.908756276E+01  7.521556069E+01  1.168007728E-06  0.00000E+00  9.000E+00
#rwgt            1           1   5.0142070343619151E-002           7      511932           0
</event>
<event>
      5   9999  3.79277E-02  3.73977E+01 -1.00000E+00  1.46676E-01
      21    -1     0     0   502   501  0.000000000E+00  0.000000000E+00  3.560092659E+02  3.560092659E+02  0.000000000E+00  0.00000E+00  9.000E+00
      21    -1     0     0   511   502  0.000000000E+00  0.000000000E+00 -1.144432374E+02  1.144432374E+02  0.000000000E+00  0.00000E+00  9.000E+00
      25     1     1     2     0     0 -1.689722203E+00  1.221536720E+02  5.902771766E+01  1.844821026E+02  1.250000000E+02  0.00000E+00  9.000E+00
      25     1     1     2     0     0 -3.564667184E+01 -1.200140132E+02  1.728500378E+02  2.473381979E+02  1.250000000E+02  0.00000E+00  9.000E+00
      21     1     1     2   511   501  3.733639404E+01 -2.139658845E+00  9.688273022E+00  3.863220282E+01  6.307962682E-07  0.00000E+00  9.000E+00
#rwgt            1           1   2.6446036609221572E-002           7      512069           0
</event>
<event>
      5   9999  3.79277E-02  5.66404E+01 -1.00000E+00  1.36054E-01
      21    -1     0     0   502   512  0.000000000E+00  0.000000000E+00  1.404267985E+02  1.404267985E+02  0.000000000E+00  0.00000E+00  9.000E+00
      21    -1     0     0   501   502  0.000000000E+00  0.000000000E+00 -7.782839756E+02  7.782839756E+02  0.000000000E+00  0.00000E+00  9.000E+00
      25     1     1     2     0     0  2.040175980E+02 -8.459662049E+01 -3.614828437E+02  4.416725198E+02  1.250000000E+02  0.00000E+00  9.000E+00
      25     1     1     2     0     0 -1.679341141E+02  1.282556960E+02 -3.215683183E+02  4.045770305E+02  1.250000000E+02  0.00000E+00  9.000E+00
      21     1     1     2   501   512 -3.608348383E+01 -4.365907549E+01  4.519398497E+01  7.246122380E+01  1.907348633E-06  0.00000E+00  9.000E+00
#rwgt            1           1   3.7048752419645080E-002           7      512155           0
</event>
<event>
      5   9999  3.79277E-02  2.38777E+01 -1.00000E+00  1.60260E-01
      21    -1     0     0   502   501  0.000000000E+00  0.000000000E+00  5.067244086E+01  5.067244086E+01  0.000000000E+00  0.00000E+00  9.000E+00
      21    -1     0     0   501   511  0.000000000E+00  0.000000000E+00 -8.619863776E+02  8.619863776E+02  0.000000000E+00  0.00000E+00  9.000E+00
      25     1     1     2     0     0 -2.653612632E+01 -9.075060526E+01 -2.904703192E+02  3.300573355E+02  1.250000000E+02  0.00000E+00  9.000E+00
      25     1     1     2     0     0  4.558198692E+01  7.634926505E+01 -1.625195714E+02  2.234827485E+02  1.250000000E+02  0.00000E+00  9.000E+00
      21     1     1     2   502   511 -1.904586060E+01  1.440134022E+01 -3.583240461E+02  3.591187345E+02  3.814697266E-06  0.00000E+00  9.000E+00
#rwgt            1           1   4.0895026034722795E-002           7      512316           0
</event>
<event>
      5   9999  3.79277E-02  1.83449E+01 -1.00000E+00  1.69525E-01
      21    -1     0     0   512   501  0.000000000E+00  0.000000000E+00  5.379791124E+02  5.379791124E+02  0.000000000E+00  0.00000E+00  9.000E+00
      21    -1     0     0   501   502  0.000000000E+00  0.000000000E+00 -9.993863430E+01  9.993863430E+01  0.000000000E+00  0.00000E+00  9.000E+00
      25     1     1     2     0     0  9.045178691E+01 -2.979351310E+01 -6.924788134E+00  1.572963187E+02  1.250000000E+02  0.00000E+00  9.000E+00
      25     1     1     2     0     0 -9.679846232E+01  1.258144284E+01  4.243855390E+02  4.530522274E+02  1.250000000E+02  0.00000E+00  9.000E+00
      21     1     1     2   512   502  6.346675403E+00  1.721207026E+01  2.057972723E+01  2.756920065E+01  4.768371582E-07  0.00000E+00  9.000E+00
#rwgt            1           1   3.8408973855948790E-002           7      512460           0
</event>
<event>
      5   9999  3.79277E-02  1.84584E+02 -1.00000E+00  1.12931E-01
      21    -1     0     0   502   501  0.000000000E+00  0.000000000E+00  2.699673325E+02  2.699673325E+02  0.000000000E+00  0.00000E+00  9.000E+00
      21    -1     0     0   511   502  0.000000000E+00  0.000000000E+00 -4.351655136E+02  4.351655136E+02  0.000000000E+00  0.00000E+00  9.000E+00
      25     1     1     2     0     0 -8.341281412E+01  2.313116590E+02  6.865831259E+01  2.842564776E+02  1.250000000E+02  0.00000E+00  9.000E+00
      25     1     1     2     0     0  9.533348701E+01 -4.711272277E+01 -1.276996885E+02  2.079430038E+02  1.250000000E+02  0.00000E+00  9.000E+00
      21     1     1     2   511   501 -1.192067289E+01 -1.841989362E+02 -1.061568052E+02  2.129333648E+02  3.568322551E-06  0.00000E+00  9.000E+00
#rwgt            1           1   7.4988910787233035E-002           7      512755           0
</event>
<event>
      5   9999  3.79277E-02  1.06389E+02 -1.00000E+00  1.22630E-01
      -2    -1     0     0     0   501  0.000000000E+00  0.000000000E+00  7.995970070E+02  7.995970070E+02  0.000000000E+00  0.00000E+00  9.000E+00
      21    -1     0     0   501   502  0.000000000E+00  0.000000000E+00 -1.985055790E+02  1.985055790E+02  0.000000000E+00  0.00000E+00  9.000E+00
      25     1     1     2     0     0  9.718724397E+00  2.066279488E+02  1.450543457E+02  2.818782114E+02  1.250000000E+02  0.00000E+00  9.000E+00
      25     1     1     2     0     0  9.666620966E+01 -2.057213060E+02  1.206661915E+01  2.596848380E+02  1.250000000E+02  0.00000E+00  9.000E+00
      -2     1     1     2     0   502 -1.063849341E+02 -9.066428881E-01  4.439704633E+02  4.565395366E+02  5.394796609E-06  0.00000E+00  9.000E+00
#rwgt            1           1   2.8929934351265368E-002           7      512869           0
</event>
<event>
      5   9999  3.79277E-02  1.43047E+02 -1.00000E+00  1.17216E-01
      21    -1     0     0   502   501  0.000000000E+00  0.000000000E+00  3.191317279E+02  3.191317279E+02  0.000000000E+00  0.00000E+00  9.000E+00
      21    -1     0     0   511   502  0.000000000E+00  0.000000000E+00 -2.499905831E+02  2.499905831E+02  0.000000000E+00  0.00000E+00  9.000E+00
      25     1     1     2     0     0 -4.071644058E+01 -8.629017846E+01  3.665328171E+01  1.614691503E+02  1.250000000E+02  0.00000E+00  9.000E+00
      25     1     1     2     0     0  3.195602378E+01  2.290689885E+02  2.972037768E+01  2.645790804E+02  1.250000000E+02  0.00000E+00  9.000E+00
      21     1     1     2   511   501  8.760416798E+00 -1.427788100E+02  2.767485490E+00  1.430740803E+02  2.180055670E-06  0.00000E+00  9.000E+00
#rwgt            2          11   2.2001927294995581E-003           7      513108           0
</event>
<event>
      5   9999  3.79277E-02  1.36341E+01 -1.00000E+00  1.81381E-01
      21    -1     0     0   502   512  0.000000000E+00  0.000000000E+00  8.957526332E+01  8.957526332E+01  0.000000000E+00  0.00000E+00  9.000E+00
      21    -1     0     0   501   502  0.000000000E+00  0.000000000E+00 -7.673158266E+02  7.673158266E+02  0.000000000E+00  0.00000E+00  9.000E+00
      25     1     1     2     0     0  1.391775845E+02  3.552766747E+01 -5.347934791E+02  5.676809672E+02  1.250000000E+02  0.00000E+00  9.000E+00
      25     1     1     2     0     0 -1.258017479E+02 -3.288642641E+01 -1.768898807E+02  2.526314049E+02  1.250000000E+02  0.00000E+00  9.000E+00
      21     1     1     2   501   512 -1.337583656E+01 -2.641241058E+00  3.394279660E+01  3.657871785E+01  6.743495762E-07  0.00000E+00  9.000E+00
#rwgt            1           1   4.4899501032348382E-002           7      513188           0
</event>
<event>
      5   9999  3.79277E-02  1.27042E+02 -1.00000E+00  1.19326E-01
      21    -1     0     0   502   501  0.000000000E+00  0.000000000E+00  1.567798661E+02  1.567798661E+02  0.000000000E+00  0.00000E+00  9.000E+00
       2    -1     0     0   501     0  0.000000000E+00  0.000000000E+00 -7.948790082E+02  7.948790082E+02  0.000000000E+00  0.00000E+00  9.000E+00
      25     1     1     2     0     0  1.032072466E+02 -1.638615127E+02 -4.885475670E+02  5.401907592E+02  1.250000000E+02  0.00000E+00  9.000E+00
      25     1     1     2     0     0  4.107498364E+00  9.586646871E+01  5.817048709E+01  1.679763583E+02  1.250000000E+02  0.00000E+00  9.000E+00
       2     1     1     2   502     0 -1.073147450E+02  6.799504400E+01 -2.077220623E+02  2.434917569E+02  2.697398305E-06  0.00000E+00  9.000E+00
#rwgt            1           1   5.6581465076911759E-002           7      513464           0
</event>
<event>
      5   9999  3.79277E-02  3.82332E+01 -1.00000E+00  1.46067E-01
       1    -1     0     0   502     0  0.000000000E+00  0.000000000E+00  1.132387303E+03  1.132387303E+03  0.000000000E+00  0.00000E+00  9.000E+00
      21    -1     0     0   501   502  0.000000000E+00  0.000000000E+00 -8.429960996E+01  8.429960996E+01  0.000000000E+00  0.00000E+00  9.000E+00
      25     1     1     2     0     0  4.884334565E+01  1.137015526E+02  2.499975210E+02  3.056754422E+02  1.250000000E+02  0.00000E+00  9.000E+00
      25     1     1     2     0     0 -5.236961183E+01 -7.563128666E+01  5.161775660E+01  1.635605715E+02  1.250000000E+02  0.00000E+00  9.000E+00
       1     1     1     2   501     0  3.526266180E+00 -3.807026591E+01  7.464724157E+02  7.474508994E+02  1.078959322E-05  0.00000E+00  9.000E+00
#rwgt            1           1   4.8575534806293612E-002           7      513505           0
</event>
<event>
      5   9999  3.79277E-02  3.85735E+01 -1.00000E+00  1.45825E-01
       1    -1     0     0   502     0  0.000000000E+00  0.000000000E+00  4.028881236E+02  4.028881236E+02  0.000000000E+00  0.00000E+00  9.000E+00
      21    -1     0     0   501   502  0.000000000E+00  0.000000000E+00 -1.329249205E+02  1.329249205E+02  0.000000000E+00  0.00000E+00  9.000E+00
      25     1     1     2     0     0 -1.014046839E+01  1.587217363E+02  1.484516337E+02  2.509149382E+02  1.250000000E+02  0.00000E+00  9.000E+00
      25     1     1     2     0     0 -5.979809597E+00 -1.236781893E+02  2.094601191E+01  1.771885663E+02  1.250000000E+02  0.00000E+00  9.000E+00
       1     1     1     2   501     0  1.612027799E+01 -3.504354696E+01  1.005655576E+02  1.077095396E+02  1.348699152E-06  0.00000E+00  9.000E+00
#rwgt            1           1   8.0031339372939894E-002           7      513607           0
</event>
<event>
      5   9999  3.79277E-02  3.57660E+01 -1.00000E+00  1.47919E-01
      21    -1     0     0   502   501  0.000000000E+00  0.000000000E+00  3.040521020E+01  3.040521020E+01  0.000000000E+00  0.00000E+00  9.000E+00
       2    -1     0     0   501     0  0.000000000E+00  0.000000000E+00 -1.634800514E+03  1.634800514E+03  0.000000000E+00  0.00000E+00  9.000E+00
      25     1     1     2     0     0  5.354611898E+01  4.039250087E+01 -7.927430296E+02  8.053354903E+02  1.250000000E+02  0.00000E+00  9.000E+00
      25     1     1     2     0     0 -5.890645464E+01 -5.030497341E+00 -1.789073186E+02  2.261152470E+02  1.250000000E+02  0.00000E+00  9.000E+00
       2     1     1     2   502     0  5.360335653E+00 -3.536200353E+01 -6.327449556E+02  6.337549869E+02  7.629394531E-06  0.00000E+00  9.000E+00
#rwgt            1           1   1.5745308522144164E-002           7      513720           0
</event>
<event>
      5   9999  3.79277E-02  1.27718E+01 -1.00000E+00  1.84226E-01
      21    -1     0     0   502   501  0.000000000E+00  0.000000000E+00  5.706433504E+02  5.706433504E+02  0.000000000E+00  0.00000E+00  9.000E+00
      21    -1     0     0   501   511  0.000000000E+00  0.000000000E+00 -1.292404218E+02  1.292404218E+02  0.000000000E+00  0.00000E+00  9.000E+00
      25     1     1     2     0     0  1.370462295E+02  9.729071913E+01  4.264843625E+02  4.751432042E+02  1.250000000E+02  0.00000E+00  9.000E+00
      25     1     1     2     0     0 -1.449372562E+02 -8.724833985E+01  8.667956678E+00  2.105212923E+02  1.250000000E+02  0.00000E+00  9.000E+00
      21     1     1     2   502   511  7.891026758E+00 -1.004237928E+01  6.250609451E+00  1.421927577E+01  1.460009660E-07  0.00000E+00  9.000E+00
#rwgt            1           1   4.1055107532582555E-002           7      513852           0
</event>
<event>
      5   9999  3.79277E-02  7.44683E+01 -1.00000E+00  1.29874E-01
      21    -1     0     0   502   501  0.000000000E+00  0.000000000E+00  9.538423883E+01  9.538423883E+01  0.000000000E+00  0.00000E+00  9.000E+00
      21    -1     0     0   501   512  0.000000000E+00  0.000000000E+00 -8.348314234E+02  8.348314234E+02  0.000000000E+00  0.00000E+00  9.000E+00
      25     1     1     2     0     0  1.850211139E+02 -3.220403711E+01 -1.284057774E+02  2.595822726E+02  1.250000000E+02  0.00000E+00  9.000E+00
      25     1     1     2     0     0 -1.124719719E+02  1.540663110E+01 -2.479614879E+02  2.999953470E+02  1.250000000E+02  0.00000E+00  9.000E+00
      21     1     1     2   502   512 -7.254914199E+01  1.679740601E+01 -3.630799193E+02  3.706380426E+02  7.629394531E-06  0.00000E+00  9.000E+00
#rwgt            1           1   3.1824133163446351E-002           7      514196           0
</event>
<event>
      5   9999  3.79277E-02  4.40931E+01 -1.00000E+00  1.42264E-01
       1    -1     0     0   502     0  0.000000000E+00  0.000000000E+00  1.110809201E+02  1.110809201E+02  0.000000000E+00  0.00000E+00  9.000E+00
      21    -1     0     0   501   502  0.000000000E+00  0.000000000E+00 -7.536009583E+02  7.536009583E+02  0.000000000E+00  0.00000E+00  9.000E+00
      25     1     1     2     0     0  7.952040733E+01 -9.446456870E+01 -1.621452208E+02  2.390881063E+02  1.250000000E+02  0.00000E+00  9.000E+00
      25     1     1     2     0     0 -9.840787606E+01  5.462151708E+01 -5.318505464E+02  5.578150446E+02  1.250000000E+02  0.00000E+00  9.000E+00
       1     1     1     2   501     0  1.888746873E+01  3.984305162E+01  5.147572907E+01  6.777872764E+01  1.348699152E-06  0.00000E+00  9.000E+00
#rwgt            1           1   3.3788674348596580E-002           7      514261           0
</event>
<event>
      5   9999  3.79277E-02  2.90984E+01 -1.00000E+00  1.53966E-01
      21    -1     0     0   502   501  0.000000000E+00  0.000000000E+00  3.569620428E+02  3.569620428E+02  0.000000000E+00  0.00000E+00  9.000E+00
      21    -1     0     0   511   502  0.000000000E+00  0.000000000E+00 -1.952894464E+02  1.952894464E+02  0.000000000E+00  0.00000E+00  9.000E+00
      25     1     1     2     0     0  1.018551032E+02 -1.505866676E+02  2.220779048E+02  3.130405762E+02  1.250000000E+02  0.00000E+00  9.000E+00
      25     1     1     2     0     0 -8.616924522E+01  1.260781247E+02 -3.467912905E+01  2.003708420E+02  1.250000000E+02  0.00000E+00  9.000E+00
      21     1     1     2   511   501 -1.568585794E+01  2.450854296E+01 -2.572617940E+01  3.884007111E+01  3.371747881E-07  0.00000E+00  9.000E+00
#rwgt            1           1  0.21401426645886401                7      514391           0
</event>
<event>
      5   9999  3.79277E-02  6.82123E+01 -1.00000E+00  1.31792E-01
      21    -1     0     0   502   512  0.000000000E+00  0.000000000E+00  4.644657017E+02  4.644657017E+02  0.000000000E+00  0.00000E+00  9.000E+00
      21    -1     0     0   501   502  0.000000000E+00  0.000000000E+00 -1.210042492E+02  1.210042492E+02  0.000000000E+00  0.00000E+00  9.000E+00
      25     1     1     2     0     0  1.210012264E+02 -8.014720451E+01  2.889903989E+01  1.937137726E+02  1.250000000E+02  0.00000E+00  9.000E+00
      25     1     1     2     0     0 -5.292566190E+01  8.446423353E+01  1.790221651E+02  2.400193076E+02  1.250000000E+02  0.00000E+00  9.000E+00
      21     1     1     2   501   512 -6.807556449E+01 -4.317029023E+00  1.355402476E+02  1.517368707E+02  2.697398305E-06  0.00000E+00  9.000E+00
#rwgt            1           1   3.0917507715281855E-002           7      514684           0
</event>
<event>
      5   9999  3.79277E-02  1.22700E+02 -1.00000E+00  1.19960E-01
      21    -1     0     0   502   501  0.000000000E+00  0.000000000E+00  4.900515722E+02  4.900515722E+02  0.000000000E+00  0.00000E+00  9.000E+00
      -5    -1     0     0     0   502  0.000000000E+00  0.000000000E+00 -6.153891746E+02  6.153891746E+02  0.000000000E+00  0.00000E+00  9.000E+00
      25     1     1     2     0     0  7.107745971E+01 -3.353372819E+01  2.532762618E+01  1.498098957E+02  1.250000000E+02  0.00000E+00  9.000E+00
      25     1     1     2     0     0 -1.847965824E+02 -1.254468226E+01  3.636851277E+02  4.268477691E+02  1.250000000E+02  0.00000E+00  9.000E+00
      -5     1     1     2     0   501  1.137191227E+02  4.607841046E+01 -5.143503562E+02  5.287830819E+02  1.078959322E-05  0.00000E+00  9.000E+00
#rwgt            1           1   4.0951431252398432E-002           7      514781           0
</event>
</LesHouchesEvents>
 #Random number generator exit values:            7        514822             0
