<LesHouchesEvents version="3.0">
<!--
file generated with POWHEG-BOX-V2
Input file powheg.input contained:
! ggHH production parameters:
mtdep 2              ! 0: Higgs effective field theory (HEFT)

hmass 125            ! Higgs boson mass
topmass 173          ! top quark mass (THIS VALUE IS HARD CODED IN THE VIRTUAL
hdecaymode -1        ! PDG code for Higgs boson decay products (it affects only the SMC)
!                      allowed values are:
!                      0 all decay channels open
!                      1-6 d dbar, u ubar,..., t tbar (as in HERWIG)
!                      7-9 e+ e-, mu+ mu-, tau+ tau-
!                      10  W+W-
!                      11  ZZ
!                      12  gamma gamma
!                      -1  all decay channels closed

! general parameters:
numevts  3000        ! number of events to be generated
ih1         1        ! hadron 1 (1 for protons, -1 for antiprotons)
ih2         1        ! hadron 2 (1 for protons, -1 for antiprotons)
ebeam1 7000d0        ! energy of beam 1
ebeam2 7000d0        ! energy of beam 2
! To be set only if using LHA pdfs
lhans1 90200         ! pdf set for hadron 1 (LHA numbering)
lhans2 90200 	     ! pdf set for hadron 2 (LHA numbering)
! To be set only if using internal mlm pdf
# ndns1 131          ! pdf set for hadron 1 (mlm numbering)
# ndns2 131          ! pdf set for hadron 2 (mlm numbering)
! To be set only if using different pdf sets for the two incoming hadrons
! QCDLambda5 0.25    ! for not equal pdf sets

! Parameters to allow or not the use of stored data
use-old-grid    1    ! if 1 use old grid if file pwggrids.dat is present (<> 1 regenerate)
use-old-ubound  1    ! if 1 use norm of upper bounding function stored in pwgubound.dat, if present;
!
ncall1  10000        ! number of calls for initializing the integration grid
itmx1       3        ! number of iterations for initializing the integration grid
ncall2  10000        ! number of calls for computing the integral and finding upper bound
itmx2       3        ! number of iterations for computing the integral and finding upper bound
foldcsi     1        ! number of folds on csi integration
foldy       1        ! number of folds on  y  integration
foldphi     1        ! number of folds on phi integration
nubound 10000        ! number of bbarra calls to setup norm of upper bounding function
# icsimax   1        ! <= 100, number of csi subdivision when computing the upper bounds
# iymax     1        ! <= 100, number of y subdivision when computing the upper bounds
# xupbound 2d0       ! increase upper bound for radiation generation

! OPTIONAL PARAMETERS

! scale settings:
#fixedscale   1      ! (dafault 0) Use muren = mufac = 2*m_H
facscfact   1d0      ! (default 1d0) fac scale factor: mufact = muref * facscfact
renscfact   1d0      ! (default 1d0) ren scale factor: muren  = muref * renscfact

! Born, plots and powheg strategy:
#bornonly         1  ! (default 0) if 1 do Born only
# testplots 1
fastbtlbound      1  ! fast evaluation of Btilde upper bounds
storemintupb      1  ! store function calls in binary file for more precise generation
ubexcess_correct  1  ! corrects for error in upper bound estimate
storeinfo_rwgt    1  ! store info to allow for reweighting
softtest          0  ! no check of the soft limit in the real
colltest          0  ! no check of the collinear limit in the real

! PARAMETERS needed for ggHH
hdamp           250

! PARAMETERS for parallel runnning
! -- non parallel (for testing purposes only)
#iseed    547        !  Start the random number generator with seed iseed
#rand1     0         !  skipping  rand2*100000000+rand1 numbers.
#rand2     0         !  (see RM48 short writeup in CERNLIB)

! -- parallel
manyseeds 1          ! Used to perform multiple runs with different random
                     ! seeds in the same directory.
                     ! If set to 1, the program asks for an integer j;
                     ! The file pwgseeds.dat at line j is read, and the
                     ! integer at line j is used to initialize the random
                     ! sequence for the generation of the event.
                     ! The event file is called pwgevents-'j'.lhe
parallelstage 4
xgriditeration 1
maxseeds    1000

! PARAMETERS for reweighting
#rwl_file 'reweight_setup.xml'


! PARAMETERS for Pythia8
#py8tune  xxx
#py8hepmc 1
#py8nohad 1
#py8nompi 1
End of powheg.input content
PDF package: lha
 Random number generator initialized with:            9             0             0
-->
<init>
     2212     2212  7.00000E+03  7.00000E+03     -1     -1     -1     -1     -4      1
  3.38081E-02  5.61572E-05  1.00000E+00   9999
</init>
<event>
      5   9999  3.79277E-02  4.67312E+01 -1.00000E+00  1.40772E-01
      21    -1     0     0   511   501  0.000000000E+00  0.000000000E+00  1.556634744E+02  1.556634744E+02  0.000000000E+00  0.00000E+00  9.000E+00
      21    -1     0     0   501   502  0.000000000E+00  0.000000000E+00 -4.431647602E+02  4.431647602E+02  0.000000000E+00  0.00000E+00  9.000E+00
      25     1     1     2     0     0 -1.826369186E+02  5.867247034E+01 -1.172243662E+02  2.572260773E+02  1.250000000E+02  0.00000E+00  9.000E+00
      25     1     1     2     0     0  2.076036037E+02 -1.916966075E+01 -1.666571332E+02  2.947309488E+02  1.250000000E+02  0.00000E+00  9.000E+00
      21     1     1     2   511   502 -2.496668510E+01 -3.950280960E+01 -3.619786423E+00  4.687120848E+01  1.132488251E-06  0.00000E+00  9.000E+00
#rwgt            1           1   8.4680470068761879E-002           9         346           0
</event>
<event>
      5   9999  3.79277E-02  2.88368E+01 -1.00000E+00  1.54242E-01
      21    -1     0     0   502   501  0.000000000E+00  0.000000000E+00  1.218892946E+02  1.218892946E+02  0.000000000E+00  0.00000E+00  9.000E+00
       2    -1     0     0   501     0  0.000000000E+00  0.000000000E+00 -1.802946937E+03  1.802946937E+03  0.000000000E+00  0.00000E+00  9.000E+00
      25     1     1     2     0     0  5.639716732E+01  5.119319745E+01  6.908883421E+01  1.618630624E+02  1.250000000E+02  0.00000E+00  9.000E+00
      25     1     1     2     0     0 -4.958224895E+01 -2.317327901E+01 -7.437917805E+02  7.562054040E+02  1.250000000E+02  0.00000E+00  9.000E+00
       2     1     1     2   502     0 -6.814918373E+00 -2.801991845E+01 -1.006354697E+03  1.006767766E+03  0.000000000E+00  0.00000E+00  9.000E+00
#rwgt            1           1   4.9934906360615712E-002           9         388           0
</event>
<event>
      5   9999  3.79277E-02  6.50378E+01 -1.00000E+00  1.32859E-01
       2    -1     0     0   502     0  0.000000000E+00  0.000000000E+00  2.496804551E+03  2.496804551E+03  0.000000000E+00  0.00000E+00  9.000E+00
      21    -1     0     0   501   502  0.000000000E+00  0.000000000E+00 -3.213318731E+01  3.213318731E+01  0.000000000E+00  0.00000E+00  9.000E+00
      25     1     1     2     0     0  1.775405762E+02 -2.895548726E+01  1.743984212E+03  1.757687403E+03  1.250000000E+02  0.00000E+00  9.000E+00
      25     1     1     2     0     0 -1.272193123E+02 -1.224744730E+01  3.311813349E+02  3.763520027E+02  1.250000000E+02  0.00000E+00  9.000E+00
       2     1     1     2   501     0 -5.032126387E+01  4.120293456E+01  3.895058171E+02  3.948983324E+02  5.394796609E-06  0.00000E+00  9.000E+00
#rwgt            2          18   9.8040440218283590E-004           9         539           0
</event>
<event>
      5   9999  3.79277E-02  8.38782E+00 -1.00000E+00  2.05018E-01
      21    -1     0     0   511   501  0.000000000E+00  0.000000000E+00  3.209173287E+02  3.209173287E+02  0.000000000E+00  0.00000E+00  9.000E+00
      21    -1     0     0   501   502  0.000000000E+00  0.000000000E+00 -1.294629523E+02  1.294629523E+02  0.000000000E+00  0.00000E+00  9.000E+00
      25     1     1     2     0     0  7.429244490E+01 -1.155397020E+02  1.611848757E+02  2.459153396E+02  1.250000000E+02  0.00000E+00  9.000E+00
      25     1     1     2     0     0 -7.136847513E+01  1.234013713E+02  1.918343379E+01  1.905632751E+02  1.250000000E+02  0.00000E+00  9.000E+00
      21     1     1     2   511   502 -2.923969765E+00 -7.861669366E+00  1.108606689E+01  1.390166621E+01  2.384185791E-07  0.00000E+00  9.000E+00
#rwgt            1           1   3.1517603982215842E-002           9         633           0
</event>
<event>
      5   9999  3.79277E-02  9.39429E+01 -1.00000E+00  1.25061E-01
      21    -1     0     0   502   501  0.000000000E+00  0.000000000E+00  4.683943792E+02  4.683943792E+02  0.000000000E+00  0.00000E+00  9.000E+00
      21    -1     0     0   512   502  0.000000000E+00  0.000000000E+00 -2.244783238E+02  2.244783238E+02  0.000000000E+00  0.00000E+00  9.000E+00
      25     1     1     2     0     0  1.415051708E+02 -1.541380407E+02  1.465215275E+02  2.843867209E+02  1.250000000E+02  0.00000E+00  9.000E+00
      25     1     1     2     0     0 -2.275771530E+02  1.164965654E+02  1.246260952E+02  3.106758341E+02  1.250000000E+02  0.00000E+00  9.000E+00
      21     1     1     2   512   501  8.607198220E+01  3.764147538E+01 -2.723156726E+01  9.781014796E+01  1.581489940E-06  0.00000E+00  9.000E+00
#rwgt            1           1   3.2215923525345302E-002           9         970           0
</event>
<event>
      5   9999  3.79277E-02  8.41363E+01 -1.00000E+00  1.27299E-01
      21    -1     0     0   502   501  0.000000000E+00  0.000000000E+00  1.864993031E+03  1.864993031E+03  0.000000000E+00  0.00000E+00  9.000E+00
       2    -1     0     0   501     0  0.000000000E+00  0.000000000E+00 -1.130290475E+02  1.130290475E+02  0.000000000E+00  0.00000E+00  9.000E+00
      25     1     1     2     0     0 -3.017093342E+02 -5.529246614E+01  8.238772894E+02  8.879665349E+02  1.250000000E+02  0.00000E+00  9.000E+00
      25     1     1     2     0     0  2.637093784E+02 -1.977360961E+01  9.573011263E+02  1.000991548E+03  1.250000000E+02  0.00000E+00  9.000E+00
       2     1     1     2   502     0  3.799995572E+01  7.506607574E+01 -2.921443209E+01  8.906399612E+01  2.132480600E-06  0.00000E+00  9.000E+00
#rwgt            1           1   1.0365752370005175E-002           9        1238           0
</event>
<event>
      5   9999  3.79277E-02  8.42365E+01 -1.00000E+00  1.27274E-01
       1    -1     0     0   502     0  0.000000000E+00  0.000000000E+00  2.015569672E+03  2.015569672E+03  0.000000000E+00  0.00000E+00  9.000E+00
      21    -1     0     0   501   502  0.000000000E+00  0.000000000E+00 -1.011951851E+02  1.011951851E+02  0.000000000E+00  0.00000E+00  9.000E+00
      25     1     1     2     0     0 -6.582041871E+01 -1.148002266E+02  6.942683222E+01  1.948242915E+02  1.250000000E+02  0.00000E+00  9.000E+00
      25     1     1     2     0     0  1.439354329E+02  8.327513551E+01  2.520292284E+02  3.267964030E+02  1.250000000E+02  0.00000E+00  9.000E+00
       1     1     1     2   501     0 -7.811501417E+01  3.152509108E+01  1.592918426E+03  1.595144163E+03  2.157918644E-05  0.00000E+00  9.000E+00
#rwgt            1           1   4.6621850454358772E-002           9        1301           0
</event>
<event>
      5   9999  3.79277E-02  2.84980E+01 -1.00000E+00  1.54606E-01
      21    -1     0     0   502   501  0.000000000E+00  0.000000000E+00  4.303525901E+02  4.303525901E+02  0.000000000E+00  0.00000E+00  9.000E+00
      21    -1     0     0   501   511  0.000000000E+00  0.000000000E+00 -1.347692463E+02  1.347692463E+02  0.000000000E+00  0.00000E+00  9.000E+00
      25     1     1     2     0     0 -6.518693356E+01  9.694657427E+01 -3.093346628E+01  1.738673457E+02  1.250000000E+02  0.00000E+00  9.000E+00
      25     1     1     2     0     0  4.397127659E+01 -1.159736885E+02  3.142592124E+02  3.602321781E+02  1.250000000E+02  0.00000E+00  9.000E+00
      21     1     1     2   502   511  2.121565698E+01  1.902711423E+01  1.225759765E+01  3.102231257E+01  5.057621821E-07  0.00000E+00  9.000E+00
#rwgt            1           1   4.3833082041924348E-002           9        1360           0
</event>
<event>
      5   9999  3.79277E-02  2.14191E+02 -1.00000E+00  1.10575E-01
      21    -1     0     0   502   512  0.000000000E+00  0.000000000E+00  4.559343048E+02  4.559343048E+02  0.000000000E+00  0.00000E+00  9.000E+00
      21    -1     0     0   501   502  0.000000000E+00  0.000000000E+00 -4.531442829E+02  4.531442829E+02  0.000000000E+00  0.00000E+00  9.000E+00
      25     1     1     2     0     0 -1.347251781E+02 -1.849978530E+01  2.445002539E+02  3.064286048E+02  1.250000000E+02  0.00000E+00  9.000E+00
      25     1     1     2     0     0  2.957276532E+01  2.051034728E+02 -2.953582354E+02  3.818422059E+02  1.250000000E+02  0.00000E+00  9.000E+00
      21     1     1     2   501   512  1.051524128E+02 -1.866036875E+02  5.364800340E+01  2.208077770E+02  3.438521648E-06  0.00000E+00  9.000E+00
#rwgt            2          11   2.7815151790945539E-003           9        1533           0
</event>
<event>
      5   9999  3.79277E-02  4.03527E+01 -1.00000E+00  1.44604E-01
      21    -1     0     0   502   501  0.000000000E+00  0.000000000E+00  4.162492992E+02  4.162492992E+02  0.000000000E+00  0.00000E+00  9.000E+00
       1    -1     0     0   501     0  0.000000000E+00  0.000000000E+00 -5.722047382E+02  5.722047382E+02  0.000000000E+00  0.00000E+00  9.000E+00
      25     1     1     2     0     0 -3.810519317E+02 -1.245273710E+01  1.409417979E+01  4.014714078E+02  1.250000000E+02  0.00000E+00  9.000E+00
      25     1     1     2     0     0  3.799265479E+02  5.278973174E+01  8.911362278E+00  4.035286235E+02  1.250000000E+02  0.00000E+00  9.000E+00
       1     1     1     2   502     0  1.125383826E+00 -4.033699464E+01 -1.789609811E+02  1.834540062E+02  0.000000000E+00  0.00000E+00  9.000E+00
#rwgt            1           1   4.4005850115373585E-002           9        1553           0
</event>
<event>
      5   9999  3.79277E-02  2.48085E+02 -1.00000E+00  1.08344E-01
      21    -1     0     0   502   511  0.000000000E+00  0.000000000E+00  2.423719879E+03  2.423719879E+03  0.000000000E+00  0.00000E+00  9.000E+00
      21    -1     0     0   501   502  0.000000000E+00  0.000000000E+00 -6.489360342E+01  6.489360342E+01  0.000000000E+00  0.00000E+00  9.000E+00
      25     1     1     2     0     0  2.198626558E+01 -1.230447890E+02  7.624680857E+02  7.826915086E+02  1.250000000E+02  0.00000E+00  9.000E+00
      25     1     1     2     0     0 -2.628367442E+02  6.357038084E+01  5.015191785E+02  5.833273814E+02  1.250000000E+02  0.00000E+00  9.000E+00
      21     1     1     2   501   511  2.408504786E+02  5.947440813E+01  1.094839012E+03  1.122594593E+03  0.000000000E+00  0.00000E+00  9.000E+00
#rwgt            1           1   4.2543901792246978E-002           9        1710           0
</event>
<event>
      5   9999  3.79277E-02  1.68591E+01 -1.00000E+00  1.72733E-01
      21    -1     0     0   512   501  0.000000000E+00  0.000000000E+00  1.696136959E+02  1.696136959E+02  0.000000000E+00  0.00000E+00  9.000E+00
      21    -1     0     0   501   502  0.000000000E+00  0.000000000E+00 -4.594626956E+02  4.594626956E+02  0.000000000E+00  0.00000E+00  9.000E+00
      25     1     1     2     0     0 -7.914867312E+01  8.897856977E+01 -3.732452981E+02  4.112405025E+02  1.250000000E+02  0.00000E+00  9.000E+00
      25     1     1     2     0     0  9.306665583E+01 -9.849274931E+01  7.734476587E+01  1.999235776E+02  1.250000000E+02  0.00000E+00  9.000E+00
      21     1     1     2   512   502 -1.391798271E+01  9.514179539E+00  6.051532507E+00  1.791231143E+01  2.064765462E-07  0.00000E+00  9.000E+00
#rwgt            1           1   2.4316173126087842E-002           9        1815           0
</event>
<event>
      5   9999 -3.79277E-02  3.77767E+01 -1.00000E+00  1.46397E-01
      21    -1     0     0   511   501  0.000000000E+00  0.000000000E+00  5.521011751E+02  5.521011751E+02  0.000000000E+00  0.00000E+00  9.000E+00
      21    -1     0     0   501   502  0.000000000E+00  0.000000000E+00 -1.082076788E+02  1.082076788E+02  0.000000000E+00  0.00000E+00  9.000E+00
      25     1     1     2     0     0 -1.827273423E+02 -2.340532077E+01  1.624038677E+02  2.755668828E+02  1.250000000E+02  0.00000E+00  9.000E+00
      25     1     1     2     0     0  1.762741476E+02  6.062673548E+01  2.379494109E+02  3.270979950E+02  1.250000000E+02  0.00000E+00  9.000E+00
      21     1     1     2   511   502  6.453194751E+00 -3.722141471E+01  4.354021773E+01  5.764397623E+01  4.768371582E-07  0.00000E+00  9.000E+00
#rwgt            1           1 -0.13975954617415801                9        1982           0
</event>
<event>
      5   9999  3.79277E-02  5.56641E+01 -1.00000E+00  1.36468E-01
      21    -1     0     0   502   501  0.000000000E+00  0.000000000E+00  6.412544484E+02  6.412544484E+02  0.000000000E+00  0.00000E+00  9.000E+00
      21    -1     0     0   501   512  0.000000000E+00  0.000000000E+00 -1.037329638E+02  1.037329638E+02  0.000000000E+00  0.00000E+00  9.000E+00
      25     1     1     2     0     0  6.924739122E+01 -2.219541703E+01  5.418461801E+01  1.544306011E+02  1.250000000E+02  0.00000E+00  9.000E+00
      25     1     1     2     0     0 -1.512194518E+01  9.198095603E+00  5.124270417E+02  5.277497051E+02  1.250000000E+02  0.00000E+00  9.000E+00
      21     1     1     2   502   512 -5.412544604E+01  1.299732143E+01 -2.909017511E+01  6.280710598E+01  1.261592536E-06  0.00000E+00  9.000E+00
#rwgt            1           1   3.8287940617361897E-002           9        2148           0
</event>
<event>
      5   9999  3.79277E-02  1.42695E+01 -1.00000E+00  1.79451E-01
      21    -1     0     0   502   501  0.000000000E+00  0.000000000E+00  1.459201597E+02  1.459201597E+02  0.000000000E+00  0.00000E+00  9.000E+00
      21    -1     0     0   511   502  0.000000000E+00  0.000000000E+00 -4.247095523E+02  4.247095523E+02  0.000000000E+00  0.00000E+00  9.000E+00
      25     1     1     2     0     0 -8.015832625E+01 -1.147129873E+02 -1.363577093E+00  1.876467054E+02  1.250000000E+02  0.00000E+00  9.000E+00
      25     1     1     2     0     0  6.839821540E+01  1.066309288E+02 -9.834624472E+01  2.033358176E+02  1.250000000E+02  0.00000E+00  9.000E+00
      21     1     1     2   511   501  1.176011085E+01  8.082058466E+00 -1.790795707E+02  1.796471890E+02  1.907348633E-06  0.00000E+00  9.000E+00
#rwgt            1           1   2.8840171947930000E-002           9        2268           0
</event>
<event>
      5   9999  3.79277E-02  1.30398E+01 -1.00000E+00  1.83312E-01
      21    -1     0     0   502   501  0.000000000E+00  0.000000000E+00  4.412100808E+02  4.412100808E+02  0.000000000E+00  0.00000E+00  9.000E+00
      21    -1     0     0   512   502  0.000000000E+00  0.000000000E+00 -8.856434126E+01  8.856434126E+01  0.000000000E+00  0.00000E+00  9.000E+00
      25     1     1     2     0     0  1.342263295E+02  4.411869316E+01  2.244320487E+02  2.931857962E+02  1.250000000E+02  0.00000E+00  9.000E+00
      25     1     1     2     0     0 -1.229817368E+02 -5.072137901E+01  1.290011347E+02  2.235250738E+02  1.250000000E+02  0.00000E+00  9.000E+00
      21     1     1     2   512   501 -1.124459266E+01  6.602685857E+00 -7.874437788E-01  1.306355205E+01  3.214992435E-07  0.00000E+00  9.000E+00
#rwgt            1           1   4.0425019780653340E-002           9        2548           0
</event>
<event>
      5   9999  3.79277E-02  4.72973E+01 -1.00000E+00  1.40467E-01
      21    -1     0     0   502   501  0.000000000E+00  0.000000000E+00  1.835591278E+02  1.835591278E+02  0.000000000E+00  0.00000E+00  9.000E+00
      21    -1     0     0   501   511  0.000000000E+00  0.000000000E+00 -6.040063376E+02  6.040063376E+02  0.000000000E+00  0.00000E+00  9.000E+00
      25     1     1     2     0     0  1.551660785E+02  3.432694598E+01  2.732348261E+01  2.040255470E+02  1.250000000E+02  0.00000E+00  9.000E+00
      25     1     1     2     0     0 -1.243440925E+02 -7.020225353E+01 -6.915775407E+01  2.019841694E+02  1.250000000E+02  0.00000E+00  9.000E+00
      21     1     1     2   502   511 -3.082198605E+01  3.587530755E+01 -3.786129383E+02  3.815557490E+02  0.000000000E+00  0.00000E+00  9.000E+00
#rwgt            1           1   5.6152796189947923E-002           9        2729           0
</event>
<event>
      5   9999  3.79277E-02  4.94221E+00 -1.00000E+00  2.43549E-01
      21    -1     0     0   502   501  0.000000000E+00  0.000000000E+00  1.561633083E+03  1.561633083E+03  0.000000000E+00  0.00000E+00  9.000E+00
      21    -1     0     0   501   512  0.000000000E+00  0.000000000E+00 -9.767151242E+01  9.767151242E+01  0.000000000E+00  0.00000E+00  9.000E+00
      25     1     1     2     0     0  1.507955110E+02  1.381242089E+02  7.062842858E+02  7.458418569E+02  1.250000000E+02  0.00000E+00  9.000E+00
      25     1     1     2     0     0 -1.552641606E+02 -1.360131391E+02  8.180442236E+02  8.528938301E+02  1.250000000E+02  0.00000E+00  9.000E+00
      21     1     1     2   502   512  4.468649573E+00 -2.111069782E+00 -6.036693849E+01  6.056890875E+01  3.932099939E-06  0.00000E+00  9.000E+00
#rwgt            1           1   4.2032754350227734E-002           9        2827           0
</event>
<event>
      5   9999  3.79277E-02  3.24939E+01 -1.00000E+00  1.50669E-01
      21    -1     0     0   502   511  0.000000000E+00  0.000000000E+00  7.240927064E+01  7.240927064E+01  0.000000000E+00  0.00000E+00  9.000E+00
      21    -1     0     0   501   502  0.000000000E+00  0.000000000E+00 -1.041504394E+03  1.041504394E+03  0.000000000E+00  0.00000E+00  9.000E+00
      25     1     1     2     0     0 -9.916023566E+01 -1.422621877E+01 -4.703473437E+01  1.669503036E+02  1.250000000E+02  0.00000E+00  9.000E+00
      25     1     1     2     0     0  7.177666353E+01  3.171893833E+01 -8.868636807E+02  8.990607146E+02  1.250000000E+02  0.00000E+00  9.000E+00
      21     1     1     2   501   511  2.738357213E+01 -1.749271955E+01 -3.519670844E+01  4.790264654E+01  0.000000000E+00  0.00000E+00  9.000E+00
#rwgt            1           1   3.4487946408927043E-002           9        3167           0
</event>
<event>
      5   9999  3.79277E-02  2.42477E+01 -1.00000E+00  1.59751E-01
       2    -1     0     0   502     0  0.000000000E+00  0.000000000E+00  2.354661178E+03  2.354661178E+03  0.000000000E+00  0.00000E+00  9.000E+00
      21    -1     0     0   501   502  0.000000000E+00  0.000000000E+00 -9.777764943E+01  9.777764943E+01  0.000000000E+00  0.00000E+00  9.000E+00
      25     1     1     2     0     0  1.133702603E+01  9.617623857E+01  2.283669892E+02  2.777676705E+02  1.250000000E+02  0.00000E+00  9.000E+00
      25     1     1     2     0     0 -1.316985040E+01 -1.203545901E+02  3.070216042E+01  1.767096346E+02  1.250000000E+02  0.00000E+00  9.000E+00
       2     1     1     2   501     0  1.832824368E+00  2.417835150E+01  1.997814378E+03  1.997961522E+03  2.157918644E-05  0.00000E+00  9.000E+00
#rwgt            1           1   4.5278245473406309E-002           9        3285           0
</event>
<event>
      5   9999  3.79277E-02  4.23619E+01 -1.00000E+00  1.43312E-01
      21    -1     0     0   502   501  0.000000000E+00  0.000000000E+00  1.767542180E+02  1.767542180E+02  0.000000000E+00  0.00000E+00  9.000E+00
       2    -1     0     0   501     0  0.000000000E+00  0.000000000E+00 -1.082422465E+03  1.082422465E+03  0.000000000E+00  0.00000E+00  9.000E+00
      25     1     1     2     0     0 -4.288020187E+01  8.108230800E+01 -1.551558418E+02  2.193430820E+02  1.250000000E+02  0.00000E+00  9.000E+00
      25     1     1     2     0     0  1.513916099E+01 -1.130974308E+02  9.444353404E+01  1.938164187E+02  1.250000000E+02  0.00000E+00  9.000E+00
       2     1     1     2   502     0  2.774104088E+01  3.201512276E+01 -8.449559390E+02  8.460171820E+02  1.525878906E-05  0.00000E+00  9.000E+00
#rwgt            1           1   5.0556414008729393E-002           9        3378           0
</event>
<event>
      5   9999  3.79277E-02  3.74548E+01 -1.00000E+00  1.46633E-01
      21    -1     0     0   502   501  0.000000000E+00  0.000000000E+00  9.005504573E+02  9.005504573E+02  0.000000000E+00  0.00000E+00  9.000E+00
      -2    -1     0     0     0   502  0.000000000E+00  0.000000000E+00 -3.433345370E+02  3.433345370E+02  0.000000000E+00  0.00000E+00  9.000E+00
      25     1     1     2     0     0 -1.004581512E+02  1.452487283E+02  5.085967460E+02  5.527066883E+02  1.250000000E+02  0.00000E+00  9.000E+00
      25     1     1     2     0     0  1.054085796E+02 -1.081225684E+02  3.426561758E+02  3.947653901E+02  1.250000000E+02  0.00000E+00  9.000E+00
      -2     1     1     2     0   501 -4.950428363E+00 -3.712615987E+01 -2.940370015E+02  2.964129159E+02  3.814697266E-06  0.00000E+00  9.000E+00
#rwgt            1           1   4.6002650671669094E-002           9        3529           0
</event>
<event>
      5   9999  3.79277E-02  3.62058E+01 -1.00000E+00  1.47577E-01
      21    -1     0     0   511   501  0.000000000E+00  0.000000000E+00  1.741925503E+02  1.741925503E+02  0.000000000E+00  0.00000E+00  9.000E+00
      21    -1     0     0   501   502  0.000000000E+00  0.000000000E+00 -6.121394750E+02  6.121394750E+02  0.000000000E+00  0.00000E+00  9.000E+00
      25     1     1     2     0     0 -1.481648372E+01  1.203883398E+01 -5.256958787E+02  5.406899468E+02  1.250000000E+02  0.00000E+00  9.000E+00
      25     1     1     2     0     0 -2.071925082E+01 -5.105502218E+00 -2.321939367E+01  1.289166155E+02  1.250000000E+02  0.00000E+00  9.000E+00
      21     1     1     2   511   502  3.553573454E+01 -6.933331758E+00  1.109683476E+02  1.167254629E+02  2.697398305E-06  0.00000E+00  9.000E+00
#rwgt            1           1   4.0657769596523695E-002           9        3749           0
</event>
<event>
      5   9999  4.17751E-02  4.32934E+01 -1.00000E+00  1.42741E-01
      21    -1     0     0   502   501  0.000000000E+00  0.000000000E+00  3.906348042E+02  3.906348042E+02  0.000000000E+00  0.00000E+00  9.000E+00
      21    -1     0     0   501   512  0.000000000E+00  0.000000000E+00 -2.432720122E+02  2.432720122E+02  0.000000000E+00  0.00000E+00  9.000E+00
      25     1     1     2     0     0  1.038021924E+02 -1.729129635E+02  1.851410569E+02  3.009584673E+02  1.250000000E+02  0.00000E+00  9.000E+00
      25     1     1     2     0     0 -1.300605485E+02  2.073341488E+02  1.002088689E+00  2.748257624E+02  1.250000000E+02  0.00000E+00  9.000E+00
      21     1     1     2   502   512  2.625835602E+01 -3.442118527E+01 -3.878035350E+01  5.812258661E+01  1.066240300E-06  0.00000E+00  9.000E+00
#rwgt            1           1  0.31694210220490554                9        4082           0
</event>
<event>
      5   9999  3.79277E-02  1.07331E+01 -1.00000E+00  1.92271E-01
      21    -1     0     0   502   511  0.000000000E+00  0.000000000E+00  1.148883290E+03  1.148883290E+03  0.000000000E+00  0.00000E+00  9.000E+00
      21    -1     0     0   501   502  0.000000000E+00  0.000000000E+00 -9.094323129E+01  9.094323129E+01  0.000000000E+00  0.00000E+00  9.000E+00
      25     1     1     2     0     0  2.639356309E+02  2.187021991E+01  4.015188175E+02  4.969735250E+02  1.250000000E+02  0.00000E+00  9.000E+00
      25     1     1     2     0     0 -2.740701495E+02 -1.833604743E+01  4.858822463E+02  5.719765858E+02  1.250000000E+02  0.00000E+00  9.000E+00
      21     1     1     2   501   511  1.013451855E+01 -3.534172488E+00  1.705389952E+02  1.708764107E+02  1.907348633E-06  0.00000E+00  9.000E+00
#rwgt            1           1   2.1819721308493554E-002           9        4162           0
</event>
<event>
      5   9999  3.79277E-02  2.22433E+01 -1.00000E+00  1.62648E-01
      21    -1     0     0   502   512  0.000000000E+00  0.000000000E+00  1.098470088E+02  1.098470088E+02  0.000000000E+00  0.00000E+00  9.000E+00
      21    -1     0     0   501   502  0.000000000E+00  0.000000000E+00 -5.433237366E+02  5.433237366E+02  0.000000000E+00  0.00000E+00  9.000E+00
      25     1     1     2     0     0  1.348813964E+02 -8.001817173E+00 -2.047902663E+02  2.753562662E+02  1.250000000E+02  0.00000E+00  9.000E+00
      25     1     1     2     0     0 -1.413475296E+02 -1.328092013E+01 -2.707206766E+02  3.302577655E+02  1.250000000E+02  0.00000E+00  9.000E+00
      21     1     1     2   501   512  6.466133179E+00  2.128273731E+01  4.203421504E+01  4.755671372E+01  9.536743164E-07  0.00000E+00  9.000E+00
#rwgt            1           1   4.0166740593578311E-002           9        4467           0
</event>
<event>
      5   9999  3.79277E-02  2.45032E+02 -1.00000E+00  1.08529E-01
      21    -1     0     0   502   501  0.000000000E+00  0.000000000E+00  1.140768447E+02  1.140768447E+02  0.000000000E+00  0.00000E+00  9.000E+00
      21    -1     0     0   511   502  0.000000000E+00  0.000000000E+00 -1.214577299E+03  1.214577299E+03  0.000000000E+00  0.00000E+00  9.000E+00
      25     1     1     2     0     0  6.587648156E+01 -1.496450471E+02 -1.105447152E+02  2.336203865E+02  1.250000000E+02  0.00000E+00  9.000E+00
      25     1     1     2     0     0 -1.508897981E+02 -8.016708967E+01 -5.800129150E+02  6.174418798E+02  1.250000000E+02  0.00000E+00  9.000E+00
      21     1     1     2   511   501  8.501331652E+01  2.298121368E+02 -4.099428242E+02  4.775918773E+02  7.629394531E-06  0.00000E+00  9.000E+00
#rwgt            2          11   1.2615185028089517E-003           9        4720           0
</event>
<event>
      5   9999  3.79277E-02  1.23992E+01 -1.00000E+00  1.85546E-01
      21    -1     0     0   502   501  0.000000000E+00  0.000000000E+00  1.851452955E+03  1.851452955E+03  0.000000000E+00  0.00000E+00  9.000E+00
       2    -1     0     0   501     0  0.000000000E+00  0.000000000E+00 -3.214999836E+02  3.214999836E+02  0.000000000E+00  0.00000E+00  9.000E+00
      25     1     1     2     0     0  4.129497913E+01  1.834508690E+02  4.915626898E+02  5.409421177E+02  1.250000000E+02  0.00000E+00  9.000E+00
      25     1     1     2     0     0 -2.938246468E+01 -1.868905224E+02  1.325438659E+03  1.344694774E+03  1.250000000E+02  0.00000E+00  9.000E+00
       2     1     1     2   502     0 -1.191251445E+01  3.439653354E+00 -2.870483780E+02  2.873160464E+02  1.009274029E-05  0.00000E+00  9.000E+00
#rwgt            1           1   4.6804810675764058E-002           9        4755           0
</event>
<event>
      5   9999  3.79277E-02  1.72777E+01 -1.00000E+00  1.71789E-01
      21    -1     0     0   502   501  0.000000000E+00  0.000000000E+00  1.102269496E+03  1.102269496E+03  0.000000000E+00  0.00000E+00  9.000E+00
      21    -1     0     0   511   502  0.000000000E+00  0.000000000E+00 -5.184672867E+01  5.184672867E+01  0.000000000E+00  0.00000E+00  9.000E+00
      25     1     1     2     0     0 -4.717933637E+01 -7.466764934E+01  8.670558492E+02  8.804612390E+02  1.250000000E+02  0.00000E+00  9.000E+00
      25     1     1     2     0     0  5.121322194E+01  9.146783531E+01  1.939156596E+02  2.534116060E+02  1.250000000E+02  0.00000E+00  9.000E+00
      21     1     1     2   511   501 -4.033885567E+00 -1.680018598E+01 -1.054874141E+01  2.024337983E+01  3.576278687E-07  0.00000E+00  9.000E+00
#rwgt            1           1   4.1358875399552603E-002           9        4969           0
</event>
<event>
      5   9999  3.79277E-02  8.25450E+01 -1.00000E+00  1.27695E-01
      21    -1     0     0   502   501  0.000000000E+00  0.000000000E+00  7.529556944E+02  7.529556944E+02  0.000000000E+00  0.00000E+00  9.000E+00
      21    -1     0     0   501   512  0.000000000E+00  0.000000000E+00 -1.514890132E+02  1.514890132E+02  0.000000000E+00  0.00000E+00  9.000E+00
      25     1     1     2     0     0  1.814158353E+02  1.054999698E+01  1.421748787E+02  2.624151365E+02  1.250000000E+02  0.00000E+00  9.000E+00
      25     1     1     2     0     0 -2.365061938E+02 -7.202134256E+01  4.824197526E+02  5.563057354E+02  1.250000000E+02  0.00000E+00  9.000E+00
      21     1     1     2   502   512  5.509035846E+01  6.147134558E+01 -2.312795013E+01  8.572383566E+01  0.000000000E+00  0.00000E+00  9.000E+00
#rwgt            1           1   4.0340757817222024E-002           9        5193           0
</event>
<event>
      5   9999  3.79277E-02  3.05135E+01 -1.00000E+00  1.52530E-01
      21    -1     0     0   502   501  0.000000000E+00  0.000000000E+00  3.437469832E+02  3.437469832E+02  0.000000000E+00  0.00000E+00  9.000E+00
      21    -1     0     0   511   502  0.000000000E+00  0.000000000E+00 -1.382459674E+02  1.382459674E+02  0.000000000E+00  0.00000E+00  9.000E+00
      25     1     1     2     0     0 -2.871231220E+01  1.528487880E+01 -7.620481488E+01  1.499673238E+02  1.250000000E+02  0.00000E+00  9.000E+00
      25     1     1     2     0     0  3.906260004E+01  1.341953712E+01  2.679734202E+02  2.985644396E+02  1.250000000E+02  0.00000E+00  9.000E+00
      21     1     1     2   511   501 -1.035028784E+01 -2.870441592E+01  1.373241045E+01  3.346118720E+01  2.384185791E-07  0.00000E+00  9.000E+00
#rwgt            2          11   3.1769230014249781E-003           9        5785           0
</event>
<event>
      5   9999  3.79277E-02  2.39102E+01 -1.00000E+00  1.60215E-01
      21    -1     0     0   502   512  0.000000000E+00  0.000000000E+00  5.754327968E+02  5.754327968E+02  0.000000000E+00  0.00000E+00  9.000E+00
      21    -1     0     0   501   502  0.000000000E+00  0.000000000E+00 -8.363258420E+01  8.363258420E+01  0.000000000E+00  0.00000E+00  9.000E+00
      25     1     1     2     0     0 -8.886854473E+01 -9.784823558E+01  7.800025960E+01  1.979417489E+02  1.250000000E+02  0.00000E+00  9.000E+00
      25     1     1     2     0     0  6.800216785E+01  1.095226035E+02  3.642976128E+02  4.061492906E+02  1.250000000E+02  0.00000E+00  9.000E+00
      21     1     1     2   501   512  2.086637688E+01 -1.167436790E+01  4.950234021E+01  5.497434161E+01  6.743495762E-07  0.00000E+00  9.000E+00
#rwgt            1           1   3.7687058619628969E-002           9        5820           0
</event>
<event>
      5   9999  3.79277E-02  1.45329E+02 -1.00000E+00  1.16941E-01
      21    -1     0     0   511   501  0.000000000E+00  0.000000000E+00  2.403662345E+02  2.403662345E+02  0.000000000E+00  0.00000E+00  9.000E+00
      21    -1     0     0   501   502  0.000000000E+00  0.000000000E+00 -9.900998385E+02  9.900998385E+02  0.000000000E+00  0.00000E+00  9.000E+00
      25     1     1     2     0     0  1.205169887E+02  2.825201384E+02 -3.965240017E+02  5.169122334E+02  1.250000000E+02  0.00000E+00  9.000E+00
      25     1     1     2     0     0 -8.638310029E+01 -1.412562609E+02 -4.785854525E+02  5.216171073E+02  1.250000000E+02  0.00000E+00  9.000E+00
      21     1     1     2   511   502 -3.413388845E+01 -1.412638775E+02  1.253758501E+02  1.919367323E+02  3.814697266E-06  0.00000E+00  9.000E+00
#rwgt            1           1   3.2906391923743235E-002           9        5984           0
</event>
<event>
      5   9999  3.79277E-02  2.74639E+02 -1.00000E+00  1.06854E-01
      21    -1     0     0   502   512  0.000000000E+00  0.000000000E+00  1.783607614E+03  1.783607614E+03  0.000000000E+00  0.00000E+00  9.000E+00
      21    -1     0     0   501   502  0.000000000E+00  0.000000000E+00 -2.822667431E+02  2.822667431E+02  0.000000000E+00  0.00000E+00  9.000E+00
      25     1     1     2     0     0 -2.046234369E+02  2.055189700E+02 -2.383233319E+01  3.167045596E+02  1.250000000E+02  0.00000E+00  9.000E+00
      25     1     1     2     0     0 -6.842141440E+01 -2.350699674E+02  9.193569789E+01  2.898560885E+02  1.250000000E+02  0.00000E+00  9.000E+00
      21     1     1     2   501   512  2.730448513E+02  2.955099742E+01  1.433237507E+03  1.459313709E+03  0.000000000E+00  0.00000E+00  9.000E+00
#rwgt            2          11   1.4873700485992963E-003           9        6077           0
</event>
<event>
      5   9999  3.79277E-02  3.10544E+01 -1.00000E+00  1.52005E-01
      21    -1     0     0   511   501  0.000000000E+00  0.000000000E+00  7.603361648E+02  7.603361648E+02  0.000000000E+00  0.00000E+00  9.000E+00
      21    -1     0     0   501   502  0.000000000E+00  0.000000000E+00 -2.370520890E+02  2.370520890E+02  0.000000000E+00  0.00000E+00  9.000E+00
      25     1     1     2     0     0  1.767381225E+00  9.118042541E+01  4.389846665E+01  1.608386427E+02  1.250000000E+02  0.00000E+00  9.000E+00
      25     1     1     2     0     0  1.912893595E+01 -1.141525549E+02 -1.374743466E+02  2.189084694E+02  1.250000000E+02  0.00000E+00  9.000E+00
      21     1     1     2   511   502 -2.089631717E+01  2.297212947E+01  6.168599558E+02  6.176411417E+02  1.321449896E-05  0.00000E+00  9.000E+00
#rwgt            1           1   4.2715916705221145E-002           9        6142           0
</event>
<event>
      5   9999 -3.79277E-02  2.29491E+01 -1.00000E+00  1.61587E-01
      21    -1     0     0   502   512  0.000000000E+00  0.000000000E+00  1.552449645E+02  1.552449645E+02  0.000000000E+00  0.00000E+00  9.000E+00
      21    -1     0     0   501   502  0.000000000E+00  0.000000000E+00 -1.085104653E+03  1.085104653E+03  0.000000000E+00  0.00000E+00  9.000E+00
      25     1     1     2     0     0  9.195917393E+00 -7.943032810E+01 -3.895914753E+02  4.168935830E+02  1.250000000E+02  0.00000E+00  9.000E+00
      25     1     1     2     0     0 -4.370541445E+00  1.018663805E+02 -6.713106199E+02  6.904192998E+02  1.250000000E+02  0.00000E+00  9.000E+00
      21     1     1     2   501   512 -4.825375948E+00 -2.243605235E+01  1.310424062E+02  1.330367352E+02  2.697398305E-06  0.00000E+00  9.000E+00
#rwgt            1           1 -0.23975764620114895                9        6288           0
</event>
<event>
      5   9999  3.79277E-02  1.51516E+01 -1.00000E+00  1.76973E-01
      21    -1     0     0   502   511  0.000000000E+00  0.000000000E+00  2.977695913E+01  2.977695913E+01  0.000000000E+00  0.00000E+00  9.000E+00
      21    -1     0     0   501   502  0.000000000E+00  0.000000000E+00 -2.089125678E+03  2.089125678E+03  0.000000000E+00  0.00000E+00  9.000E+00
      25     1     1     2     0     0  1.837921891E+02  8.284445025E+01 -8.883274632E+02  9.194528012E+02  1.250000000E+02  0.00000E+00  9.000E+00
      25     1     1     2     0     0 -1.959269755E+02 -7.377159090E+01 -1.119524365E+03  1.145770235E+03  1.250000000E+02  0.00000E+00  9.000E+00
      21     1     1     2   501   511  1.213478641E+01 -9.072859351E+00 -5.149689040E+01  5.367960077E+01  6.743495762E-07  0.00000E+00  9.000E+00
#rwgt            1           1   4.3543491187082978E-002           9        6425           0
</event>
<event>
      5   9999  3.79277E-02  8.14862E+01 -1.00000E+00  1.27964E-01
      21    -1     0     0   502   501  0.000000000E+00  0.000000000E+00  2.038688162E+02  2.038688162E+02  0.000000000E+00  0.00000E+00  9.000E+00
      21    -1     0     0   512   502  0.000000000E+00  0.000000000E+00 -8.051054772E+02  8.051054772E+02  0.000000000E+00  0.00000E+00  9.000E+00
      25     1     1     2     0     0  4.378855540E+01  6.016526099E+01 -1.037641525E+01  1.458422648E+02  1.250000000E+02  0.00000E+00  9.000E+00
      25     1     1     2     0     0 -1.173009904E+02 -9.532099883E+01  6.161399231E+01  2.055891515E+02  1.250000000E+02  0.00000E+00  9.000E+00
      21     1     1     2   512   501  7.351243498E+01  3.515573784E+01 -6.524742380E+02  6.575428772E+02  1.078959322E-05  0.00000E+00  9.000E+00
#rwgt            1           1   3.3986735324821944E-002           9        6665           0
</event>
<event>
      5   9999  3.79277E-02  1.02480E+01 -1.00000E+00  1.94535E-01
      21    -1     0     0   502   501  0.000000000E+00  0.000000000E+00  3.315932685E+02  3.315932685E+02  0.000000000E+00  0.00000E+00  9.000E+00
      21    -1     0     0   501   511  0.000000000E+00  0.000000000E+00 -1.761103710E+02  1.761103710E+02  0.000000000E+00  0.00000E+00  9.000E+00
      25     1     1     2     0     0 -7.605294927E+01  4.682251575E+01  2.632564422E+02  3.048037950E+02  1.250000000E+02  0.00000E+00  9.000E+00
      25     1     1     2     0     0  8.495276139E+01 -4.174173065E+01 -1.110548817E+02  1.921393517E+02  1.250000000E+02  0.00000E+00  9.000E+00
      21     1     1     2   502   511 -8.899812129E+00 -5.080785100E+00  3.281336992E+00  1.076049281E+01  1.460009660E-07  0.00000E+00  9.000E+00
#rwgt            1           1   3.5770900298558575E-002           9        6773           0
</event>
<event>
      5   9999  3.79277E-02  7.50536E+01 -1.00000E+00  1.29706E-01
      21    -1     0     0   502   501  0.000000000E+00  0.000000000E+00  4.306248399E+01  4.306248399E+01  0.000000000E+00  0.00000E+00  9.000E+00
      21    -1     0     0   512   502  0.000000000E+00  0.000000000E+00 -1.564627675E+03  1.564627675E+03  0.000000000E+00  0.00000E+00  9.000E+00
      25     1     1     2     0     0 -3.235578183E+00  5.693046433E+01 -1.122369622E+02  1.774082366E+02  1.250000000E+02  0.00000E+00  9.000E+00
      25     1     1     2     0     0 -6.126393225E+01 -9.530826498E+01 -9.994304594E+02  1.013569523E+03  1.250000000E+02  0.00000E+00  9.000E+00
      21     1     1     2   512   501  6.449951044E+01  3.837780064E+01 -4.098977692E+02  4.167123992E+02  7.629394531E-06  0.00000E+00  9.000E+00
#rwgt            1           1   2.7532194075550638E-002           9        7146           0
</event>
<event>
      5   9999  3.79277E-02  3.85632E+01 -1.00000E+00  1.45832E-01
      21    -1     0     0   502   501  0.000000000E+00  0.000000000E+00  6.548029452E+01  6.548029452E+01  0.000000000E+00  0.00000E+00  9.000E+00
      21    -1     0     0   511   502  0.000000000E+00  0.000000000E+00 -2.717347176E+03  2.717347176E+03  0.000000000E+00  0.00000E+00  9.000E+00
      25     1     1     2     0     0  3.125276159E+00 -9.875666912E+00 -7.025082252E-01  1.254304176E+02  1.250000000E+02  0.00000E+00  9.000E+00
      25     1     1     2     0     0  3.506271566E+01  4.509519567E+00 -2.375406502E+03  2.378955817E+03  1.250000000E+02  0.00000E+00  9.000E+00
      21     1     1     2   511   501 -3.818799182E+01  5.366147345E+00 -2.757578716E+02  2.784412362E+02  5.394796609E-06  0.00000E+00  9.000E+00
#rwgt            1           1   9.7481980505760374E-002           9        7458           0
</event>
<event>
      5   9999  3.79277E-02  4.08498E+01 -1.00000E+00  1.44276E-01
      21    -1     0     0   502   501  0.000000000E+00  0.000000000E+00  1.590462436E+01  1.590462436E+01  0.000000000E+00  0.00000E+00  9.000E+00
       2    -1     0     0   501     0  0.000000000E+00  0.000000000E+00 -3.751643887E+03  3.751643887E+03  0.000000000E+00  0.00000E+00  9.000E+00
      25     1     1     2     0     0 -1.191882586E+02 -1.261442506E+02 -2.053715835E+03  2.064822497E+03  1.250000000E+02  0.00000E+00  9.000E+00
      25     1     1     2     0     0  1.150037029E+02  8.550930171E+01 -9.117606621E+02  9.313808015E+02  1.250000000E+02  0.00000E+00  9.000E+00
       2     1     1     2   502     0  4.184555689E+00  4.063494888E+01 -7.702627654E+02  7.713452129E+02  1.525878906E-05  0.00000E+00  9.000E+00
#rwgt            1           1   3.6504151217460340E-002           9        7618           0
</event>
<event>
      5   9999  3.79277E-02  3.08462E+01 -1.00000E+00  1.52205E-01
      21    -1     0     0   502   511  0.000000000E+00  0.000000000E+00  7.480299651E+01  7.480299651E+01  0.000000000E+00  0.00000E+00  9.000E+00
      21    -1     0     0   501   502  0.000000000E+00  0.000000000E+00 -2.207835511E+03  2.207835511E+03  0.000000000E+00  0.00000E+00  9.000E+00
      25     1     1     2     0     0  8.283253894E-01 -7.412552766E+01 -1.736802463E+03  1.742872076E+03  1.250000000E+02  0.00000E+00  9.000E+00
      25     1     1     2     0     0  1.835823630E+01  9.827851076E+01 -4.500868149E+02  4.777016134E+02  1.250000000E+02  0.00000E+00  9.000E+00
      21     1     1     2   501   511 -1.918656169E+01 -2.415298310E+01  5.385676280E+01  6.206481807E+01  2.023048729E-06  0.00000E+00  9.000E+00
#rwgt            1           1   6.8915792646346341E-002           9        7731           0
</event>
<event>
      5   9999  3.79277E-02  2.63846E+01 -1.00000E+00  1.57017E-01
       2    -1     0     0   502     0  0.000000000E+00  0.000000000E+00  2.209799971E+03  2.209799971E+03  0.000000000E+00  0.00000E+00  9.000E+00
      21    -1     0     0   501   502  0.000000000E+00  0.000000000E+00 -1.961868025E+01  1.961868025E+01  0.000000000E+00  0.00000E+00  9.000E+00
      25     1     1     2     0     0 -1.356222470E+02  5.717457221E+01  7.230928045E+02  7.484320473E+02  1.250000000E+02  0.00000E+00  9.000E+00
      25     1     1     2     0     0  1.106882351E+02 -4.854656276E+01  1.188569006E+03  1.201220186E+03  1.250000000E+02  0.00000E+00  9.000E+00
       2     1     1     2   501     0  2.493401188E+01 -8.628009450E+00  2.785194804E+02  2.797664177E+02  3.814697266E-06  0.00000E+00  9.000E+00
#rwgt            1           1   9.2643794954708786E-002           9        7881           0
</event>
<event>
      5   9999  3.79277E-02  1.69507E+01 -1.00000E+00  1.72523E-01
      21    -1     0     0   502   501  0.000000000E+00  0.000000000E+00  8.442415325E+02  8.442415325E+02  0.000000000E+00  0.00000E+00  9.000E+00
       2    -1     0     0   501     0  0.000000000E+00  0.000000000E+00 -3.530306661E+03  3.530306661E+03  0.000000000E+00  0.00000E+00  9.000E+00
      25     1     1     2     0     0  3.569904576E+02 -7.267686014E+01  4.885887170E+02  6.221479303E+02  1.250000000E+02  0.00000E+00  9.000E+00
      25     1     1     2     0     0 -3.414239713E+02  7.938595626E+01  1.689827361E+02  4.087207156E+02  1.250000000E+02  0.00000E+00  9.000E+00
       2     1     1     2   502     0 -1.556648626E+01 -6.709096115E+00 -3.343636581E+03  3.343679547E+03  0.000000000E+00  0.00000E+00  9.000E+00
#rwgt            1           1   5.4407767976284001E-002           9        8061           0
</event>
<event>
      5   9999  3.79277E-02  8.37496E+01 -1.00000E+00  1.27394E-01
      21    -1     0     0   502   501  0.000000000E+00  0.000000000E+00  1.397337598E+02  1.397337598E+02  0.000000000E+00  0.00000E+00  9.000E+00
      21    -1     0     0   501   511  0.000000000E+00  0.000000000E+00 -7.122622606E+02  7.122622606E+02  0.000000000E+00  0.00000E+00  9.000E+00
      25     1     1     2     0     0  2.141320200E+00 -2.050241979E+02 -1.899287256E+02  3.061656868E+02  1.250000000E+02  0.00000E+00  9.000E+00
      25     1     1     2     0     0  5.125916019E+01  1.405076500E+02 -4.777753810E+01  2.006927860E+02  1.250000000E+02  0.00000E+00  9.000E+00
      21     1     1     2   502   511 -5.340048039E+01  6.451654788E+01 -3.348222371E+02  3.451375476E+02  0.000000000E+00  0.00000E+00  9.000E+00
#rwgt            1           1   4.6405436045377467E-002           9        8405           0
</event>
<event>
      5   9999  3.79277E-02  1.85599E+01 -1.00000E+00  1.69092E-01
      21    -1     0     0   502   501  0.000000000E+00  0.000000000E+00  5.527821743E+01  5.527821743E+01  0.000000000E+00  0.00000E+00  9.000E+00
      21    -1     0     0   501   512  0.000000000E+00  0.000000000E+00 -7.350019077E+02  7.350019077E+02  0.000000000E+00  0.00000E+00  9.000E+00
      25     1     1     2     0     0  1.272058119E+02  4.391859288E+01 -2.179617823E+02  2.850307000E+02  1.250000000E+02  0.00000E+00  9.000E+00
      25     1     1     2     0     0 -1.171418795E+02 -5.951300836E+01 -3.753298593E+02  4.168471199E+02  1.250000000E+02  0.00000E+00  9.000E+00
      21     1     1     2   502   512 -1.006393246E+01  1.559441548E+01 -8.643204875E+01  8.840230530E+01  1.348699152E-06  0.00000E+00  9.000E+00
#rwgt            1           1   2.8986145653118790E-002           9        8492           0
</event>
<event>
      5   9999  3.79277E-02  1.85644E+02 -1.00000E+00  1.12839E-01
       2    -1     0     0   502     0  0.000000000E+00  0.000000000E+00  1.079878295E+03  1.079878295E+03  0.000000000E+00  0.00000E+00  9.000E+00
      21    -1     0     0   501   502  0.000000000E+00  0.000000000E+00 -4.672928704E+02  4.672928704E+02  0.000000000E+00  0.00000E+00  9.000E+00
      25     1     1     2     0     0  3.306820253E+01 -2.830781455E+02 -1.133776868E+02  3.312193267E+02  1.250000000E+02  0.00000E+00  9.000E+00
      25     1     1     2     0     0 -2.986536600E+01  4.686941581E+02  2.045223600E+01  4.864251720E+02  1.250000000E+02  0.00000E+00  9.000E+00
       2     1     1     2   501     0 -3.202836527E+00 -1.856160126E+02  7.055108755E+02  7.295266669E+02  1.321449896E-05  0.00000E+00  9.000E+00
#rwgt            1           1   4.7235689605860977E-002           9        8707           0
</event>
<event>
      5   9999  3.79277E-02  9.01934E+01 -1.00000E+00  1.25878E-01
      21    -1     0     0   502   501  0.000000000E+00  0.000000000E+00  1.219891722E+03  1.219891722E+03  0.000000000E+00  0.00000E+00  9.000E+00
      21    -1     0     0   511   502  0.000000000E+00  0.000000000E+00 -2.169669427E+02  2.169669427E+02  0.000000000E+00  0.00000E+00  9.000E+00
      25     1     1     2     0     0 -3.759750584E+01 -3.559249692E+01  9.272987826E+02  9.371170847E+02  1.250000000E+02  0.00000E+00  9.000E+00
      25     1     1     2     0     0  1.261461277E+02  5.273839932E+01  2.454134854E+02  3.074848990E+02  1.250000000E+02  0.00000E+00  9.000E+00
      21     1     1     2   511   501 -8.854862188E+01 -1.714590240E+01 -1.697874883E+02  1.922566815E+02  3.303624740E-06  0.00000E+00  9.000E+00
#rwgt            1           1   3.4128732032561185E-002           9        8808           0
</event>
<event>
      5   9999  3.79277E-02  1.08816E+02 -1.00000E+00  1.22200E-01
      21    -1     0     0   502   501  0.000000000E+00  0.000000000E+00  1.175287396E+03  1.175287396E+03  0.000000000E+00  0.00000E+00  9.000E+00
       1    -1     0     0   501     0  0.000000000E+00  0.000000000E+00 -1.749008108E+02  1.749008108E+02  0.000000000E+00  0.00000E+00  9.000E+00
      25     1     1     2     0     0 -1.224427804E+02 -6.729345098E+00  4.169854342E+02  4.522602911E+02  1.250000000E+02  0.00000E+00  9.000E+00
      25     1     1     2     0     0  1.981906877E+02 -7.139307717E+01  6.980980515E+02  7.398259320E+02  1.250000000E+02  0.00000E+00  9.000E+00
       1     1     1     2   502     0 -7.574790732E+01  7.812242227E+01 -1.146969004E+02  1.581019838E+02  4.046097457E-06  0.00000E+00  9.000E+00
#rwgt            1           1   3.8653511190444162E-002           9        8882           0
</event>
<event>
      5   9999  3.79277E-02  9.46783E+01 -1.00000E+00  1.24906E-01
      21    -1     0     0   511   501  0.000000000E+00  0.000000000E+00  4.178524718E+02  4.178524718E+02  0.000000000E+00  0.00000E+00  9.000E+00
      21    -1     0     0   501   502  0.000000000E+00  0.000000000E+00 -1.584142859E+02  1.584142859E+02  0.000000000E+00  0.00000E+00  9.000E+00
      25     1     1     2     0     0  1.534426416E+02 -1.732322502E+01  1.982106530E+02  2.806371346E+02  1.250000000E+02  0.00000E+00  9.000E+00
      25     1     1     2     0     0 -6.448865969E+01 -1.509858009E+01 -4.956398180E+01  1.498944383E+02  1.250000000E+02  0.00000E+00  9.000E+00
      21     1     1     2   511   502 -8.895398186E+01  3.242180510E+01  1.107915148E+02  1.457351848E+02  1.348699152E-06  0.00000E+00  9.000E+00
#rwgt            1           1   3.7322292005849828E-002           9        8961           0
</event>
<event>
      5   9999 -3.79277E-02  1.83761E+01 -1.00000E+00  1.69462E-01
      21    -1     0     0   502   512  0.000000000E+00  0.000000000E+00  1.110049554E+03  1.110049554E+03  0.000000000E+00  0.00000E+00  9.000E+00
      21    -1     0     0   501   502  0.000000000E+00  0.000000000E+00 -5.465688371E+01  5.465688371E+01  0.000000000E+00  0.00000E+00  9.000E+00
      25     1     1     2     0     0 -2.193131713E+01 -1.752570247E+02  4.500750102E+02  4.993881478E+02  1.250000000E+02  0.00000E+00  9.000E+00
      25     1     1     2     0     0  4.026229258E+01  1.739698828E+02  3.710921801E+02  4.303730689E+02  1.250000000E+02  0.00000E+00  9.000E+00
      21     1     1     2   501   512 -1.833097545E+01  1.287141889E+00  2.342254804E+02  2.349452215E+02  3.814697266E-06  0.00000E+00  9.000E+00
#rwgt            1           1 -0.17735507057242600                9        9014           0
</event>
<event>
      5   9999  3.79277E-02  2.54123E+01 -1.00000E+00  1.58221E-01
      21    -1     0     0   502   501  0.000000000E+00  0.000000000E+00  1.206337496E+02  1.206337496E+02  0.000000000E+00  0.00000E+00  9.000E+00
      21    -1     0     0   511   502  0.000000000E+00  0.000000000E+00 -3.717116284E+02  3.717116284E+02  0.000000000E+00  0.00000E+00  9.000E+00
      25     1     1     2     0     0  1.780769780E+01  1.276377607E+02 -1.935286975E+01  1.805769797E+02  1.250000000E+02  0.00000E+00  9.000E+00
      25     1     1     2     0     0 -5.657987715E+00 -1.053180389E+02 -1.359413462E+02  2.126709942E+02  1.250000000E+02  0.00000E+00  9.000E+00
      21     1     1     2   511   501 -1.214971009E+01 -2.231972173E+01 -9.578366283E+01  9.909740409E+01  0.000000000E+00  0.00000E+00  9.000E+00
#rwgt            1           1   4.1328899863207431E-002           9        9298           0
</event>
<event>
      5   9999  3.79277E-02  3.63732E+01 -1.00000E+00  1.47448E-01
      21    -1     0     0   502   501  0.000000000E+00  0.000000000E+00  3.262994543E+03  3.262994543E+03  0.000000000E+00  0.00000E+00  9.000E+00
      21    -1     0     0   501   512  0.000000000E+00  0.000000000E+00 -2.862502265E+01  2.862502265E+01  0.000000000E+00  0.00000E+00  9.000E+00
      25     1     1     2     0     0 -1.848080626E+02 -1.313697496E+01  2.268639489E+03  2.279622059E+03  1.250000000E+02  0.00000E+00  9.000E+00
      25     1     1     2     0     0  2.186615229E+02  2.643939289E+01  9.161304922E+02  9.504903902E+02  1.250000000E+02  0.00000E+00  9.000E+00
      21     1     1     2   502   512 -3.385346034E+01 -1.330241793E+01  4.959953868E+01  6.150711615E+01  1.784161275E-06  0.00000E+00  9.000E+00
#rwgt            1           1   2.0188553516104418E-002           9        9460           0
</event>
<event>
      5   9999  3.79277E-02  7.29806E+01 -1.00000E+00  1.30310E-01
      21    -1     0     0   502   501  0.000000000E+00  0.000000000E+00  3.146778438E+02  3.146778438E+02  0.000000000E+00  0.00000E+00  9.000E+00
      21    -1     0     0   511   502  0.000000000E+00  0.000000000E+00 -2.578595364E+02  2.578595364E+02  0.000000000E+00  0.00000E+00  9.000E+00
      25     1     1     2     0     0  6.153800772E+01  2.406387475E+01  2.429421616E+02  2.810905376E+02  1.250000000E+02  0.00000E+00  9.000E+00
      25     1     1     2     0     0 -2.435459177E+01  3.873390324E+01 -6.061551888E+01  1.462624440E+02  1.250000000E+02  0.00000E+00  9.000E+00
      21     1     1     2   511   501 -3.718341594E+01 -6.279777800E+01 -1.255083354E+02  1.451843986E+02  1.907348633E-06  0.00000E+00  9.000E+00
#rwgt            1           1   1.9452523114637313E-002           9        9653           0
</event>
<event>
      5   9999  3.79277E-02  2.79658E+01 -1.00000E+00  1.55188E-01
       2    -1     0     0   502     0  0.000000000E+00  0.000000000E+00  6.410876161E+02  6.410876161E+02  0.000000000E+00  0.00000E+00  9.000E+00
      21    -1     0     0   501   502  0.000000000E+00  0.000000000E+00 -8.651002828E+02  8.651002828E+02  0.000000000E+00  0.00000E+00  9.000E+00
      25     1     1     2     0     0  2.029187963E+02 -1.929609617E+02 -6.649226546E+02  7.322274969E+02  1.250000000E+02  0.00000E+00  9.000E+00
      25     1     1     2     0     0 -2.264539913E+02  1.778552900E+02 -1.778612959E+01  3.144125645E+02  1.250000000E+02  0.00000E+00  9.000E+00
       2     1     1     2   501     0  2.353519494E+01  1.510567178E+01  4.586961175E+02  4.595478375E+02  7.629394531E-06  0.00000E+00  9.000E+00
#rwgt            1           1   3.4224654662752013E-002           9        9709           0
</event>
<event>
      5   9999  3.79277E-02  1.77885E+02 -1.00000E+00  1.13533E-01
      21    -1     0     0   502   501  0.000000000E+00  0.000000000E+00  3.043986269E+02  3.043986269E+02  0.000000000E+00  0.00000E+00  9.000E+00
      21    -1     0     0   511   502  0.000000000E+00  0.000000000E+00 -3.821156126E+02  3.821156126E+02  0.000000000E+00  0.00000E+00  9.000E+00
      25     1     1     2     0     0  6.426614262E+01 -2.326683737E+02 -8.710694091E+01  2.854423381E+02  1.250000000E+02  0.00000E+00  9.000E+00
      25     1     1     2     0     0  8.350285294E+01  1.336367768E+02  7.026722264E+01  2.130586706E+02  1.250000000E+02  0.00000E+00  9.000E+00
      21     1     1     2   511   501 -1.477689956E+02  9.903159695E+01 -6.087726748E+01  1.880132308E+02  2.611744678E-06  0.00000E+00  9.000E+00
#rwgt            1           1   3.3483844140534152E-002           9        9968           0
</event>
<event>
      5   9999  3.79277E-02  8.74274E+01 -1.00000E+00  1.26511E-01
      21    -1     0     0   502   501  0.000000000E+00  0.000000000E+00  7.669561354E+02  7.669561354E+02  0.000000000E+00  0.00000E+00  9.000E+00
      21    -1     0     0   501   512  0.000000000E+00  0.000000000E+00 -1.104307206E+03  1.104307206E+03  0.000000000E+00  0.00000E+00  9.000E+00
      25     1     1     2     0     0  2.292249605E+02 -2.298008303E+02  4.943011567E+02  6.044097431E+02  1.250000000E+02  0.00000E+00  9.000E+00
      25     1     1     2     0     0 -1.541952040E+02  2.746793909E+02  8.228708488E+01  3.487421585E+02  1.250000000E+02  0.00000E+00  9.000E+00
      21     1     1     2   502   512 -7.502975648E+01 -4.487856068E+01 -9.139393127E+02  9.181114403E+02  1.078959322E-05  0.00000E+00  9.000E+00
#rwgt            1           1   3.1866498374477588E-002           9       10014           0
</event>
<event>
      5   9999  3.79277E-02  6.79065E+00 -1.00000E+00  2.17434E-01
      21    -1     0     0   511   501  0.000000000E+00  0.000000000E+00  8.495552270E+02  8.495552270E+02  0.000000000E+00  0.00000E+00  9.000E+00
      21    -1     0     0   501   502  0.000000000E+00  0.000000000E+00 -5.286056099E+01  5.286056099E+01  0.000000000E+00  0.00000E+00  9.000E+00
      25     1     1     2     0     0 -4.572612121E+01  3.384394844E+00  7.113535843E+02  7.237066078E+02  1.250000000E+02  0.00000E+00  9.000E+00
      25     1     1     2     0     0  4.024930827E+01 -7.399054255E+00  4.684946700E+01  1.396231549E+02  1.250000000E+02  0.00000E+00  9.000E+00
      21     1     1     2   511   502  5.476812934E+00  4.014659411E+00  3.849161472E+01  3.908602530E+01  0.000000000E+00  0.00000E+00  9.000E+00
#rwgt            1           1   3.4461321658410551E-002           9       10138           0
</event>
<event>
      5   9999  3.79277E-02  1.86651E+02 -1.00000E+00  1.12751E-01
      21    -1     0     0   502   512  0.000000000E+00  0.000000000E+00  4.067714923E+02  4.067714923E+02  0.000000000E+00  0.00000E+00  9.000E+00
      21    -1     0     0   501   502  0.000000000E+00  0.000000000E+00 -3.234946515E+02  3.234946515E+02  0.000000000E+00  0.00000E+00  9.000E+00
      25     1     1     2     0     0  4.766072899E+01 -1.069395398E+02 -1.521699704E+02  2.291032740E+02  1.250000000E+02  0.00000E+00  9.000E+00
      25     1     1     2     0     0 -2.002824941E+02 -5.096376952E-01  5.686598029E+01  2.428416704E+02  1.250000000E+02  0.00000E+00  9.000E+00
      21     1     1     2   501   512  1.526217651E+02  1.074491775E+02  1.785808308E+02  2.583211994E+02  2.697398305E-06  0.00000E+00  9.000E+00
#rwgt            1           1   4.4848290735940322E-002           9       10632           0
</event>
<event>
      5   9999  3.79277E-02  3.35913E+01 -1.00000E+00  1.49706E-01
      21    -1     0     0   502   501  0.000000000E+00  0.000000000E+00  2.226907261E+02  2.226907261E+02  0.000000000E+00  0.00000E+00  9.000E+00
      21    -1     0     0   501   511  0.000000000E+00  0.000000000E+00 -1.931041229E+02  1.931041229E+02  0.000000000E+00  0.00000E+00  9.000E+00
      25     1     1     2     0     0 -2.678281901E+01 -7.406563107E+01 -7.576330067E+00  1.479372768E+02  1.250000000E+02  0.00000E+00  9.000E+00
      25     1     1     2     0     0 -6.766737069E+00  7.239135230E+01  1.139083838E+02  1.840826350E+02  1.250000000E+02  0.00000E+00  9.000E+00
      21     1     1     2   502   511  3.354955608E+01  1.674278771E+00 -7.674545049E+01  8.377493714E+01  1.651812370E-06  0.00000E+00  9.000E+00
#rwgt            1           1   3.5699243730316771E-002           9       10713           0
</event>
<event>
      5   9999  3.79277E-02  8.16656E+01 -1.00000E+00  1.27918E-01
      21    -1     0     0   502   512  0.000000000E+00  0.000000000E+00  1.400043245E+03  1.400043245E+03  0.000000000E+00  0.00000E+00  9.000E+00
      21    -1     0     0   501   502  0.000000000E+00  0.000000000E+00 -4.572645446E+02  4.572645446E+02  0.000000000E+00  0.00000E+00  9.000E+00
      25     1     1     2     0     0 -1.603682665E+02 -1.078351290E+02  2.814813875E+01  2.318700361E+02  1.250000000E+02  0.00000E+00  9.000E+00
      25     1     1     2     0     0  1.301955940E+02  3.194785458E+01 -3.303438215E+02  3.777877691E+02  1.250000000E+02  0.00000E+00  9.000E+00
      21     1     1     2   501   512  3.017267247E+01  7.588727446E+01  1.244974383E+03  1.247649984E+03  2.157918644E-05  0.00000E+00  9.000E+00
#rwgt            1           1   3.6175011250351781E-002           9       10846           0
</event>
<event>
      5   9999  3.79277E-02  2.23407E+01 -1.00000E+00  1.62498E-01
      21    -1     0     0   502   501  0.000000000E+00  0.000000000E+00  5.718238039E+02  5.718238039E+02  0.000000000E+00  0.00000E+00  9.000E+00
      21    -1     0     0   511   502  0.000000000E+00  0.000000000E+00 -1.133173606E+02  1.133173606E+02  0.000000000E+00  0.00000E+00  9.000E+00
      25     1     1     2     0     0  6.901144257E+01 -7.907425163E+01  1.206067278E+01  1.636636071E+02  1.250000000E+02  0.00000E+00  9.000E+00
      25     1     1     2     0     0 -9.034831379E+01  8.569588137E+01  4.618068153E+02  4.943653876E+02  1.250000000E+02  0.00000E+00  9.000E+00
      21     1     1     2   511   501  2.133687122E+01 -6.621629738E+00 -1.536104475E+01  2.711216977E+01  1.685873940E-07  0.00000E+00  9.000E+00
#rwgt            1           1   3.8336597410939893E-002           9       10926           0
</event>
<event>
      5   9999  3.79277E-02  4.36493E+01 -1.00000E+00  1.42527E-01
      21    -1     0     0   502   501  0.000000000E+00  0.000000000E+00  3.019742922E+02  3.019742922E+02  0.000000000E+00  0.00000E+00  9.000E+00
      21    -1     0     0   512   502  0.000000000E+00  0.000000000E+00 -2.691061943E+02  2.691061943E+02  0.000000000E+00  0.00000E+00  9.000E+00
      25     1     1     2     0     0 -2.012086817E+02  1.168008763E+02  4.351231055E+01  2.676671430E+02  1.250000000E+02  0.00000E+00  9.000E+00
      25     1     1     2     0     0  2.059495586E+02 -7.340975838E+01  1.585461633E+01  2.523501183E+02  1.250000000E+02  0.00000E+00  9.000E+00
      21     1     1     2   512   501 -4.740876942E+00 -4.339111791E+01 -2.649882895E+01  5.106322516E+01  1.066240300E-06  0.00000E+00  9.000E+00
#rwgt            1           1  0.10152738091433279                9       11043           0
</event>
<event>
      5   9999  3.79277E-02  3.58343E+01 -1.00000E+00  1.47866E-01
      21    -1     0     0   502   511  0.000000000E+00  0.000000000E+00  1.091416488E+02  1.091416488E+02  0.000000000E+00  0.00000E+00  9.000E+00
      21    -1     0     0   501   502  0.000000000E+00  0.000000000E+00 -3.557750806E+02  3.557750806E+02  0.000000000E+00  0.00000E+00  9.000E+00
      25     1     1     2     0     0  2.145481039E+01 -2.309274956E+01  1.564531245E+01  1.298589996E+02  1.250000000E+02  0.00000E+00  9.000E+00
      25     1     1     2     0     0 -2.672533661E+01  5.853729892E+01 -2.640862756E+02  2.991779069E+02  1.250000000E+02  0.00000E+00  9.000E+00
      21     1     1     2   501   511  5.270526219E+00 -3.544454936E+01  1.807531285E+00  3.587982296E+01  1.010645923E-06  0.00000E+00  9.000E+00
#rwgt            1           1   1.2165072496732926E-002           9       11133           0
</event>
<event>
      5   9999  3.79277E-02  2.22837E+01 -1.00000E+00  1.62586E-01
      21    -1     0     0   502   501  0.000000000E+00  0.000000000E+00  7.056368716E+02  7.056368716E+02  0.000000000E+00  0.00000E+00  9.000E+00
      21    -1     0     0   501   512  0.000000000E+00  0.000000000E+00 -1.633381159E+02  1.633381159E+02  0.000000000E+00  0.00000E+00  9.000E+00
      25     1     1     2     0     0 -2.278058821E+02 -4.691080629E+01  4.255866528E+02  5.008444297E+02  1.250000000E+02  0.00000E+00  9.000E+00
      25     1     1     2     0     0  2.212728877E+02  6.821534703E+01  1.680127662E+02  3.121991576E+02  1.250000000E+02  0.00000E+00  9.000E+00
      21     1     1     2   502   512  6.532994441E+00 -2.130454074E+01 -5.130066333E+01  5.593140022E+01  1.651812370E-06  0.00000E+00  9.000E+00
#rwgt            1           1   3.8517300269418409E-002           9       11337           0
</event>
<event>
      5   9999 -3.79277E-02  1.15420E+02 -1.00000E+00  1.21090E-01
      21    -1     0     0   502   501  0.000000000E+00  0.000000000E+00  1.102201441E+02  1.102201441E+02  0.000000000E+00  0.00000E+00  9.000E+00
      21    -1     0     0   511   502  0.000000000E+00  0.000000000E+00 -1.375081399E+03  1.375081399E+03  0.000000000E+00  0.00000E+00  9.000E+00
      25     1     1     2     0     0  1.778176660E+02 -8.818652288E+01 -2.661872684E+02  3.547909906E+02  1.250000000E+02  0.00000E+00  9.000E+00
      25     1     1     2     0     0 -2.088077450E+02  1.993684866E+02 -3.457260596E+02  4.674398101E+02  1.250000000E+02  0.00000E+00  9.000E+00
      21     1     1     2   511   501  3.099007900E+01 -1.111819637E+02 -6.529479270E+02  6.630707424E+02  1.321449896E-05  0.00000E+00  9.000E+00
#rwgt            1           1 -0.26656740085957026                9       11620           0
</event>
<event>
      5   9999  3.79277E-02  1.17872E+02 -1.00000E+00  1.20699E-01
      21    -1     0     0   502   501  0.000000000E+00  0.000000000E+00  7.381027340E+02  7.381027340E+02  0.000000000E+00  0.00000E+00  9.000E+00
      21    -1     0     0   501   512  0.000000000E+00  0.000000000E+00 -5.261209760E+02  5.261209760E+02  0.000000000E+00  0.00000E+00  9.000E+00
      25     1     1     2     0     0 -4.969717845E+01 -3.183614518E+02  4.457999167E+02  5.640801266E+02  1.250000000E+02  0.00000E+00  9.000E+00
      25     1     1     2     0     0 -5.071522425E+01  2.566275825E+02  1.299806730E+02  3.177258652E+02  1.250000000E+02  0.00000E+00  9.000E+00
      21     1     1     2   502   512  1.004124027E+02  6.173386937E+01 -3.637988317E+02  3.824177182E+02  5.394796609E-06  0.00000E+00  9.000E+00
#rwgt            1           1   4.9729509347382515E-003           9       11818           0
</event>
<event>
      5   9999  3.79277E-02  1.84953E+01 -1.00000E+00  1.69221E-01
      21    -1     0     0   511   501  0.000000000E+00  0.000000000E+00  9.727402995E+01  9.727402995E+01  0.000000000E+00  0.00000E+00  9.000E+00
      21    -1     0     0   501   502  0.000000000E+00  0.000000000E+00 -3.679221961E+02  3.679221961E+02  0.000000000E+00  0.00000E+00  9.000E+00
      25     1     1     2     0     0  7.622528675E+01 -7.914693025E+01 -2.051093769E+02  2.641389547E+02  1.250000000E+02  0.00000E+00  9.000E+00
      25     1     1     2     0     0 -6.736288860E+01  9.538066829E+01 -6.344792743E+01  1.824441562E+02  1.250000000E+02  0.00000E+00  9.000E+00
      21     1     1     2   511   502 -8.862398150E+00 -1.623373804E+01 -2.090861841E+00  1.861311514E+01  2.107342426E-07  0.00000E+00  9.000E+00
#rwgt            1           1   2.5124180577400474E-002           9       11878           0
</event>
<event>
      5   9999 -3.79277E-02  3.63550E+01 -1.00000E+00  1.47462E-01
      21    -1     0     0   502   501  0.000000000E+00  0.000000000E+00  1.469524689E+02  1.469524689E+02  0.000000000E+00  0.00000E+00  9.000E+00
      21    -1     0     0   512   502  0.000000000E+00  0.000000000E+00 -1.114376317E+03  1.114376317E+03  0.000000000E+00  0.00000E+00  9.000E+00
      25     1     1     2     0     0  5.604783454E+01  1.928002742E+02  3.919904876E+00  2.365452835E+02  1.250000000E+02  0.00000E+00  9.000E+00
      25     1     1     2     0     0 -2.577591778E+01 -1.726683406E+02 -4.150313621E+02  4.672844801E+02  1.250000000E+02  0.00000E+00  9.000E+00
      21     1     1     2   512   501 -3.027191676E+01 -2.013193356E+01 -5.563123910E+02  5.574990225E+02  7.629394531E-06  0.00000E+00  9.000E+00
#rwgt            1           1  -5.7824203794071015E-002           9       12049           0
</event>
<event>
      5   9999  3.79277E-02  1.04255E+01 -1.00000E+00  1.93688E-01
      21    -1     0     0   511   501  0.000000000E+00  0.000000000E+00  3.460277748E+02  3.460277748E+02  0.000000000E+00  0.00000E+00  9.000E+00
      21    -1     0     0   501   502  0.000000000E+00  0.000000000E+00 -2.348019985E+02  2.348019985E+02  0.000000000E+00  0.00000E+00  9.000E+00
      25     1     1     2     0     0 -6.281464702E+01 -1.130011396E+02  1.006108952E+02  2.060642853E+02  1.250000000E+02  0.00000E+00  9.000E+00
      25     1     1     2     0     0  5.391458588E+01  1.184307518E+02 -1.371429717E+02  2.266402882E+02  1.250000000E+02  0.00000E+00  9.000E+00
      21     1     1     2   511   502  8.900061142E+00 -5.429612159E+00  1.477578528E+02  1.481251998E+02  1.907348633E-06  0.00000E+00  9.000E+00
#rwgt            1           1   5.2124741143455292E-002           9       12159           0
</event>
<event>
      5   9999  3.79277E-02  1.02257E+02 -1.00000E+00  1.23394E-01
      21    -1     0     0   512   501  0.000000000E+00  0.000000000E+00  1.526485247E+03  1.526485247E+03  0.000000000E+00  0.00000E+00  9.000E+00
      21    -1     0     0   501   502  0.000000000E+00  0.000000000E+00 -7.144274571E+01  7.144274571E+01  0.000000000E+00  0.00000E+00  9.000E+00
      25     1     1     2     0     0 -8.053073217E+01 -9.153076127E+01  9.706307154E+02  9.862109637E+02  1.250000000E+02  0.00000E+00  9.000E+00
      25     1     1     2     0     0  1.760237381E+02  1.281023102E+02  2.422994916E+02  3.488962623E+02  1.250000000E+02  0.00000E+00  9.000E+00
      21     1     1     2   512   502 -9.549300592E+01 -3.657154891E+01  2.421122940E+02  2.628207664E+02  2.697398305E-06  0.00000E+00  9.000E+00
#rwgt            1           1   4.5470973952654196E-002           9       12380           0
</event>
<event>
      5   9999  3.79277E-02  4.07823E+01 -1.00000E+00  1.44320E-01
      21    -1     0     0   502   501  0.000000000E+00  0.000000000E+00  2.420324687E+02  2.420324687E+02  0.000000000E+00  0.00000E+00  9.000E+00
      21    -1     0     0   501   511  0.000000000E+00  0.000000000E+00 -3.832784446E+02  3.832784446E+02  0.000000000E+00  0.00000E+00  9.000E+00
      25     1     1     2     0     0 -1.849929489E+01  1.845990581E+02  1.141778530E+02  2.511585521E+02  1.250000000E+02  0.00000E+00  9.000E+00
      25     1     1     2     0     0  4.786272719E+01 -1.562973840E+02 -1.327621784E+02  2.448887684E+02  1.250000000E+02  0.00000E+00  9.000E+00
      21     1     1     2   502   511 -2.936343230E+01 -2.830167411E+01 -1.226616506E+02  1.292635929E+02  1.348699152E-06  0.00000E+00  9.000E+00
#rwgt            1           1   4.3647508512943023E-002           9       12466           0
</event>
<event>
      5   9999  3.79277E-02  7.62534E+01 -1.00000E+00  1.29366E-01
      21    -1     0     0   512   501  0.000000000E+00  0.000000000E+00  8.046393283E+02  8.046393283E+02  0.000000000E+00  0.00000E+00  9.000E+00
      21    -1     0     0   501   502  0.000000000E+00  0.000000000E+00 -8.251621595E+01  8.251621595E+01  0.000000000E+00  0.00000E+00  9.000E+00
      25     1     1     2     0     0  1.093909943E+02  8.863625344E+00  4.737802873E+02  5.021331637E+02  1.250000000E+02  0.00000E+00  9.000E+00
      25     1     1     2     0     0 -3.620550526E+01  1.254825513E+01  5.904133302E+00  1.308745816E+02  1.250000000E+02  0.00000E+00  9.000E+00
      21     1     1     2   512   502 -7.318548907E+01 -2.141188047E+01  2.424386918E+02  2.541477990E+02  3.814697266E-06  0.00000E+00  9.000E+00
#rwgt            1           1   1.5549747337753186E-002           9       12669           0
</event>
<event>
      5   9999  3.79277E-02  2.47978E+01 -1.00000E+00  1.59016E-01
      21    -1     0     0   502   501  0.000000000E+00  0.000000000E+00  2.459992870E+02  2.459992870E+02  0.000000000E+00  0.00000E+00  9.000E+00
      -4    -1     0     0     0   502  0.000000000E+00  0.000000000E+00 -1.604280910E+02  1.604280910E+02  0.000000000E+00  0.00000E+00  9.000E+00
      25     1     1     2     0     0  3.600920320E+01 -6.627536596E+01 -5.227853789E+01  1.550713783E+02  1.250000000E+02  0.00000E+00  9.000E+00
      25     1     1     2     0     0 -1.460441909E+01  7.879595544E+01  1.598739866E+02  2.181897872E+02  1.250000000E+02  0.00000E+00  9.000E+00
      -4     1     1     2     0   501 -2.140478411E+01 -1.252058948E+01 -2.202425276E+01  3.316621253E+01  5.331201500E-07  0.00000E+00  9.000E+00
#rwgt            1           1   3.4604766537641912E-002           9       12746           0
</event>
<event>
      5   9999  3.79277E-02  1.13760E+01 -1.00000E+00  1.89500E-01
      21    -1     0     0   502   501  0.000000000E+00  0.000000000E+00  1.396363281E+02  1.396363281E+02  0.000000000E+00  0.00000E+00  9.000E+00
      21    -1     0     0   501   511  0.000000000E+00  0.000000000E+00 -3.821178804E+02  3.821178804E+02  0.000000000E+00  0.00000E+00  9.000E+00
      25     1     1     2     0     0 -1.758012034E+02 -2.328669584E+01 -1.922318387E+02  2.898730983E+02  1.250000000E+02  0.00000E+00  9.000E+00
      25     1     1     2     0     0  1.652395943E+02  2.751362348E+01 -3.356946920E+01  2.116908885E+02  1.250000000E+02  0.00000E+00  9.000E+00
      21     1     1     2   502   511  1.056160905E+01 -4.226927641E+00 -1.668024434E+01  2.019022175E+01  2.384185791E-07  0.00000E+00  9.000E+00
#rwgt            1           1   4.2765691319385825E-002           9       12821           0
</event>
<event>
      5   9999  3.79277E-02  3.61122E+01 -1.00000E+00  1.47649E-01
      21    -1     0     0   502   512  0.000000000E+00  0.000000000E+00  2.157407898E+02  2.157407898E+02  0.000000000E+00  0.00000E+00  9.000E+00
      21    -1     0     0   501   502  0.000000000E+00  0.000000000E+00 -6.308603193E+02  6.308603193E+02  0.000000000E+00  0.00000E+00  9.000E+00
      25     1     1     2     0     0 -7.233460435E+00  2.171747676E+02 -2.804079678E+02  3.761260839E+02  1.250000000E+02  0.00000E+00  9.000E+00
      25     1     1     2     0     0  4.311908284E+01 -2.131356700E+02 -2.473021376E+02  3.522348881E+02  1.250000000E+02  0.00000E+00  9.000E+00
      21     1     1     2   501   512 -3.588562241E+01 -4.039097576E+00  1.125905759E+02  1.182401370E+02  2.336015456E-06  0.00000E+00  9.000E+00
#rwgt            1           1   2.9107819195542756E-002           9       13005           0
</event>
<event>
      5   9999  3.79277E-02  5.42373E+01 -1.00000E+00  1.37089E-01
      21    -1     0     0   502   501  0.000000000E+00  0.000000000E+00  3.383006236E+02  3.383006236E+02  0.000000000E+00  0.00000E+00  9.000E+00
       2    -1     0     0   501     0  0.000000000E+00  0.000000000E+00 -2.164061361E+03  2.164061361E+03  0.000000000E+00  0.00000E+00  9.000E+00
      25     1     1     2     0     0  3.028419879E+01  1.740375390E+02  1.396044465E+02  2.575278609E+02  1.250000000E+02  0.00000E+00  9.000E+00
      25     1     1     2     0     0 -2.735872085E+00 -1.273174099E+02  8.225946101E+01  1.964912893E+02  1.250000000E+02  0.00000E+00  9.000E+00
       2     1     1     2   502     0 -2.754832671E+01 -4.672012918E+01 -2.047624645E+03  2.048342835E+03  5.709316081E-05  0.00000E+00  9.000E+00
#rwgt            1           1   4.2243666259973771E-002           9       13176           0
</event>
<event>
      5   9999  3.79277E-02  4.31820E+01 -1.00000E+00  1.42808E-01
       3    -1     0     0   502     0  0.000000000E+00  0.000000000E+00  1.479996649E+02  1.479996649E+02  0.000000000E+00  0.00000E+00  9.000E+00
      21    -1     0     0   501   502  0.000000000E+00  0.000000000E+00 -1.133039653E+03  1.133039653E+03  0.000000000E+00  0.00000E+00  9.000E+00
      25     1     1     2     0     0  7.731342748E+01  1.982468662E+02 -3.615045993E+02  4.377096770E+02  1.250000000E+02  0.00000E+00  9.000E+00
      25     1     1     2     0     0 -1.000105157E+02 -1.615110110E+02 -7.106241220E+02  7.461230144E+02  1.250000000E+02  0.00000E+00  9.000E+00
       3     1     1     2   501     0  2.269708820E+01 -3.673585522E+01  8.708873297E+01  9.720662674E+01  0.000000000E+00  0.00000E+00  9.000E+00
#rwgt            1           1   3.6875507400214176E-002           9       13262           0
</event>
<event>
      5   9999  3.79277E-02  4.83053E+01 -1.00000E+00  1.39935E-01
      21    -1     0     0   502   501  0.000000000E+00  0.000000000E+00  1.357498017E+03  1.357498017E+03  0.000000000E+00  0.00000E+00  9.000E+00
      21    -1     0     0   511   502  0.000000000E+00  0.000000000E+00 -5.103547400E+01  5.103547400E+01  0.000000000E+00  0.00000E+00  9.000E+00
      25     1     1     2     0     0 -4.356229800E+01 -1.330813183E+02  3.556030705E+02  4.021030400E+02  1.250000000E+02  0.00000E+00  9.000E+00
      25     1     1     2     0     0  4.550314318E+01  1.813476544E+02  9.243731751E+02  9.513402518E+02  1.250000000E+02  0.00000E+00  9.000E+00
      21     1     1     2   511   501 -1.940845177E+00 -4.826633610E+01  2.648629720E+01  5.509019894E+01  5.840038640E-07  0.00000E+00  9.000E+00
#rwgt            1           1   9.4602229250254938E-002           9       13381           0
</event>
<event>
      5   9999  3.79277E-02  2.13623E+01 -1.00000E+00  1.64042E-01
      21    -1     0     0   502   512  0.000000000E+00  0.000000000E+00  1.462671608E+03  1.462671608E+03  0.000000000E+00  0.00000E+00  9.000E+00
      21    -1     0     0   501   502  0.000000000E+00  0.000000000E+00 -4.424510609E+01  4.424510609E+01  0.000000000E+00  0.00000E+00  9.000E+00
      25     1     1     2     0     0 -1.125654229E+02  1.658741671E+02  7.797584588E+02  8.147597608E+02  1.250000000E+02  0.00000E+00  9.000E+00
      25     1     1     2     0     0  1.013577486E+02 -1.476880438E+02  4.290186397E+02  4.814220027E+02  1.250000000E+02  0.00000E+00  9.000E+00
      21     1     1     2   501   512  1.120767434E+01 -1.818612332E+01  2.096494031E+02  2.107349503E+02  3.814697266E-06  0.00000E+00  9.000E+00
#rwgt            1           1   3.5288445466710942E-002           9       13546           0
</event>
<event>
      5   9999  3.79277E-02  4.35374E+01 -1.00000E+00  1.42594E-01
      21    -1     0     0   502   501  0.000000000E+00  0.000000000E+00  2.011098869E+02  2.011098869E+02  0.000000000E+00  0.00000E+00  9.000E+00
      21    -1     0     0   511   502  0.000000000E+00  0.000000000E+00 -7.187078704E+02  7.187078704E+02  0.000000000E+00  0.00000E+00  9.000E+00
      25     1     1     2     0     0 -4.466761376E+01 -1.936738749E+02  4.141926850E-01  2.347976514E+02  1.250000000E+02  0.00000E+00  9.000E+00
      25     1     1     2     0     0  1.164229517E+01  1.653042363E+02 -4.806955613E+01  2.130650506E+02  1.250000000E+02  0.00000E+00  9.000E+00
      21     1     1     2   511   501  3.302531859E+01  2.836963862E+01 -4.699426200E+02  4.719550553E+02  0.000000000E+00  0.00000E+00  9.000E+00
#rwgt            1           1   2.9452648865871039E-002           9       13774           0
</event>
<event>
      5   9999  3.79277E-02  2.00598E+02 -1.00000E+00  1.11601E-01
      21    -1     0     0   502   501  0.000000000E+00  0.000000000E+00  2.556041519E+02  2.556041519E+02  0.000000000E+00  0.00000E+00  9.000E+00
       2    -1     0     0   501     0  0.000000000E+00  0.000000000E+00 -7.310562533E+02  7.310562533E+02  0.000000000E+00  0.00000E+00  9.000E+00
      25     1     1     2     0     0  5.293259922E+01 -1.948770949E+02 -7.788570608E+01  2.499402437E+02  1.250000000E+02  0.00000E+00  9.000E+00
      25     1     1     2     0     0 -7.492660940E+01 -4.511813839E+00  1.153860830E+02  1.859389723E+02  1.250000000E+02  0.00000E+00  9.000E+00
       2     1     1     2   502     0  2.199401018E+01  1.993889088E+02 -5.129524783E+02  5.507811893E+02  0.000000000E+00  0.00000E+00  9.000E+00
#rwgt            1           1   9.3768327011770902E-002           9       13880           0
</event>
<event>
      5   9999  3.79277E-02  2.97969E+01 -1.00000E+00  1.53245E-01
      21    -1     0     0   502   501  0.000000000E+00  0.000000000E+00  8.645767565E+02  8.645767565E+02  0.000000000E+00  0.00000E+00  9.000E+00
      21    -1     0     0   501   511  0.000000000E+00  0.000000000E+00 -9.901652296E+01  9.901652296E+01  0.000000000E+00  0.00000E+00  9.000E+00
      25     1     1     2     0     0  6.111752411E+01 -2.181909277E+02  5.267533255E+02  5.868872964E+02  1.250000000E+02  0.00000E+00  9.000E+00
      25     1     1     2     0     0 -3.155930690E+01  2.144268140E+02  2.402534106E+02  3.468739680E+02  1.250000000E+02  0.00000E+00  9.000E+00
      21     1     1     2   502   511 -2.955821721E+01  3.764113655E+00 -1.446502504E+00  2.983201512E+01  5.409757751E-07  0.00000E+00  9.000E+00
#rwgt            1           1   3.2020321824746033E-002           9       13999           0
</event>
<event>
      5   9999  3.79277E-02  4.93478E+01 -1.00000E+00  1.39402E-01
      21    -1     0     0   502   501  0.000000000E+00  0.000000000E+00  4.795163234E+01  4.795163234E+01  0.000000000E+00  0.00000E+00  9.000E+00
       2    -1     0     0   501     0  0.000000000E+00  0.000000000E+00 -1.347262202E+03  1.347262202E+03  0.000000000E+00  0.00000E+00  9.000E+00
      25     1     1     2     0     0  6.227319400E+01 -1.023700519E+02 -5.126308196E+02  5.410849613E+02  1.250000000E+02  0.00000E+00  9.000E+00
      25     1     1     2     0     0 -1.006750101E+02  1.333620725E+02 -3.028122759E+02  3.677515118E+02  1.250000000E+02  0.00000E+00  9.000E+00
       2     1     1     2   502     0  3.840181612E+01 -3.099202058E+01 -4.838674746E+02  4.863773615E+02  0.000000000E+00  0.00000E+00  9.000E+00
#rwgt            1           1   4.4645603835615784E-002           9       14136           0
</event>
<event>
      5   9999  3.79277E-02  8.17445E+01 -1.00000E+00  1.27898E-01
      21    -1     0     0   502   511  0.000000000E+00  0.000000000E+00  3.682700905E+02  3.682700905E+02  0.000000000E+00  0.00000E+00  9.000E+00
      21    -1     0     0   501   502  0.000000000E+00  0.000000000E+00 -2.943253662E+02  2.943253662E+02  0.000000000E+00  0.00000E+00  9.000E+00
      25     1     1     2     0     0 -1.304736167E+02  2.981568982E+01 -1.614564720E+02  2.441424428E+02  1.250000000E+02  0.00000E+00  9.000E+00
      25     1     1     2     0     0  2.111446973E+02 -1.661215053E+01  1.115301556E+02  2.700407790E+02  1.250000000E+02  0.00000E+00  9.000E+00
      21     1     1     2   501   511 -8.067108058E+01 -1.320353929E+01  1.238710408E+02  1.484122348E+02  2.697398305E-06  0.00000E+00  9.000E+00
#rwgt            2          11   1.4911161070507162E-003           9       14308           0
</event>
<event>
      5   9999  3.79277E-02  1.15108E+01 -1.00000E+00  1.88949E-01
      21    -1     0     0   502   501  0.000000000E+00  0.000000000E+00  4.351594078E+02  4.351594078E+02  0.000000000E+00  0.00000E+00  9.000E+00
      21    -1     0     0   501   512  0.000000000E+00  0.000000000E+00 -1.570095937E+02  1.570095937E+02  0.000000000E+00  0.00000E+00  9.000E+00
      25     1     1     2     0     0 -1.103931494E+02  1.843474739E+02  1.060856472E+02  2.702772708E+02  1.250000000E+02  0.00000E+00  9.000E+00
      25     1     1     2     0     0  1.216834133E+02 -1.865896639E+02  1.754568920E+02  3.098913950E+02  1.250000000E+02  0.00000E+00  9.000E+00
      21     1     1     2   502   512 -1.129026383E+01  2.242190057E+00 -3.392725128E+00  1.200033572E+01  1.884864366E-07  0.00000E+00  9.000E+00
#rwgt            1           1   2.2026737323656596E-002           9       14403           0
</event>
<event>
      5   9999  3.79277E-02  6.46024E+01 -1.00000E+00  1.33010E-01
      21    -1     0     0   502   501  0.000000000E+00  0.000000000E+00  4.798425333E+02  4.798425333E+02  0.000000000E+00  0.00000E+00  9.000E+00
      21    -1     0     0   501   511  0.000000000E+00  0.000000000E+00 -1.605021714E+02  1.605021714E+02  0.000000000E+00  0.00000E+00  9.000E+00
      25     1     1     2     0     0  3.076551653E+01 -1.515887701E+01 -7.907327378E+01  1.518350789E+02  1.250000000E+02  0.00000E+00  9.000E+00
      25     1     1     2     0     0  3.321425463E+01  2.410674642E+01  4.028162849E+02  4.237573378E+02  1.250000000E+02  0.00000E+00  9.000E+00
      21     1     1     2   502   511 -6.397977116E+01 -8.947869413E+00 -4.402649265E+00  6.475228803E+01  7.748603821E-07  0.00000E+00  9.000E+00
#rwgt            1           1   4.1789192362644313E-002           9       14699           0
</event>
<event>
      5   9999  3.79277E-02  1.18845E+01 -1.00000E+00  1.87471E-01
      21    -1     0     0   502   501  0.000000000E+00  0.000000000E+00  2.678167046E+02  2.678167046E+02  0.000000000E+00  0.00000E+00  9.000E+00
      21    -1     0     0   501   512  0.000000000E+00  0.000000000E+00 -2.774386840E+02  2.774386840E+02  0.000000000E+00  0.00000E+00  9.000E+00
      25     1     1     2     0     0 -1.250034245E+01  2.235596128E+02  4.016863423E+00  2.564688952E+02  1.250000000E+02  0.00000E+00  9.000E+00
      25     1     1     2     0     0  6.170093193E-01 -2.237264222E+02  1.607651287E+01  2.567826843E+02  1.250000000E+02  0.00000E+00  9.000E+00
      21     1     1     2   502   512  1.188333313E+01  1.668094125E-01 -2.971535570E+01  3.200380909E+01  6.743495762E-07  0.00000E+00  9.000E+00
#rwgt            1           1   4.2217719308512154E-002           9       14871           0
</event>
<event>
      5   9999  3.79277E-02  7.60452E+01 -1.00000E+00  1.29424E-01
      21    -1     0     0   502   501  0.000000000E+00  0.000000000E+00  6.268163661E+02  6.268163661E+02  0.000000000E+00  0.00000E+00  9.000E+00
      21    -1     0     0   501   511  0.000000000E+00  0.000000000E+00 -1.393434078E+02  1.393434078E+02  0.000000000E+00  0.00000E+00  9.000E+00
      25     1     1     2     0     0 -9.790919244E+01  2.275392078E+01  4.540625125E+01  1.667053644E+02  1.250000000E+02  0.00000E+00  9.000E+00
      25     1     1     2     0     0  1.729435560E+02 -1.039613236E+01  4.717107964E+02  5.178355227E+02  1.250000000E+02  0.00000E+00  9.000E+00
      21     1     1     2   502   511 -7.503436355E+01 -1.235778842E+01 -2.964408941E+01  8.161888681E+01  1.846782373E-06  0.00000E+00  9.000E+00
#rwgt            1           1   4.4302771975613379E-002           9       15200           0
</event>
<event>
      5   9999  3.79277E-02  7.35770E+01 -1.00000E+00  1.30134E-01
      21    -1     0     0   502   501  0.000000000E+00  0.000000000E+00  1.995886189E+02  1.995886189E+02  0.000000000E+00  0.00000E+00  9.000E+00
      -1    -1     0     0     0   502  0.000000000E+00  0.000000000E+00 -6.753229994E+02  6.753229994E+02  0.000000000E+00  0.00000E+00  9.000E+00
      25     1     1     2     0     0 -1.668302679E+02  5.593725388E+01 -4.771158680E+01  2.210491126E+02  1.250000000E+02  0.00000E+00  9.000E+00
      25     1     1     2     0     0  1.461221390E+02  1.466549048E+01  2.539256403E+01  1.945161649E+02  1.250000000E+02  0.00000E+00  9.000E+00
      -1     1     1     2     0   501  2.070812893E+01 -7.060274437E+01 -4.534153577E+02  4.593463407E+02  9.344061824E-06  0.00000E+00  9.000E+00
#rwgt            1           1   3.0712742539690117E-002           9       15307           0
</event>
<event>
      5   9999  3.79277E-02  1.42068E+02 -1.00000E+00  1.17336E-01
      21    -1     0     0   511   501  0.000000000E+00  0.000000000E+00  2.803684103E+03  2.803684103E+03  0.000000000E+00  0.00000E+00  9.000E+00
      21    -1     0     0   501   502  0.000000000E+00  0.000000000E+00 -4.169550786E+01  4.169550786E+01  0.000000000E+00  0.00000E+00  9.000E+00
      25     1     1     2     0     0 -3.805465754E+01 -2.481133743E+02  1.662222568E+03  1.685709723E+03  1.250000000E+02  0.00000E+00  9.000E+00
      25     1     1     2     0     0  2.768870845E+01  1.064242809E+02  2.654114865E+02  3.133066378E+02  1.250000000E+02  0.00000E+00  9.000E+00
      21     1     1     2   511   502  1.036594908E+01  1.416890934E+02  8.343545404E+02  8.463632501E+02  1.078959322E-05  0.00000E+00  9.000E+00
#rwgt            2          11   8.5196135641610088E-004           9       15408           0
</event>
<event>
      5   9999  3.79277E-02  6.38438E+01 -1.00000E+00  1.33278E-01
      21    -1     0     0   502   501  0.000000000E+00  0.000000000E+00  3.634060429E+02  3.634060429E+02  0.000000000E+00  0.00000E+00  9.000E+00
      21    -1     0     0   512   502  0.000000000E+00  0.000000000E+00 -2.282602836E+02  2.282602836E+02  0.000000000E+00  0.00000E+00  9.000E+00
      25     1     1     2     0     0 -4.336132835E+00  1.566854138E+02  2.261386049E+02  3.022131525E+02  1.250000000E+02  0.00000E+00  9.000E+00
      25     1     1     2     0     0  6.493612707E+01 -1.365937737E+02 -2.528276632E+01  1.978352291E+02  1.250000000E+02  0.00000E+00  9.000E+00
      21     1     1     2   512   501 -6.059999424E+01 -2.009164008E+01 -6.571007929E+01  9.161794488E+01  1.348699152E-06  0.00000E+00  9.000E+00
#rwgt            1           1   3.9825936401574821E-002           9       15473           0
</event>
<event>
      5   9999 -3.79277E-02  4.56657E+00 -1.00000E+00  2.50612E-01
      21    -1     0     0   502   501  0.000000000E+00  0.000000000E+00  1.095843116E+03  1.095843116E+03  0.000000000E+00  0.00000E+00  9.000E+00
      21    -1     0     0   511   502  0.000000000E+00  0.000000000E+00 -3.022052511E+01  3.022052511E+01  0.000000000E+00  0.00000E+00  9.000E+00
      25     1     1     2     0     0  3.037402977E+01 -1.194573520E+02  6.151256950E+02  6.396852830E+02  1.250000000E+02  0.00000E+00  9.000E+00
      25     1     1     2     0     0 -3.202799450E+01  1.237138733E+02  4.403275068E+02  4.752307104E+02  1.250000000E+02  0.00000E+00  9.000E+00
      21     1     1     2   511   501  1.653964729E+00 -4.256521397E+00  1.016938870E+01  1.114764729E+01  2.384185791E-07  0.00000E+00  9.000E+00
#rwgt            1           1  -5.3917035555706837E-002           9       15579           0
</event>
<event>
      5   9999  3.79277E-02  4.55349E+01 -1.00000E+00  1.41434E-01
      21    -1     0     0   502   501  0.000000000E+00  0.000000000E+00  2.195824820E+02  2.195824820E+02  0.000000000E+00  0.00000E+00  9.000E+00
      21    -1     0     0   501   512  0.000000000E+00  0.000000000E+00 -4.090820952E+02  4.090820952E+02  0.000000000E+00  0.00000E+00  9.000E+00
      25     1     1     2     0     0  5.124608011E+01  7.149023948E+01  1.628319719E+02  2.233299490E+02  1.250000000E+02  0.00000E+00  9.000E+00
      25     1     1     2     0     0 -4.028556509E+01 -2.729413938E+01 -3.265059444E+02  3.529858758E+02  1.250000000E+02  0.00000E+00  9.000E+00
      21     1     1     2   502   512 -1.096051501E+01 -4.419610009E+01 -2.582564063E+01  5.234875229E+01  8.920806376E-07  0.00000E+00  9.000E+00
#rwgt            1           1   4.4716037101475363E-002           9       16019           0
</event>
<event>
      5   9999  3.79277E-02  1.27477E+02 -1.00000E+00  1.19265E-01
      21    -1     0     0   511   501  0.000000000E+00  0.000000000E+00  5.280783322E+02  5.280783322E+02  0.000000000E+00  0.00000E+00  9.000E+00
      21    -1     0     0   501   502  0.000000000E+00  0.000000000E+00 -1.943498382E+02  1.943498382E+02  0.000000000E+00  0.00000E+00  9.000E+00
      25     1     1     2     0     0 -3.810650357E+01  1.271240590E+02  2.503797241E+02  3.097218723E+02  1.250000000E+02  0.00000E+00  9.000E+00
      25     1     1     2     0     0  1.567496506E+02 -8.049579418E+01 -5.666751322E+01  2.233522619E+02  1.250000000E+02  0.00000E+00  9.000E+00
      21     1     1     2   511   502 -1.186431470E+02 -4.662826484E+01  1.400162832E+02  1.893540361E+02  1.907348633E-06  0.00000E+00  9.000E+00
#rwgt            1           1   3.5109839302135980E-002           9       16131           0
</event>
<event>
      5   9999 -3.79277E-02  2.02936E+01 -1.00000E+00  1.65849E-01
      21    -1     0     0   502   501  0.000000000E+00  0.000000000E+00  1.967546181E+02  1.967546181E+02  0.000000000E+00  0.00000E+00  9.000E+00
      21    -1     0     0   512   502  0.000000000E+00  0.000000000E+00 -1.725995792E+03  1.725995792E+03  0.000000000E+00  0.00000E+00  9.000E+00
      25     1     1     2     0     0  2.616424307E+02 -3.467751588E+02 -1.812567984E+02  4.870203274E+02  1.250000000E+02  0.00000E+00  9.000E+00
      25     1     1     2     0     0 -2.655221679E+02  3.666944755E+02 -1.320689275E+03  1.401717525E+03  1.250000000E+02  0.00000E+00  9.000E+00
      21     1     1     2   512   501  3.879737164E+00 -1.991931674E+01 -2.729510048E+01  3.401255724E+01  4.768371582E-07  0.00000E+00  9.000E+00
#rwgt            1           1  -4.5388731117899588E-002           9       16217           0
</event>
<event>
      5   9999  3.79277E-02  5.49763E+01 -1.00000E+00  1.36765E-01
      21    -1     0     0   511   501  0.000000000E+00  0.000000000E+00  4.401296638E+02  4.401296638E+02  0.000000000E+00  0.00000E+00  9.000E+00
      21    -1     0     0   501   502  0.000000000E+00  0.000000000E+00 -1.902270670E+02  1.902270670E+02  0.000000000E+00  0.00000E+00  9.000E+00
      25     1     1     2     0     0 -1.064656790E+02 -1.761313445E+02  6.494874713E+01  2.494003430E+02  1.250000000E+02  0.00000E+00  9.000E+00
      25     1     1     2     0     0  1.590954534E+02  1.602411812E+02  9.400471690E+01  2.746825190E+02  1.250000000E+02  0.00000E+00  9.000E+00
      21     1     1     2   511   502 -5.262977444E+01  1.589016334E+01  9.094913280E+01  1.062738689E+02  1.348699152E-06  0.00000E+00  9.000E+00
#rwgt            1           1   2.7134235666828745E-002           9       16467           0
</event>
<event>
      5   9999  3.79277E-02  7.73169E+01 -1.00000E+00  1.29071E-01
      21    -1     0     0   502   501  0.000000000E+00  0.000000000E+00  4.328686780E+02  4.328686780E+02  0.000000000E+00  0.00000E+00  9.000E+00
      -2    -1     0     0     0   502  0.000000000E+00  0.000000000E+00 -1.124461850E+03  1.124461850E+03  0.000000000E+00  0.00000E+00  9.000E+00
      25     1     1     2     0     0  1.488766833E+02 -1.245995740E+01  1.224012094E+02  2.300577611E+02  1.250000000E+02  0.00000E+00  9.000E+00
      25     1     1     2     0     0 -1.787464676E+02  8.377403005E+01  2.016826205E+02  3.086572002E+02  1.250000000E+02  0.00000E+00  9.000E+00
      -2     1     1     2     0   501  2.986978432E+01 -7.131407265E+01 -1.015677002E+03  1.018615567E+03  0.000000000E+00  0.00000E+00  9.000E+00
#rwgt            1           1   3.6810816364150442E-002           9       16580           0
</event>
<event>
      5   9999  3.79277E-02  2.51761E+01 -1.00000E+00  1.58523E-01
       2    -1     0     0   502     0  0.000000000E+00  0.000000000E+00  1.812054329E+02  1.812054329E+02  0.000000000E+00  0.00000E+00  9.000E+00
      21    -1     0     0   501   502  0.000000000E+00  0.000000000E+00 -3.005708312E+02  3.005708312E+02  0.000000000E+00  0.00000E+00  9.000E+00
      25     1     1     2     0     0 -8.463421401E+01 -2.813229698E+01 -2.117070125E+02  2.615324750E+02  1.250000000E+02  0.00000E+00  9.000E+00
      25     1     1     2     0     0  1.073950953E+02  3.889242560E+01  9.624380237E+01  1.947670320E+02  1.250000000E+02  0.00000E+00  9.000E+00
       2     1     1     2   501     0 -2.276088126E+01 -1.076012862E+01 -3.902188113E+00  2.547675716E+01  2.230201594E-07  0.00000E+00  9.000E+00
#rwgt            1           1   4.9850028054984168E-002           9       16741           0
</event>
<event>
      5   9999  3.79277E-02  2.79857E+01 -1.00000E+00  1.55166E-01
      21    -1     0     0   502   511  0.000000000E+00  0.000000000E+00  8.125220100E+02  8.125220100E+02  0.000000000E+00  0.00000E+00  9.000E+00
      21    -1     0     0   501   502  0.000000000E+00  0.000000000E+00 -7.240006968E+01  7.240006968E+01  0.000000000E+00  0.00000E+00  9.000E+00
      25     1     1     2     0     0 -1.135927041E+02  7.663633187E+01  1.056910725E+02  2.134760703E+02  1.250000000E+02  0.00000E+00  9.000E+00
      25     1     1     2     0     0  1.323007085E+02 -5.582258308E+01  5.762473919E+02  6.068819448E+02  1.250000000E+02  0.00000E+00  9.000E+00
      21     1     1     2   501   511 -1.870800436E+01 -2.081374879E+01  5.818347601E+01  6.456406467E+01  6.743495762E-07  0.00000E+00  9.000E+00
#rwgt            1           1   4.1503124551239348E-002           9       16930           0
</event>
<event>
      5   9999  3.79277E-02  1.19262E+01 -1.00000E+00  1.87310E-01
      21    -1     0     0   502   501  0.000000000E+00  0.000000000E+00  3.896586116E+02  3.896586116E+02  0.000000000E+00  0.00000E+00  9.000E+00
      21    -1     0     0   512   502  0.000000000E+00  0.000000000E+00 -1.432631212E+02  1.432631212E+02  0.000000000E+00  0.00000E+00  9.000E+00
      25     1     1     2     0     0  1.036797533E+02 -4.222117628E+01  2.606332791E+02  3.099787495E+02  1.250000000E+02  0.00000E+00  9.000E+00
      25     1     1     2     0     0 -1.142930677E+02  4.766095464E+01  2.879011221E+01  1.782928559E+02  1.250000000E+02  0.00000E+00  9.000E+00
      21     1     1     2   512   501  1.061331440E+01 -5.439778358E+00 -4.302790086E+01  4.465012747E+01  4.768371582E-07  0.00000E+00  9.000E+00
#rwgt            1           1   2.7316156635288857E-002           9       17096           0
</event>
<event>
      5   9999  3.79277E-02  2.31561E+01 -1.00000E+00  1.61284E-01
      21    -1     0     0   511   501  0.000000000E+00  0.000000000E+00  1.124265764E+02  1.124265764E+02  0.000000000E+00  0.00000E+00  9.000E+00
      21    -1     0     0   501   502  0.000000000E+00  0.000000000E+00 -3.934327218E+02  3.934327218E+02  0.000000000E+00  0.00000E+00  9.000E+00
      25     1     1     2     0     0 -4.148630829E+01  1.377415623E+02 -1.133658113E+02  2.217445804E+02  1.250000000E+02  0.00000E+00  9.000E+00
      25     1     1     2     0     0  3.291472968E+01 -1.592528323E+02 -1.585225250E+02  2.592281523E+02  1.250000000E+02  0.00000E+00  9.000E+00
      21     1     1     2   511   502  8.571578607E+00  2.151127001E+01 -9.117809103E+00  2.488656545E+01  4.298152060E-07  0.00000E+00  9.000E+00
#rwgt            1           1   3.2323939792867955E-002           9       17337           0
</event>
<event>
      5   9999  3.79277E-02  1.04798E+02 -1.00000E+00  1.22919E-01
       2    -1     0     0   502     0  0.000000000E+00  0.000000000E+00  1.532508338E+03  1.532508338E+03  0.000000000E+00  0.00000E+00  9.000E+00
      21    -1     0     0   501   502  0.000000000E+00  0.000000000E+00 -2.513254788E+02  2.513254788E+02  0.000000000E+00  0.00000E+00  9.000E+00
      25     1     1     2     0     0  5.586342514E+01 -2.109866396E+02  1.652040157E+01  2.520595327E+02  1.250000000E+02  0.00000E+00  9.000E+00
      25     1     1     2     0     0  4.571797409E+01  1.852225103E+02 -3.249747040E+01  2.303879273E+02  1.250000000E+02  0.00000E+00  9.000E+00
       2     1     1     2   501     0 -1.015813992E+02  2.576412931E+01  1.297159928E+03  1.301386357E+03  1.525878906E-05  0.00000E+00  9.000E+00
#rwgt            1           1  0.28939100772389897                9       17447           0
</event>
<event>
      5   9999  3.79277E-02  7.96159E+01 -1.00000E+00  1.28451E-01
      21    -1     0     0   502   511  0.000000000E+00  0.000000000E+00  7.247690738E+02  7.247690738E+02  0.000000000E+00  0.00000E+00  9.000E+00
      21    -1     0     0   501   502  0.000000000E+00  0.000000000E+00 -9.031642530E+01  9.031642530E+01  0.000000000E+00  0.00000E+00  9.000E+00
      25     1     1     2     0     0 -4.086662919E+01 -1.414206004E+02  2.886822166E+02  3.473215942E+02  1.250000000E+02  0.00000E+00  9.000E+00
      25     1     1     2     0     0  1.334445028E+01  6.671302183E+01  3.445191470E+01  1.464262137E+02  1.250000000E+02  0.00000E+00  9.000E+00
      21     1     1     2   501   511  2.752217891E+01  7.470757860E+01  3.113185173E+02  3.213376912E+02  5.394796609E-06  0.00000E+00  9.000E+00
#rwgt            1           1   3.9493657794849583E-002           9       17555           0
</event>
<event>
      5   9999  3.79277E-02  1.04736E+02 -1.00000E+00  1.22931E-01
      21    -1     0     0   502   501  0.000000000E+00  0.000000000E+00  4.106393432E+02  4.106393432E+02  0.000000000E+00  0.00000E+00  9.000E+00
      21    -1     0     0   501   512  0.000000000E+00  0.000000000E+00 -3.637916052E+02  3.637916052E+02  0.000000000E+00  0.00000E+00  9.000E+00
      25     1     1     2     0     0  2.513950628E+00 -1.812681534E+02  2.912812525E+02  3.651496014E+02  1.250000000E+02  0.00000E+00  9.000E+00
      25     1     1     2     0     0 -1.030442883E+02  1.518875548E+02 -1.476201604E+02  2.666545826E+02  1.250000000E+02  0.00000E+00  9.000E+00
      21     1     1     2   502   512  1.005303377E+02  2.938059867E+01 -9.681335406E+01  1.426267643E+02  2.336015456E-06  0.00000E+00  9.000E+00
#rwgt            1           1   3.4910660492348825E-002           9       17613           0
</event>
<event>
      5   9999  3.79277E-02  4.42924E+01 -1.00000E+00  1.42147E-01
      21    -1     0     0   502   501  0.000000000E+00  0.000000000E+00  8.785198488E+02  8.785198488E+02  0.000000000E+00  0.00000E+00  9.000E+00
      21    -1     0     0   501   511  0.000000000E+00  0.000000000E+00 -1.259187555E+02  1.259187555E+02  0.000000000E+00  0.00000E+00  9.000E+00
      25     1     1     2     0     0  5.914372284E+01 -1.308963845E+02  4.491562939E+02  4.878506122E+02  1.250000000E+02  0.00000E+00  9.000E+00
      25     1     1     2     0     0 -8.716445438E+01  9.659394235E+01  3.842156296E+02  4.244698833E+02  1.250000000E+02  0.00000E+00  9.000E+00
      21     1     1     2   502   511  2.802073154E+01  3.430244216E+01 -8.077083024E+01  9.211810871E+01  3.303624740E-06  0.00000E+00  9.000E+00
#rwgt            2          11   1.9763309967539668E-003           9       17731           0
</event>
<event>
      5   9999  3.79277E-02  4.46255E+01 -1.00000E+00  1.41953E-01
      21    -1     0     0   502   512  0.000000000E+00  0.000000000E+00  4.227963282E+02  4.227963282E+02  0.000000000E+00  0.00000E+00  9.000E+00
      21    -1     0     0   501   502  0.000000000E+00  0.000000000E+00 -1.770092304E+02  1.770092304E+02  0.000000000E+00  0.00000E+00  9.000E+00
      25     1     1     2     0     0  6.529469145E+01 -1.158353983E+02  2.806342764E+02  3.347563790E+02  1.250000000E+02  0.00000E+00  9.000E+00
      25     1     1     2     0     0 -1.090366546E+02  1.246712160E+02 -5.705583217E+01  2.152028627E+02  1.250000000E+02  0.00000E+00  9.000E+00
      21     1     1     2   501   512  4.374196313E+01 -8.835817739E+00  2.220865354E+01  4.984631687E+01  1.118282261E-06  0.00000E+00  9.000E+00
#rwgt            1           1   4.6713304192119921E-002           9       17751           0
</event>
<event>
      5   9999  3.79277E-02  5.43875E+01 -1.00000E+00  1.37023E-01
      21    -1     0     0   511   501  0.000000000E+00  0.000000000E+00  2.921944899E+02  2.921944899E+02  0.000000000E+00  0.00000E+00  9.000E+00
      21    -1     0     0   501   502  0.000000000E+00  0.000000000E+00 -9.414615946E+02  9.414615946E+02  0.000000000E+00  0.00000E+00  9.000E+00
      25     1     1     2     0     0 -1.867214754E+02 -3.741470281E+02 -5.840563715E+02  7.291075045E+02  1.250000000E+02  0.00000E+00  9.000E+00
      25     1     1     2     0     0  2.374157482E+02  3.544469346E+02 -6.968371203E+01  4.499774291E+02  1.250000000E+02  0.00000E+00  9.000E+00
      21     1     1     2   511   502 -5.069427281E+01  1.970009349E+01  4.472978816E+00  5.457115098E+01  9.848303581E-07  0.00000E+00  9.000E+00
#rwgt            1           1  0.10624023078334678                9       17843           0
</event>
<event>
      5   9999 -3.79277E-02  4.63799E+01 -1.00000E+00  1.40964E-01
      21    -1     0     0   502   501  0.000000000E+00  0.000000000E+00  4.870454518E+02  4.870454518E+02  0.000000000E+00  0.00000E+00  9.000E+00
      21    -1     0     0   512   502  0.000000000E+00  0.000000000E+00 -4.853205904E+02  4.853205904E+02  0.000000000E+00  0.00000E+00  9.000E+00
      25     1     1     2     0     0 -2.281068998E+02 -2.075184026E+02  1.022387790E+02  3.481011535E+02  1.250000000E+02  0.00000E+00  9.000E+00
      25     1     1     2     0     0  1.830447866E+02  1.965413084E+02  1.755382544E+02  3.443436635E+02  1.250000000E+02  0.00000E+00  9.000E+00
      21     1     1     2   512   501  4.506211313E+01  1.097709415E+01 -2.760521720E+02  2.799212252E+02  5.394796609E-06  0.00000E+00  9.000E+00
#rwgt            1           1 -0.23167042916404779                9       18024           0
</event>
<event>
      5   9999 -3.79277E-02  5.65410E+01 -1.00000E+00  1.36096E-01
      21    -1     0     0   502   501  0.000000000E+00  0.000000000E+00  1.513518838E+02  1.513518838E+02  0.000000000E+00  0.00000E+00  9.000E+00
       3    -1     0     0   501     0  0.000000000E+00  0.000000000E+00 -7.160551191E+02  7.160551191E+02  0.000000000E+00  0.00000E+00  9.000E+00
      25     1     1     2     0     0 -1.170441439E+02  1.155010808E+02 -1.143795338E+01  2.068711146E+02  1.250000000E+02  0.00000E+00  9.000E+00
      25     1     1     2     0     0  1.386504063E+02 -6.325114115E+01 -1.360289151E+02  2.394859239E+02  1.250000000E+02  0.00000E+00  9.000E+00
       3     1     1     2   502     0 -2.160626237E+01 -5.224993967E+01 -4.172363668E+02  4.210499644E+02  0.000000000E+00  0.00000E+00  9.000E+00
#rwgt            1           1  -3.0131720545400337E-002           9       18111           0
</event>
<event>
      5   9999 -3.79277E-02  7.45931E+01 -1.00000E+00  1.29838E-01
      -3    -1     0     0     0   501  0.000000000E+00  0.000000000E+00  7.620162464E+01  7.620162464E+01  0.000000000E+00  0.00000E+00  9.000E+00
      21    -1     0     0   501   502  0.000000000E+00  0.000000000E+00 -2.387961750E+03  2.387961750E+03  0.000000000E+00  0.00000E+00  9.000E+00
      25     1     1     2     0     0  5.188721636E+00 -1.038980508E+02 -2.797799238E+02  3.236101568E+02  1.250000000E+02  0.00000E+00  9.000E+00
      25     1     1     2     0     0  7.425187161E+00  3.037917548E+01 -2.057639600E+03  2.061670136E+03  1.250000000E+02  0.00000E+00  9.000E+00
      -3     1     1     2     0   502 -1.261390880E+01  7.351887533E+01  2.565939890E+01  7.888308106E+01  5.712103153E-06  0.00000E+00  9.000E+00
#rwgt            1           1  -1.6569613877247698E-002           9       18395           0
</event>
<event>
      5   9999  3.79277E-02  6.53312E+01 -1.00000E+00  1.32757E-01
       2    -1     0     0   502     0  0.000000000E+00  0.000000000E+00  8.076738749E+02  8.076738749E+02  0.000000000E+00  0.00000E+00  9.000E+00
      21    -1     0     0   501   502  0.000000000E+00  0.000000000E+00 -1.406526525E+02  1.406526525E+02  0.000000000E+00  0.00000E+00  9.000E+00
      25     1     1     2     0     0 -2.090216527E+01 -1.412358653E+02  8.543705549E+01  2.081080503E+02  1.250000000E+02  0.00000E+00  9.000E+00
      25     1     1     2     0     0 -4.061421741E+01  1.192381212E+02  2.429836098E+01  1.791163157E+02  1.250000000E+02  0.00000E+00  9.000E+00
       2     1     1     2   501     0  6.151638268E+01  2.199774417E+01  5.572858059E+02  5.611021614E+02  7.629394531E-06  0.00000E+00  9.000E+00
#rwgt            1           1   3.5474170540447166E-002           9       18512           0
</event>
<event>
      5   9999  3.79277E-02  3.11338E+01 -1.00000E+00  1.51929E-01
       1    -1     0     0   502     0  0.000000000E+00  0.000000000E+00  1.081629006E+03  1.081629006E+03  0.000000000E+00  0.00000E+00  9.000E+00
      21    -1     0     0   501   502  0.000000000E+00  0.000000000E+00 -1.222818904E+02  1.222818904E+02  0.000000000E+00  0.00000E+00  9.000E+00
      25     1     1     2     0     0  2.378312624E+02 -6.207639643E+01  2.057247988E+02  3.440419760E+02  1.250000000E+02  0.00000E+00  9.000E+00
      25     1     1     2     0     0 -2.689345883E+02  6.069993519E+01  3.841512348E+02  4.890884032E+02  1.250000000E+02  0.00000E+00  9.000E+00
       1     1     1     2   501     0  3.110332593E+01  1.376461242E+00  3.694710816E+02  3.707805169E+02  5.394796609E-06  0.00000E+00  9.000E+00
#rwgt            1           1   4.5942831935293693E-002           9       18569           0
</event>
<event>
      5   9999  3.79277E-02  4.59468E+01 -1.00000E+00  1.41203E-01
      21    -1     0     0   502   501  0.000000000E+00  0.000000000E+00  1.758139926E+03  1.758139926E+03  0.000000000E+00  0.00000E+00  9.000E+00
      -2    -1     0     0     0   502  0.000000000E+00  0.000000000E+00 -2.729257409E+02  2.729257409E+02  0.000000000E+00  0.00000E+00  9.000E+00
      25     1     1     2     0     0  1.220007942E+02  3.458317483E+02  1.265580424E+03  1.323556800E+03  1.250000000E+02  0.00000E+00  9.000E+00
      25     1     1     2     0     0 -1.120470990E+02 -3.009760880E+02  3.961722673E+02  5.250891575E+02  1.250000000E+02  0.00000E+00  9.000E+00
      -2     1     1     2     0   501 -9.953695250E+00 -4.485566027E+01 -1.765385063E+02  1.824197097E+02  5.394796609E-06  0.00000E+00  9.000E+00
#rwgt            1           1   2.9910848468772115E-002           9       18750           0
</event>
<event>
      5   9999  3.79277E-02  3.12134E+01 -1.00000E+00  1.51853E-01
      21    -1     0     0   502   501  0.000000000E+00  0.000000000E+00  4.323588281E+02  4.323588281E+02  0.000000000E+00  0.00000E+00  9.000E+00
      21    -1     0     0   501   511  0.000000000E+00  0.000000000E+00 -1.769890099E+02  1.769890099E+02  0.000000000E+00  0.00000E+00  9.000E+00
      25     1     1     2     0     0  1.687783557E+02 -1.098302985E+02  1.438068956E+02  2.772259927E+02  1.250000000E+02  0.00000E+00  9.000E+00
      25     1     1     2     0     0 -1.478714050E+02  1.330073670E+02  1.529280712E+02  2.803014574E+02  1.250000000E+02  0.00000E+00  9.000E+00
      21     1     1     2   502   511 -2.090695067E+01 -2.317706842E+01 -4.136514850E+01  5.182038785E+01  6.743495762E-07  0.00000E+00  9.000E+00
#rwgt            1           1   4.6568204514854321E-002           9       18923           0
</event>
<event>
      5   9999  3.79277E-02  2.54486E+01 -1.00000E+00  1.58175E-01
      21    -1     0     0   512   501  0.000000000E+00  0.000000000E+00  1.240644687E+02  1.240644687E+02  0.000000000E+00  0.00000E+00  9.000E+00
      21    -1     0     0   501   502  0.000000000E+00  0.000000000E+00 -9.025001625E+02  9.025001625E+02  0.000000000E+00  0.00000E+00  9.000E+00
      25     1     1     2     0     0 -7.658790184E+01 -1.004740856E+02 -3.553711695E+02  3.973341373E+02  1.250000000E+02  0.00000E+00  9.000E+00
      25     1     1     2     0     0  1.017831815E+02  9.689262369E+01 -5.074018144E+02  5.411373188E+02  1.250000000E+02  0.00000E+00  9.000E+00
      21     1     1     2   512   502 -2.519527969E+01  3.581461931E+00  8.433729012E+01  8.809317506E+01  1.348699152E-06  0.00000E+00  9.000E+00
#rwgt            1           1   3.6158876802409895E-002           9       19070           0
</event>
<event>
      5   9999  3.79277E-02  1.09354E+02 -1.00000E+00  1.22106E-01
      21    -1     0     0   502   501  0.000000000E+00  0.000000000E+00  3.077194732E+02  3.077194732E+02  0.000000000E+00  0.00000E+00  9.000E+00
      21    -1     0     0   501   511  0.000000000E+00  0.000000000E+00 -1.540839331E+03  1.540839331E+03  0.000000000E+00  0.00000E+00  9.000E+00
      25     1     1     2     0     0 -7.344743857E+00 -5.154912641E+01  4.531225128E+00  1.354872308E+02  1.250000000E+02  0.00000E+00  9.000E+00
      25     1     1     2     0     0  2.704187877E+01  1.591145001E+02  1.914045008E+02  2.798381144E+02  1.250000000E+02  0.00000E+00  9.000E+00
      21     1     1     2   502   511 -1.969713492E+01 -1.075653737E+02 -1.429055584E+03  1.433233459E+03  2.157918644E-05  0.00000E+00  9.000E+00
#rwgt            2          11   4.0994188231876358E-003           9       19223           0
</event>
<event>
      5   9999  3.79277E-02  1.19504E+01 -1.00000E+00  1.87218E-01
      21    -1     0     0   502   501  0.000000000E+00  0.000000000E+00  1.514791083E+03  1.514791083E+03  0.000000000E+00  0.00000E+00  9.000E+00
      21    -1     0     0   501   512  0.000000000E+00  0.000000000E+00 -3.255922322E+01  3.255922322E+01  0.000000000E+00  0.00000E+00  9.000E+00
      25     1     1     2     0     0  1.586282451E+02  8.295942890E+01  7.770235915E+02  8.071157592E+02  1.250000000E+02  0.00000E+00  9.000E+00
      25     1     1     2     0     0 -1.469185850E+02 -8.534583305E+01  6.851595425E+02  7.168943999E+02  1.250000000E+02  0.00000E+00  9.000E+00
      21     1     1     2   502   512 -1.170966011E+01  2.386404149E+00  2.004872573E+01  2.334014713E+01  4.768371582E-07  0.00000E+00  9.000E+00
#rwgt            1           1   4.4335373716040509E-002           9       19258           0
</event>
<event>
      5   9999  3.79277E-02  1.39140E+01 -1.00000E+00  1.80515E-01
      21    -1     0     0   502   501  0.000000000E+00  0.000000000E+00  7.676995438E+01  7.676995438E+01  0.000000000E+00  0.00000E+00  9.000E+00
      21    -1     0     0   501   511  0.000000000E+00  0.000000000E+00 -7.335632770E+02  7.335632770E+02  0.000000000E+00  0.00000E+00  9.000E+00
      25     1     1     2     0     0 -1.527813372E+02  2.038463658E+00 -4.904818048E+02  5.287189170E+02  1.250000000E+02  0.00000E+00  9.000E+00
      25     1     1     2     0     0  1.504785698E+02  1.168364697E+01 -1.123619012E+02  2.258993236E+02  1.250000000E+02  0.00000E+00  9.000E+00
      21     1     1     2   502   511  2.302767400E+00 -1.372211063E+01 -5.394961670E+01  5.571499080E+01  9.536743164E-07  0.00000E+00  9.000E+00
#rwgt            1           1   4.3028638665106797E-002           9       19572           0
</event>
<event>
      5   9999  3.79277E-02  5.52663E+00 -1.00000E+00  2.31161E-01
      21    -1     0     0   502   501  0.000000000E+00  0.000000000E+00  2.183080358E+02  2.183080358E+02  0.000000000E+00  0.00000E+00  9.000E+00
      21    -1     0     0   512   502  0.000000000E+00  0.000000000E+00 -2.349828215E+02  2.349828215E+02  0.000000000E+00  0.00000E+00  9.000E+00
      25     1     1     2     0     0 -1.767612862E+02 -1.221266981E+01 -4.273057151E+01  2.210081522E+02  1.250000000E+02  0.00000E+00  9.000E+00
      25     1     1     2     0     0  1.815731704E+02  9.494318355E+00  3.332956365E+01  2.231475254E+02  1.250000000E+02  0.00000E+00  9.000E+00
      21     1     1     2   512   501 -4.811884199E+00  2.718351457E+00 -7.273777789E+00  9.135179665E+00  0.000000000E+00  0.00000E+00  9.000E+00
#rwgt            1           1   3.3317839666581750E-002           9       19841           0
</event>
<event>
      5   9999  3.79277E-02  2.20363E+01 -1.00000E+00  1.62968E-01
      21    -1     0     0   502   501  0.000000000E+00  0.000000000E+00  7.841411983E+02  7.841411983E+02  0.000000000E+00  0.00000E+00  9.000E+00
      21    -1     0     0   511   502  0.000000000E+00  0.000000000E+00 -1.020028388E+02  1.020028388E+02  0.000000000E+00  0.00000E+00  9.000E+00
      25     1     1     2     0     0  1.261980319E+02 -5.677055386E+01  5.157719381E+02  5.484473823E+02  1.250000000E+02  0.00000E+00  9.000E+00
      25     1     1     2     0     0 -1.298643039E+02  7.849975112E+01  2.107065325E+02  2.881825657E+02  1.250000000E+02  0.00000E+00  9.000E+00
      21     1     1     2   511   501  3.666271992E+00 -2.172919725E+01 -4.434011116E+01  4.951408912E+01  1.348699152E-06  0.00000E+00  9.000E+00
#rwgt            1           1   3.5174851205170082E-002           9       20175           0
</event>
<event>
      5   9999  3.79277E-02  1.49499E+02 -1.00000E+00  1.16451E-01
      21    -1     0     0   502   501  0.000000000E+00  0.000000000E+00  1.414627096E+02  1.414627096E+02  0.000000000E+00  0.00000E+00  9.000E+00
      21    -1     0     0   512   502  0.000000000E+00  0.000000000E+00 -1.001697002E+03  1.001697002E+03  0.000000000E+00  0.00000E+00  9.000E+00
      25     1     1     2     0     0 -7.980869115E+01  1.114832252E+02 -1.540546254E+02  2.411550627E+02  1.250000000E+02  0.00000E+00  9.000E+00
      25     1     1     2     0     0  2.202611667E+02 -6.026886970E+01 -1.019942772E+02  2.795981953E+02  1.250000000E+02  0.00000E+00  9.000E+00
      21     1     1     2   512   501 -1.404524756E+02 -5.121435547E+01 -6.041853895E+02  6.224064532E+02  1.078959322E-05  0.00000E+00  9.000E+00
#rwgt            1           1   4.6861767065835794E-002           9       20436           0
</event>
<event>
      5   9999  3.79277E-02  8.35691E+01 -1.00000E+00  1.27439E-01
      21    -1     0     0   502   501  0.000000000E+00  0.000000000E+00  1.275280390E+02  1.275280390E+02  0.000000000E+00  0.00000E+00  9.000E+00
      21    -1     0     0   501   511  0.000000000E+00  0.000000000E+00 -8.963471655E+02  8.963471655E+02  0.000000000E+00  0.00000E+00  9.000E+00
      25     1     1     2     0     0 -1.672155887E+02  5.284087720E+00 -3.257421054E+02  3.869391347E+02  1.250000000E+02  0.00000E+00  9.000E+00
      25     1     1     2     0     0  1.757346190E+02 -8.841782761E+01 -5.435441868E+01  2.393319272E+02  1.250000000E+02  0.00000E+00  9.000E+00
      21     1     1     2   502   511 -8.519030247E+00  8.313373989E+01 -3.887226024E+02  3.976041425E+02  5.394796609E-06  0.00000E+00  9.000E+00
#rwgt            1           1   6.0051951389721088E-002           9       20541           0
</event>
<event>
      5   9999  3.79277E-02  2.92655E+02 -1.00000E+00  1.05943E-01
      21    -1     0     0   512   501  0.000000000E+00  0.000000000E+00  2.149450275E+02  2.149450275E+02  0.000000000E+00  0.00000E+00  9.000E+00
      21    -1     0     0   501   502  0.000000000E+00  0.000000000E+00 -1.017112294E+03  1.017112294E+03  0.000000000E+00  0.00000E+00  9.000E+00
      25     1     1     2     0     0 -2.355990116E+02  3.135223852E+01 -4.214663700E+02  4.997486950E+02  1.250000000E+02  0.00000E+00  9.000E+00
      25     1     1     2     0     0  3.915743894E+01 -2.482806637E+02 -3.334239516E+02  4.358590650E+02  1.250000000E+02  0.00000E+00  9.000E+00
      21     1     1     2   512   502  1.964415727E+02  2.169284252E+02 -4.727694513E+01  2.964495618E+02  5.179777380E-06  0.00000E+00  9.000E+00
#rwgt            2          11   1.8822650964058121E-003           9       20622           0
</event>
<event>
      5   9999  3.79277E-02  2.70302E+02 -1.00000E+00  1.07084E-01
      21    -1     0     0   502   501  0.000000000E+00  0.000000000E+00  3.615405913E+02  3.615405913E+02  0.000000000E+00  0.00000E+00  9.000E+00
      21    -1     0     0   511   502  0.000000000E+00  0.000000000E+00 -8.924750871E+02  8.924750871E+02  0.000000000E+00  0.00000E+00  9.000E+00
      25     1     1     2     0     0  2.685544992E+02  1.763638328E+02  2.029801724E+02  4.000645835E+02  1.250000000E+02  0.00000E+00  9.000E+00
      25     1     1     2     0     0 -8.981616580E+01  2.640614179E+01 -1.850811565E+02  2.421657747E+02  1.250000000E+02  0.00000E+00  9.000E+00
      21     1     1     2   511   501 -1.787383334E+02 -2.027699746E+02 -5.488335117E+02  6.117853202E+02  1.078959322E-05  0.00000E+00  9.000E+00
#rwgt            1           1   3.9586366880994914E-002           9       20792           0
</event>
<event>
      5   9999  3.79277E-02  7.66602E+01 -1.00000E+00  1.29252E-01
      21    -1     0     0   502   501  0.000000000E+00  0.000000000E+00  1.812359215E+02  1.812359215E+02  0.000000000E+00  0.00000E+00  9.000E+00
      21    -1     0     0   501   512  0.000000000E+00  0.000000000E+00 -8.485115163E+02  8.485115163E+02  0.000000000E+00  0.00000E+00  9.000E+00
      25     1     1     2     0     0 -3.543485290E+01 -4.847484372E+01  8.136600908E+01  1.607820472E+02  1.250000000E+02  0.00000E+00  9.000E+00
      25     1     1     2     0     0  2.049060201E+01 -2.671463797E+01 -1.385887724E+01  1.301944896E+02  1.250000000E+02  0.00000E+00  9.000E+00
      21     1     1     2   502   512  1.494425089E+01  7.518948168E+01 -7.347827266E+02  7.387709009E+02  1.078959322E-05  0.00000E+00  9.000E+00
#rwgt            1           1   2.7742181849196801E-002           9       20841           0
</event>
<event>
      5   9999  3.79277E-02  2.07300E+01 -1.00000E+00  1.65095E-01
      21    -1     0     0   502   501  0.000000000E+00  0.000000000E+00  6.018968635E+02  6.018968635E+02  0.000000000E+00  0.00000E+00  9.000E+00
      21    -1     0     0   511   502  0.000000000E+00  0.000000000E+00 -1.110239589E+02  1.110239589E+02  0.000000000E+00  0.00000E+00  9.000E+00
      25     1     1     2     0     0  1.641407606E+02 -1.341424334E+02  2.255556547E+02  3.338214120E+02  1.250000000E+02  0.00000E+00  9.000E+00
      25     1     1     2     0     0 -1.657709699E+02  1.134766599E+02  2.687772831E+02  3.580826646E+02  1.250000000E+02  0.00000E+00  9.000E+00
      21     1     1     2   511   501  1.630209309E+00  2.066577345E+01 -3.460033208E+00  2.101674581E+01  2.064765462E-07  0.00000E+00  9.000E+00
#rwgt            1           1   3.9086271601531615E-002           9       20909           0
</event>
<event>
      5   9999  3.79277E-02  7.15358E+01 -1.00000E+00  1.30745E-01
      21    -1     0     0   502   501  0.000000000E+00  0.000000000E+00  3.366092120E+02  3.366092120E+02  0.000000000E+00  0.00000E+00  9.000E+00
      21    -1     0     0   512   502  0.000000000E+00  0.000000000E+00 -3.157208335E+02  3.157208335E+02  0.000000000E+00  0.00000E+00  9.000E+00
      25     1     1     2     0     0  2.861617981E+02 -1.127757815E+01 -1.033613180E+01  3.126461164E+02  1.250000000E+02  0.00000E+00  9.000E+00
      25     1     1     2     0     0 -2.246375372E+02 -2.522095325E+01  5.538333071E+01  2.641787897E+02  1.250000000E+02  0.00000E+00  9.000E+00
      21     1     1     2   512   501 -6.152426090E+01  3.649853141E+01 -2.415882037E+01  7.550513940E+01  1.168007728E-06  0.00000E+00  9.000E+00
#rwgt            1           1   3.3096319155317237E-002           9       21069           0
</event>
<event>
      5   9999  3.79277E-02  1.16447E+02 -1.00000E+00  1.20925E-01
      21    -1     0     0   502   511  0.000000000E+00  0.000000000E+00  2.475961848E+02  2.475961848E+02  0.000000000E+00  0.00000E+00  9.000E+00
      21    -1     0     0   501   502  0.000000000E+00  0.000000000E+00 -2.692453002E+02  2.692453002E+02  0.000000000E+00  0.00000E+00  9.000E+00
      25     1     1     2     0     0 -4.006644896E+01 -1.416043685E+02 -5.065358914E+01  1.996193969E+02  1.250000000E+02  0.00000E+00  9.000E+00
      25     1     1     2     0     0 -7.137409250E+01  1.078272136E+02 -3.664379638E+01  1.835449179E+02  1.250000000E+02  0.00000E+00  9.000E+00
      21     1     1     2   501   511  1.114405415E+02  3.377715490E+01  6.564827005E+01  1.336771702E+02  2.336015456E-06  0.00000E+00  9.000E+00
#rwgt            1           1   4.5447917792967731E-002           9       21277           0
</event>
<event>
      5   9999  3.79277E-02  1.55005E+02 -1.00000E+00  1.15831E-01
      21    -1     0     0   502   501  0.000000000E+00  0.000000000E+00  2.124107557E+02  2.124107557E+02  0.000000000E+00  0.00000E+00  9.000E+00
      21    -1     0     0   512   502  0.000000000E+00  0.000000000E+00 -4.289974965E+02  4.289974965E+02  0.000000000E+00  0.00000E+00  9.000E+00
      25     1     1     2     0     0  1.976272551E+02  1.345280449E+02 -7.064290288E+01  2.788722764E+02  1.250000000E+02  0.00000E+00  9.000E+00
      25     1     1     2     0     0 -9.565167291E+01 -1.779056656E+01 -1.407151188E+01  1.590243825E+02  1.250000000E+02  0.00000E+00  9.000E+00
      21     1     1     2   512   501 -1.019755822E+02 -1.167374784E+02 -1.318723260E+02  2.035115932E+02  3.814697266E-06  0.00000E+00  9.000E+00
#rwgt            1           1   3.8289695057351476E-002           9       21482           0
</event>
<event>
      5   9999  3.79277E-02  1.45345E+02 -1.00000E+00  1.16939E-01
      21    -1     0     0   502   501  0.000000000E+00  0.000000000E+00  2.904761767E+03  2.904761767E+03  0.000000000E+00  0.00000E+00  9.000E+00
      21    -1     0     0   511   502  0.000000000E+00  0.000000000E+00 -5.210878886E+01  5.210878886E+01  0.000000000E+00  0.00000E+00  9.000E+00
      25     1     1     2     0     0 -1.802912293E+02 -2.606961045E+01  1.387908151E+03  1.405382008E+03  1.250000000E+02  0.00000E+00  9.000E+00
      25     1     1     2     0     0  4.632515525E+01  8.244608879E+01  1.367861662E+03  1.376812952E+03  1.250000000E+02  0.00000E+00  9.000E+00
      21     1     1     2   511   501  1.339660741E+02 -5.637647833E+01  9.688316514E+01  1.746755965E+02  7.136645101E-06  0.00000E+00  9.000E+00
#rwgt            1           1   5.5323893915593093E-002           9       21578           0
</event>
<event>
      5   9999  3.79277E-02  3.21843E+01 -1.00000E+00  1.50950E-01
      21    -1     0     0   512   501  0.000000000E+00  0.000000000E+00  2.267416909E+02  2.267416909E+02  0.000000000E+00  0.00000E+00  9.000E+00
      21    -1     0     0   501   502  0.000000000E+00  0.000000000E+00 -2.473968880E+03  2.473968880E+03  0.000000000E+00  0.00000E+00  9.000E+00
      25     1     1     2     0     0  4.980756896E+01 -1.011047942E+02 -8.024296923E+02  8.198910808E+02  1.250000000E+02  0.00000E+00  9.000E+00
      25     1     1     2     0     0 -6.893124927E+01  7.521817748E+01 -1.657681886E+03  1.665515994E+03  1.250000000E+02  0.00000E+00  9.000E+00
      21     1     1     2   512   502  1.912368031E+01  2.588661669E+01  2.128843894E+02  2.153034958E+02  7.629394531E-06  0.00000E+00  9.000E+00
#rwgt            1           1   5.6167189431178731E-002           9       21748           0
</event>
<event>
      5   9999  3.79277E-02  1.58768E+01 -1.00000E+00  1.75090E-01
      21    -1     0     0   502   501  0.000000000E+00  0.000000000E+00  7.950422691E+02  7.950422691E+02  0.000000000E+00  0.00000E+00  9.000E+00
       2    -1     0     0   501     0  0.000000000E+00  0.000000000E+00 -5.639992696E+02  5.639992696E+02  0.000000000E+00  0.00000E+00  9.000E+00
      25     1     1     2     0     0 -7.596727141E+01 -1.404341500E+02  3.800790187E+02  4.307874618E+02  1.250000000E+02  0.00000E+00  9.000E+00
      25     1     1     2     0     0  7.634152162E+01  1.245617767E+02  3.657575475E+02  4.132157399E+02  1.250000000E+02  0.00000E+00  9.000E+00
       2     1     1     2   502     0 -3.742502068E-01  1.587237328E+01 -5.147935666E+02  5.150383370E+02  7.629394531E-06  0.00000E+00  9.000E+00
#rwgt            1           1   3.3191106058570681E-002           9       21905           0
</event>
<event>
      5   9999 -3.79277E-02  2.61741E+01 -1.00000E+00  1.57272E-01
      21    -1     0     0   511   501  0.000000000E+00  0.000000000E+00  9.594797998E+01  9.594797998E+01  0.000000000E+00  0.00000E+00  9.000E+00
      21    -1     0     0   501   502  0.000000000E+00  0.000000000E+00 -5.087782572E+02  5.087782572E+02  0.000000000E+00  0.00000E+00  9.000E+00
      25     1     1     2     0     0  1.044811362E+02  1.207324740E+02 -2.144271111E+02  2.951213717E+02  1.250000000E+02  0.00000E+00  9.000E+00
      25     1     1     2     0     0 -9.115362639E+01 -1.432594163E+02 -1.833034028E+02  2.793875113E+02  1.250000000E+02  0.00000E+00  9.000E+00
      21     1     1     2   511   502 -1.332750976E+01  2.252694227E+01 -1.509976334E+01  3.021735424E+01  4.768371582E-07  0.00000E+00  9.000E+00
#rwgt            1           1  -3.2411769034808101E-002           9       22243           0
</event>
<event>
      5   9999  3.79277E-02  1.86062E+01 -1.00000E+00  1.69000E-01
      21    -1     0     0   512   501  0.000000000E+00  0.000000000E+00  2.338691176E+02  2.338691176E+02  0.000000000E+00  0.00000E+00  9.000E+00
      21    -1     0     0   501   502  0.000000000E+00  0.000000000E+00 -1.998603931E+03  1.998603931E+03  0.000000000E+00  0.00000E+00  9.000E+00
      25     1     1     2     0     0  1.436008811E+02 -2.134789778E+02 -1.250988782E+03  1.283274102E+03  1.250000000E+02  0.00000E+00  9.000E+00
      25     1     1     2     0     0 -1.365280226E+02  2.306884605E+02 -7.010935073E+02  7.609298080E+02  1.250000000E+02  0.00000E+00  9.000E+00
      21     1     1     2   512   502 -7.072858500E+00 -1.720948267E+01  1.873474764E+02  1.882691385E+02  9.344061824E-06  0.00000E+00  9.000E+00
#rwgt            1           1  0.14362787229714036                9       22393           0
</event>
<event>
      5   9999  3.79277E-02  6.48569E+01 -1.00000E+00  1.32921E-01
      21    -1     0     0   502   501  0.000000000E+00  0.000000000E+00  1.133213607E+02  1.133213607E+02  0.000000000E+00  0.00000E+00  9.000E+00
      21    -1     0     0   511   502  0.000000000E+00  0.000000000E+00 -4.922561821E+02  4.922561821E+02  0.000000000E+00  0.00000E+00  9.000E+00
      25     1     1     2     0     0 -7.693064637E+01  7.185051050E+01 -8.497234238E+01  1.841904427E+02  1.250000000E+02  0.00000E+00  9.000E+00
      25     1     1     2     0     0  1.417874641E+02 -7.174267492E+01 -1.185559465E+02  2.343740789E+02  1.250000000E+02  0.00000E+00  9.000E+00
      21     1     1     2   511   501 -6.485681775E+01 -1.078355820E-01 -1.754065325E+02  1.870130212E+02  1.907348633E-06  0.00000E+00  9.000E+00
#rwgt            1           1   2.8215120435397447E-002           9       22656           0
</event>
<event>
      5   9999  3.79277E-02  4.57576E+01 -1.00000E+00  1.41309E-01
      21    -1     0     0   502   501  0.000000000E+00  0.000000000E+00  1.484047326E+02  1.484047326E+02  0.000000000E+00  0.00000E+00  9.000E+00
      21    -1     0     0   501   512  0.000000000E+00  0.000000000E+00 -4.627439176E+02  4.627439176E+02  0.000000000E+00  0.00000E+00  9.000E+00
      25     1     1     2     0     0  6.410064863E+01 -1.178008858E+02 -2.799492124E+02  3.346378690E+02  1.250000000E+02  0.00000E+00  9.000E+00
      25     1     1     2     0     0 -6.574099588E+01  1.635291211E+02  5.001158065E+00  2.161334393E+02  1.250000000E+02  0.00000E+00  9.000E+00
      21     1     1     2   502   512  1.640347246E+00 -4.572823532E+01 -3.939113068E+01  6.037734195E+01  1.066240300E-06  0.00000E+00  9.000E+00
#rwgt            1           1   4.1357908852968833E-002           9       22805           0
</event>
<event>
      5   9999  3.79277E-02  5.40781E+01 -1.00000E+00  1.37160E-01
      21    -1     0     0   502   501  0.000000000E+00  0.000000000E+00  1.629080699E+02  1.629080699E+02  0.000000000E+00  0.00000E+00  9.000E+00
      21    -1     0     0   501   511  0.000000000E+00  0.000000000E+00 -4.408101880E+02  4.408101880E+02  0.000000000E+00  0.00000E+00  9.000E+00
      25     1     1     2     0     0  1.113375872E+02 -8.939695304E+01 -1.317454722E+02  2.310189234E+02  1.250000000E+02  0.00000E+00  9.000E+00
      25     1     1     2     0     0 -1.653917180E+02  9.100596470E+01 -1.049124734E+01  2.266529776E+02  1.250000000E+02  0.00000E+00  9.000E+00
      21     1     1     2   502   511  5.405413076E+01 -1.609011663E+00 -1.356653986E+02  1.460463569E+02  1.907348633E-06  0.00000E+00  9.000E+00
#rwgt            1           1   3.2280680593195353E-002           9       22947           0
</event>
<event>
      5   9999  3.79277E-02  7.39895E+01 -1.00000E+00  1.30013E-01
      21    -1     0     0   502   501  0.000000000E+00  0.000000000E+00  5.859277258E+02  5.859277258E+02  0.000000000E+00  0.00000E+00  9.000E+00
      21    -1     0     0   501   512  0.000000000E+00  0.000000000E+00 -1.416171358E+02  1.416171358E+02  0.000000000E+00  0.00000E+00  9.000E+00
      25     1     1     2     0     0 -3.020443259E+01 -2.433917164E+01  3.273382065E+02  3.525336927E+02  1.250000000E+02  0.00000E+00  9.000E+00
      25     1     1     2     0     0  9.629863855E+01  5.759583753E+01  2.017257712E+02  2.625052286E+02  1.250000000E+02  0.00000E+00  9.000E+00
      21     1     1     2   502   512 -6.609420595E+01 -3.325666588E+01 -8.475338768E+01  1.125059403E+02  2.861022949E-06  0.00000E+00  9.000E+00
#rwgt            1           1   3.5356396225268309E-002           9       23082           0
</event>
<event>
      5   9999  3.79277E-02  1.11101E+02 -1.00000E+00  1.21806E-01
      21    -1     0     0   502   511  0.000000000E+00  0.000000000E+00  1.372155636E+02  1.372155636E+02  0.000000000E+00  0.00000E+00  9.000E+00
      21    -1     0     0   501   502  0.000000000E+00  0.000000000E+00 -6.684128668E+02  6.684128668E+02  0.000000000E+00  0.00000E+00  9.000E+00
      25     1     1     2     0     0 -3.800256751E+01  1.507814206E+02 -1.282853115E+02  2.371947577E+02  1.250000000E+02  0.00000E+00  9.000E+00
      25     1     1     2     0     0 -6.020859245E+00 -2.527878070E+02 -3.361520565E+02  4.388178793E+02  1.250000000E+02  0.00000E+00  9.000E+00
      21     1     1     2   501   511  4.402342676E+01  1.020063864E+02 -6.675993528E+01  1.296157935E+02  1.907348633E-06  0.00000E+00  9.000E+00
#rwgt            1           1   3.9990454711323571E-002           9       23122           0
</event>
<event>
      5   9999  3.79277E-02  8.34250E+01 -1.00000E+00  1.27474E-01
      21    -1     0     0   502   501  0.000000000E+00  0.000000000E+00  9.500929973E+02  9.500929973E+02  0.000000000E+00  0.00000E+00  9.000E+00
      -3    -1     0     0     0   502  0.000000000E+00  0.000000000E+00 -1.142814615E+02  1.142814615E+02  0.000000000E+00  0.00000E+00  9.000E+00
      25     1     1     2     0     0  6.268371133E+01 -2.590886594E+02  4.039746412E+02  4.998766766E+02  1.250000000E+02  0.00000E+00  9.000E+00
      25     1     1     2     0     0  1.882998914E+01  2.413335243E+02  2.764456408E+02  3.881283690E+02  1.250000000E+02  0.00000E+00  9.000E+00
      -3     1     1     2     0   501 -8.151370047E+01  1.775513502E+01  1.553912537E+02  1.763694132E+02  3.814697266E-06  0.00000E+00  9.000E+00
#rwgt            2           8   3.8311638516753598E-006           9       23276           0
</event>
<event>
      5   9999  3.79277E-02  2.26161E+01 -1.00000E+00  1.62081E-01
      21    -1     0     0   502   501  0.000000000E+00  0.000000000E+00  7.755117672E+02  7.755117672E+02  0.000000000E+00  0.00000E+00  9.000E+00
      21    -1     0     0   511   502  0.000000000E+00  0.000000000E+00 -8.460945957E+01  8.460945957E+01  0.000000000E+00  0.00000E+00  9.000E+00
      25     1     1     2     0     0  1.520396682E+01  5.777316618E+01  1.198363767E+01  1.390593647E+02  1.250000000E+02  0.00000E+00  9.000E+00
      25     1     1     2     0     0 -3.081838331E+01 -7.413405285E+01  6.822180539E+02  6.982063474E+02  1.250000000E+02  0.00000E+00  9.000E+00
      21     1     1     2   511   501  1.561441650E+01  1.636088667E+01 -3.299383926E+00  2.285551464E+01  5.297776709E-07  0.00000E+00  9.000E+00
#rwgt            1           1   5.1298557994927822E-002           9       23310           0
</event>
<event>
      5   9999  3.79277E-02  1.73162E+02 -1.00000E+00  1.13975E-01
      21    -1     0     0   502   512  0.000000000E+00  0.000000000E+00  5.585430408E+02  5.585430408E+02  0.000000000E+00  0.00000E+00  9.000E+00
      21    -1     0     0   501   502  0.000000000E+00  0.000000000E+00 -4.313160257E+02  4.313160257E+02  0.000000000E+00  0.00000E+00  9.000E+00
      25     1     1     2     0     0  2.053880742E+02  7.817436930E+01  1.489486376E+02  2.934385620E+02  1.250000000E+02  0.00000E+00  9.000E+00
      25     1     1     2     0     0 -2.316413686E+02 -2.493351025E+02 -2.270766499E+02  4.278019658E+02  1.250000000E+02  0.00000E+00  9.000E+00
      21     1     1     2   501   512  2.625329442E+01  1.711607332E+02  2.053550274E+02  2.686185387E+02  3.814697266E-06  0.00000E+00  9.000E+00
#rwgt            1           1   2.3502366388906345E-002           9       23466           0
</event>
<event>
      5   9999  3.79277E-02  6.07735E+00 -1.00000E+00  2.24611E-01
      21    -1     0     0   502   501  0.000000000E+00  0.000000000E+00  9.027274599E+01  9.027274599E+01  0.000000000E+00  0.00000E+00  9.000E+00
      21    -1     0     0   511   502  0.000000000E+00  0.000000000E+00 -6.269294407E+02  6.269294407E+02  0.000000000E+00  0.00000E+00  9.000E+00
      25     1     1     2     0     0  1.252740982E+02  1.457297359E+02 -1.884698316E+02  2.967770763E+02  1.250000000E+02  0.00000E+00  9.000E+00
      25     1     1     2     0     0 -1.192023065E+02 -1.459896270E+02 -3.216392193E+02  3.931907279E+02  1.250000000E+02  0.00000E+00  9.000E+00
      21     1     1     2   511   501 -6.071791683E+00  2.598911061E-01 -2.654764385E+01  2.723438253E+01  3.371747881E-07  0.00000E+00  9.000E+00
#rwgt            1           1   4.1273273732269640E-002           9       23590           0
</event>
<event>
      5   9999  3.79277E-02  7.69740E+01 -1.00000E+00  1.29165E-01
      21    -1     0     0   512   501  0.000000000E+00  0.000000000E+00  5.133560574E+02  5.133560574E+02  0.000000000E+00  0.00000E+00  9.000E+00
      21    -1     0     0   501   502  0.000000000E+00  0.000000000E+00 -1.822917372E+02  1.822917372E+02  0.000000000E+00  0.00000E+00  9.000E+00
      25     1     1     2     0     0  6.854215190E+01  9.930109662E+01 -2.699163584E+00  1.737556326E+02  1.250000000E+02  0.00000E+00  9.000E+00
      25     1     1     2     0     0 -1.669343353E+01 -1.561931192E+02  2.337874626E+01  2.021052374E+02  1.250000000E+02  0.00000E+00  9.000E+00
      21     1     1     2   512   502 -5.184871837E+01  5.689202261E+01  3.103847376E+02  3.197869246E+02  3.814697266E-06  0.00000E+00  9.000E+00
#rwgt            1           1   3.9019833989051171E-002           9       24098           0
</event>
<event>
      5   9999  3.79277E-02  3.62509E+01 -1.00000E+00  1.47542E-01
      21    -1     0     0   511   501  0.000000000E+00  0.000000000E+00  1.866777880E+02  1.866777880E+02  0.000000000E+00  0.00000E+00  9.000E+00
      21    -1     0     0   501   502  0.000000000E+00  0.000000000E+00 -4.354563251E+02  4.354563251E+02  0.000000000E+00  0.00000E+00  9.000E+00
      25     1     1     2     0     0  1.539007188E+02 -1.751712162E+02 -2.141088048E+02  3.403497708E+02  1.250000000E+02  0.00000E+00  9.000E+00
      25     1     1     2     0     0 -1.435852184E+02  1.404189902E+02 -5.105279665E+01  2.420032970E+02  1.250000000E+02  0.00000E+00  9.000E+00
      21     1     1     2   511   502 -1.031550041E+01  3.475222605E+01  1.638306438E+01  3.978104527E+01  0.000000000E+00  0.00000E+00  9.000E+00
#rwgt            1           1   3.8086394350446626E-002           9       24156           0
</event>
<event>
      5   9999  3.79277E-02  1.63840E+02 -1.00000E+00  1.14895E-01
      -1    -1     0     0     0   501  0.000000000E+00  0.000000000E+00  3.263025443E+02  3.263025443E+02  0.000000000E+00  0.00000E+00  9.000E+00
      21    -1     0     0   501   502  0.000000000E+00  0.000000000E+00 -1.458889490E+03  1.458889490E+03  0.000000000E+00  0.00000E+00  9.000E+00
      25     1     1     2     0     0 -1.528450589E+02 -2.375131559E+02 -7.581324281E+02  8.186353826E+02  1.250000000E+02  0.00000E+00  9.000E+00
      25     1     1     2     0     0  8.902060822E+01  8.661573568E+01 -6.348791895E+02  6.588805200E+02  1.250000000E+02  0.00000E+00  9.000E+00
      -1     1     1     2     0   502  6.382445069E+01  1.508974202E+02  2.604246722E+02  3.076761314E+02  6.607249480E-06  0.00000E+00  9.000E+00
#rwgt            1           1   4.0868462731222917E-002           9       24283           0
</event>
<event>
      5   9999  3.79277E-02  3.82393E+01 -1.00000E+00  1.46063E-01
      21    -1     0     0   511   501  0.000000000E+00  0.000000000E+00  8.629272766E+02  8.629272766E+02  0.000000000E+00  0.00000E+00  9.000E+00
      21    -1     0     0   501   502  0.000000000E+00  0.000000000E+00 -3.239505394E+02  3.239505394E+02  0.000000000E+00  0.00000E+00  9.000E+00
      25     1     1     2     0     0 -8.411865442E+01 -3.552154438E+01 -2.508432248E+02  2.947627038E+02  1.250000000E+02  0.00000E+00  9.000E+00
      25     1     1     2     0     0  4.934081354E+01  1.962352168E+01  4.036115872E+01  1.416814089E+02  1.250000000E+02  0.00000E+00  9.000E+00
      21     1     1     2   511   502  3.477784088E+01  1.589802270E+01  7.494588033E+02  7.504337034E+02  0.000000000E+00  0.00000E+00  9.000E+00
#rwgt            1           1   4.1965232030742892E-002           9       24327           0
</event>
<event>
      5   9999  3.79277E-02  2.33251E+01 -1.00000E+00  1.61040E-01
      21    -1     0     0   502   501  0.000000000E+00  0.000000000E+00  1.185967252E+02  1.185967252E+02  0.000000000E+00  0.00000E+00  9.000E+00
      21    -1     0     0   512   502  0.000000000E+00  0.000000000E+00 -2.938747314E+02  2.938747314E+02  0.000000000E+00  0.00000E+00  9.000E+00
      25     1     1     2     0     0 -3.766906851E+01 -3.730496435E+01  4.285494833E+01  1.423803557E+02  1.250000000E+02  0.00000E+00  9.000E+00
      25     1     1     2     0     0  4.124902152E+01  1.425622551E+01 -2.027458206E+02  2.421478670E+02  1.250000000E+02  0.00000E+00  9.000E+00
      21     1     1     2   512   501 -3.579953012E+00  2.304873884E+01 -1.538713393E+01  2.794323382E+01  4.768371582E-07  0.00000E+00  9.000E+00
#rwgt            1           1   5.2526964553316464E-002           9       24428           0
</event>
<event>
      5   9999  3.79277E-02  7.99616E+01 -1.00000E+00  1.28360E-01
      -3    -1     0     0     0   501  0.000000000E+00  0.000000000E+00  5.755196788E+02  5.755196788E+02  0.000000000E+00  0.00000E+00  9.000E+00
      21    -1     0     0   501   502  0.000000000E+00  0.000000000E+00 -2.966940339E+02  2.966940339E+02  0.000000000E+00  0.00000E+00  9.000E+00
      25     1     1     2     0     0  3.299990449E+02 -1.368780191E+02  3.291021185E+01  3.799250502E+02  1.250000000E+02  0.00000E+00  9.000E+00
      25     1     1     2     0     0 -2.585108513E+02  1.727011144E+02  1.491920960E+02  3.667926071E+02  1.250000000E+02  0.00000E+00  9.000E+00
      -3     1     1     2     0   502 -7.148819361E+01 -3.582309527E+01  9.672333708E+01  1.254960554E+02  0.000000000E+00  0.00000E+00  9.000E+00
#rwgt            1           1   3.7413232014067092E-002           9       24581           0
</event>
<event>
      5   9999  3.79277E-02  2.71491E+01 -1.00000E+00  1.56114E-01
      21    -1     0     0   502   501  0.000000000E+00  0.000000000E+00  5.766843272E+01  5.766843272E+01  0.000000000E+00  0.00000E+00  9.000E+00
      21    -1     0     0   501   511  0.000000000E+00  0.000000000E+00 -7.297489006E+02  7.297489006E+02  0.000000000E+00  0.00000E+00  9.000E+00
      25     1     1     2     0     0  4.050507589E+01  1.298977847E+02 -4.060322760E+02  4.460956229E+02  1.250000000E+02  0.00000E+00  9.000E+00
      25     1     1     2     0     0 -6.092117717E+01 -1.120020133E+02 -1.907488818E+02  2.612775856E+02  1.250000000E+02  0.00000E+00  9.000E+00
      21     1     1     2   502   511  2.041610128E+01 -1.789577135E+01 -7.529931011E+01  8.004412487E+01  0.000000000E+00  0.00000E+00  9.000E+00
#rwgt            1           1   5.0926518902970445E-002           9       24671           0
</event>
<event>
      5   9999 -4.45661E-02  4.39751E+01 -1.00000E+00  1.42334E-01
      21    -1     0     0   512   501  0.000000000E+00  0.000000000E+00  2.843435414E+02  2.843435414E+02  0.000000000E+00  0.00000E+00  9.000E+00
      21    -1     0     0   501   502  0.000000000E+00  0.000000000E+00 -3.426309379E+02  3.426309379E+02  0.000000000E+00  0.00000E+00  9.000E+00
      25     1     1     2     0     0  7.090751870E+01  2.623785015E+02 -1.004704723E+02  3.155783105E+02  1.250000000E+02  0.00000E+00  9.000E+00
      25     1     1     2     0     0 -4.215804115E+01 -2.291026651E+02  3.989975356E+01  2.673617809E+02  1.250000000E+02  0.00000E+00  9.000E+00
      21     1     1     2   512   502 -2.874947755E+01 -3.327583643E+01  2.283322206E+00  4.403438781E+01  3.987278986E-07  0.00000E+00  9.000E+00
#rwgt            1           1 -0.55860226973830651                9       24824           0
</event>
<event>
      5   9999  3.79277E-02  4.81074E+02 -1.00000E+00  9.93304E-02
      21    -1     0     0   511   501  0.000000000E+00  0.000000000E+00  1.197460512E+03  1.197460512E+03  0.000000000E+00  0.00000E+00  9.000E+00
      21    -1     0     0   501   502  0.000000000E+00  0.000000000E+00 -4.841428180E+02  4.841428180E+02  0.000000000E+00  0.00000E+00  9.000E+00
      25     1     1     2     0     0  6.025530389E+01  2.817400600E+02 -1.983206254E+02  3.714353692E+02  1.250000000E+02  0.00000E+00  9.000E+00
      25     1     1     2     0     0  4.013882853E+02 -1.463999643E+02  3.232492772E+02  5.501459810E+02  1.250000000E+02  0.00000E+00  9.000E+00
      21     1     1     2   511   502 -4.616435892E+02 -1.353400957E+02  5.883890427E+02  7.600219803E+02  7.629394531E-06  0.00000E+00  9.000E+00
#rwgt            2          11   6.5003012388653353E-004           9       25005           0
</event>
<event>
      5   9999  3.79277E-02  1.55682E+02 -1.00000E+00  1.15757E-01
      21    -1     0     0   502   501  0.000000000E+00  0.000000000E+00  3.105936758E+01  3.105936758E+01  0.000000000E+00  0.00000E+00  9.000E+00
       2    -1     0     0   501     0  0.000000000E+00  0.000000000E+00 -3.832026769E+03  3.832026769E+03  0.000000000E+00  0.00000E+00  9.000E+00
      25     1     1     2     0     0 -1.486532499E+02  1.596831996E+02 -1.159455965E+03  1.186406190E+03  1.250000000E+02  0.00000E+00  9.000E+00
      25     1     1     2     0     0  2.173886288E+02 -1.999628084E+01 -1.157253807E+03  1.184279968E+03  1.250000000E+02  0.00000E+00  9.000E+00
       2     1     1     2   502     0 -6.873537887E+01 -1.396869187E+02 -1.484257629E+03  1.492399979E+03  0.000000000E+00  0.00000E+00  9.000E+00
#rwgt            1           1  0.11473633690652697                9       25055           0
</event>
<event>
      5   9999  3.79277E-02  5.71302E+01 -1.00000E+00  1.35851E-01
      21    -1     0     0   502   501  0.000000000E+00  0.000000000E+00  1.176406252E+03  1.176406252E+03  0.000000000E+00  0.00000E+00  9.000E+00
      21    -1     0     0   501   511  0.000000000E+00  0.000000000E+00 -7.275279440E+01  7.275279440E+01  0.000000000E+00  0.00000E+00  9.000E+00
      25     1     1     2     0     0  1.032599229E+02 -2.082390412E+02  3.992460366E+02  4.785901249E+02  1.250000000E+02  0.00000E+00  9.000E+00
      25     1     1     2     0     0 -1.389474040E+02  1.636266601E+02  6.265828038E+02  6.740260195E+02  1.250000000E+02  0.00000E+00  9.000E+00
      21     1     1     2   502   511  3.568748113E+01  4.461238118E+01  7.782461711E+01  9.654290182E+01  1.907348633E-06  0.00000E+00  9.000E+00
#rwgt            1           1   3.2944305366076579E-002           9       25084           0
</event>
<event>
      5   9999 -3.79277E-02  1.27470E+01 -1.00000E+00  1.84312E-01
      21    -1     0     0   502   501  0.000000000E+00  0.000000000E+00  1.691202928E+02  1.691202928E+02  0.000000000E+00  0.00000E+00  9.000E+00
      21    -1     0     0   512   502  0.000000000E+00  0.000000000E+00 -2.398875245E+02  2.398875245E+02  0.000000000E+00  0.00000E+00  9.000E+00
      25     1     1     2     0     0  6.917502468E+01 -1.343723707E+02 -6.579649817E+01  2.068702425E+02  1.250000000E+02  0.00000E+00  9.000E+00
      25     1     1     2     0     0 -5.832822838E+01  1.276765461E+02  1.229165253E+00  1.879627450E+02  1.250000000E+02  0.00000E+00  9.000E+00
      21     1     1     2   512   501 -1.084679630E+01  6.695824627E+00 -6.199898765E+00  1.417482988E+01  1.192092896E-07  0.00000E+00  9.000E+00
#rwgt            1           1  -6.6584452867013810E-002           9       25223           0
</event>
<event>
      5   9999  3.79277E-02  3.60732E+01 -1.00000E+00  1.47679E-01
      21    -1     0     0   502   501  0.000000000E+00  0.000000000E+00  9.972167639E+02  9.972167639E+02  0.000000000E+00  0.00000E+00  9.000E+00
      21    -1     0     0   501   511  0.000000000E+00  0.000000000E+00 -6.825572916E+01  6.825572916E+01  0.000000000E+00  0.00000E+00  9.000E+00
      25     1     1     2     0     0  1.187632784E+02 -5.862564693E+01  4.385646574E+02  4.748743428E+02  1.250000000E+02  0.00000E+00  9.000E+00
      25     1     1     2     0     0 -1.279185459E+02  2.373360139E+01  5.158221257E+02  5.464649152E+02  1.250000000E+02  0.00000E+00  9.000E+00
      21     1     1     2   502   511  9.155267531E+00  3.489204554E+01 -2.542574824E+01  4.413323508E+01  7.539457465E-07  0.00000E+00  9.000E+00
#rwgt            1           1   3.2079204124505274E-002           9       25465           0
</event>
<event>
      5   9999  3.79277E-02  9.81730E+01 -1.00000E+00  1.24189E-01
      21    -1     0     0   502   501  0.000000000E+00  0.000000000E+00  2.068735381E+02  2.068735381E+02  0.000000000E+00  0.00000E+00  9.000E+00
      21    -1     0     0   501   512  0.000000000E+00  0.000000000E+00 -3.591054528E+02  3.591054528E+02  0.000000000E+00  0.00000E+00  9.000E+00
      25     1     1     2     0     0 -2.210205463E+01 -8.630454186E+01 -1.441274604E+01  1.541742586E+02  1.250000000E+02  0.00000E+00  9.000E+00
      25     1     1     2     0     0  1.176979562E+02  1.086509914E+02  4.149435771E+01  2.073755736E+02  1.250000000E+02  0.00000E+00  9.000E+00
      21     1     1     2   502   512 -9.559590155E+01 -2.234644951E+01 -1.793135264E+02  2.044291587E+02  0.000000000E+00  0.00000E+00  9.000E+00
#rwgt            1           1   3.6219939365886716E-002           9       25588           0
</event>
<event>
      5   9999  3.79277E-02  1.84111E+02 -1.00000E+00  1.12973E-01
      21    -1     0     0   502   501  0.000000000E+00  0.000000000E+00  1.143300585E+03  1.143300585E+03  0.000000000E+00  0.00000E+00  9.000E+00
      21    -1     0     0   511   502  0.000000000E+00  0.000000000E+00 -4.597916882E+02  4.597916882E+02  0.000000000E+00  0.00000E+00  9.000E+00
      25     1     1     2     0     0 -4.242360548E+01 -1.284177041E+02  1.202651744E+02  2.199535887E+02  1.250000000E+02  0.00000E+00  9.000E+00
      25     1     1     2     0     0 -8.571018037E+00 -4.848978322E+01  9.475395321E+02  9.570166593E+02  1.250000000E+02  0.00000E+00  9.000E+00
      21     1     1     2   511   501  5.099462351E+01  1.769074873E+02 -3.842958098E+02  4.261220249E+02  7.629394531E-06  0.00000E+00  9.000E+00
#rwgt            2          11   8.2144948003013262E-003           9       25720           0
</event>
<event>
      5   9999 -3.79277E-02  6.95699E+01 -1.00000E+00  1.31356E-01
      21    -1     0     0   512   501  0.000000000E+00  0.000000000E+00  1.329931111E+02  1.329931111E+02  0.000000000E+00  0.00000E+00  9.000E+00
      21    -1     0     0   501   502  0.000000000E+00  0.000000000E+00 -4.561173987E+02  4.561173987E+02  0.000000000E+00  0.00000E+00  9.000E+00
      25     1     1     2     0     0  8.693941210E+01  9.606133941E+01 -2.325194984E+02  2.940689705E+02  1.250000000E+02  0.00000E+00  9.000E+00
      25     1     1     2     0     0 -5.598646602E+01 -1.583661352E+02 -5.310242969E+01  2.160073730E+02  1.250000000E+02  0.00000E+00  9.000E+00
      21     1     1     2   512   502 -3.095294608E+01  6.230479581E+01 -3.750235955E+01  7.903416618E+01  6.743495762E-07  0.00000E+00  9.000E+00
#rwgt            1           1  -7.0861379729680943E-002           9       25830           0
</event>
<event>
      5   9999  3.79277E-02  3.26967E+01 -1.00000E+00  1.50488E-01
      21    -1     0     0   502   501  0.000000000E+00  0.000000000E+00  2.084557635E+03  2.084557635E+03  0.000000000E+00  0.00000E+00  9.000E+00
      21    -1     0     0   501   511  0.000000000E+00  0.000000000E+00 -7.543404123E+02  7.543404123E+02  0.000000000E+00  0.00000E+00  9.000E+00
      25     1     1     2     0     0 -7.339003511E+01  4.099834660E+01  4.370184235E+02  4.622521652E+02  1.250000000E+02  0.00000E+00  9.000E+00
      25     1     1     2     0     0  1.058609793E+02 -4.483430286E+01  1.630148622E+03  1.638971077E+03  1.250000000E+02  0.00000E+00  9.000E+00
      21     1     1     2   502   511 -3.247094420E+01  3.835956263E+00 -7.369498228E+02  7.376748051E+02  1.868812365E-05  0.00000E+00  9.000E+00
#rwgt            1           1   7.9088112994831775E-002           9       25927           0
</event>
<event>
      5   9999  3.79277E-02  4.37968E+01 -1.00000E+00  1.42439E-01
      21    -1     0     0   502   501  0.000000000E+00  0.000000000E+00  8.732107016E+01  8.732107016E+01  0.000000000E+00  0.00000E+00  9.000E+00
      21    -1     0     0   501   512  0.000000000E+00  0.000000000E+00 -5.499416323E+02  5.499416323E+02  0.000000000E+00  0.00000E+00  9.000E+00
      25     1     1     2     0     0  1.202993654E+02 -2.425978562E+01 -5.178850953E+01  1.826677975E+02  1.250000000E+02  0.00000E+00  9.000E+00
      25     1     1     2     0     0 -7.683524338E+01  2.964753206E+01 -3.370002280E+02  3.687503009E+02  1.250000000E+02  0.00000E+00  9.000E+00
      21     1     1     2   502   512 -4.346412203E+01 -5.387746447E+00 -7.383182468E+01  8.584460409E+01  9.536743164E-07  0.00000E+00  9.000E+00
#rwgt            1           1   5.4577564694197257E-002           9       26118           0
</event>
<event>
      5   9999  3.79277E-02  1.94068E+01 -1.00000E+00  1.67455E-01
      21    -1     0     0   502   501  0.000000000E+00  0.000000000E+00  3.257331444E+02  3.257331444E+02  0.000000000E+00  0.00000E+00  9.000E+00
       1    -1     0     0   501     0  0.000000000E+00  0.000000000E+00 -2.143567534E+02  2.143567534E+02  0.000000000E+00  0.00000E+00  9.000E+00
      25     1     1     2     0     0 -1.331139447E+02 -4.714767362E+01 -4.112212669E+00  1.886375776E+02  1.250000000E+02  0.00000E+00  9.000E+00
      25     1     1     2     0     0  1.141221319E+02  5.113970035E+01  1.987156668E+02  2.659925679E+02  1.250000000E+02  0.00000E+00  9.000E+00
       1     1     1     2   502     0  1.899181283E+01 -3.992026727E+00 -8.322706307E+01  8.545975228E+01  0.000000000E+00  0.00000E+00  9.000E+00
#rwgt            1           1   3.3885773264657248E-002           9       26244           0
</event>
<event>
      5   9999  3.79277E-02  3.78561E+01 -1.00000E+00  1.46340E-01
      21    -1     0     0   502   511  0.000000000E+00  0.000000000E+00  5.475393838E+02  5.475393838E+02  0.000000000E+00  0.00000E+00  9.000E+00
      21    -1     0     0   501   502  0.000000000E+00  0.000000000E+00 -1.957647660E+02  1.957647660E+02  0.000000000E+00  0.00000E+00  9.000E+00
      25     1     1     2     0     0 -3.682750472E+01  1.187059678E+02  7.439442124E+01  1.913293020E+02  1.250000000E+02  0.00000E+00  9.000E+00
      25     1     1     2     0     0  2.148409769E+01 -8.409866041E+01 -9.386734153E+01  1.788022062E+02  1.250000000E+02  0.00000E+00  9.000E+00
      21     1     1     2   501   511  1.534340704E+01 -3.460730742E+01  3.712475381E+02  3.731726415E+02  7.629394531E-06  0.00000E+00  9.000E+00
#rwgt            1           1   3.1645574299937147E-002           9       26405           0
</event>
<event>
      5   9999  3.79277E-02  3.35095E+01 -1.00000E+00  1.49776E-01
      21    -1     0     0   512   501  0.000000000E+00  0.000000000E+00  3.518838183E+02  3.518838183E+02  0.000000000E+00  0.00000E+00  9.000E+00
      21    -1     0     0   501   502  0.000000000E+00  0.000000000E+00 -1.572046960E+02  1.572046960E+02  0.000000000E+00  0.00000E+00  9.000E+00
      25     1     1     2     0     0  1.095751186E+02 -1.390454048E+02  1.003676379E+02  2.388283776E+02  1.250000000E+02  0.00000E+00  9.000E+00
      25     1     1     2     0     0 -8.309948576E+01  1.185045064E+02  2.447802078E+01  1.928030500E+02  1.250000000E+02  0.00000E+00  9.000E+00
      21     1     1     2   512   502 -2.647563285E+01  2.054089835E+01  6.983346364E+01  7.745708672E+01  9.536743164E-07  0.00000E+00  9.000E+00
#rwgt            1           1  0.14306379462788746                9       26489           0
</event>
<event>
      5   9999  3.79277E-02  1.09424E+02 -1.00000E+00  1.22094E-01
      21    -1     0     0   502   511  0.000000000E+00  0.000000000E+00  3.912308076E+02  3.912308076E+02  0.000000000E+00  0.00000E+00  9.000E+00
      21    -1     0     0   501   502  0.000000000E+00  0.000000000E+00 -2.580402866E+02  2.580402866E+02  0.000000000E+00  0.00000E+00  9.000E+00
      25     1     1     2     0     0  1.231038550E+02  1.201990568E+02 -3.403672210E+01  2.153737933E+02  1.250000000E+02  0.00000E+00  9.000E+00
      25     1     1     2     0     0 -1.239241317E+02 -2.296201422E+02  1.035568895E+02  3.072972982E+02  1.250000000E+02  0.00000E+00  9.000E+00
      21     1     1     2   501   511  8.202766911E-01  1.094210854E+02  6.367035359E+01  1.266000028E+02  1.784161275E-06  0.00000E+00  9.000E+00
#rwgt            1           1   3.6357170429542250E-002           9       26764           0
</event>
<event>
      5   9999  3.79277E-02  4.96300E+01 -1.00000E+00  1.39260E-01
      21    -1     0     0   512   501  0.000000000E+00  0.000000000E+00  6.802368184E+02  6.802368184E+02  0.000000000E+00  0.00000E+00  9.000E+00
      21    -1     0     0   501   502  0.000000000E+00  0.000000000E+00 -2.230549458E+02  2.230549458E+02  0.000000000E+00  0.00000E+00  9.000E+00
      25     1     1     2     0     0  1.658348921E+02  2.209685608E+01  1.604643732E+01  2.094563693E+02  1.250000000E+02  0.00000E+00  9.000E+00
      25     1     1     2     0     0 -1.671400538E+02  2.751594654E+01 -3.647374368E+01  2.136545316E+02  1.250000000E+02  0.00000E+00  9.000E+00
      21     1     1     2   512   502  1.305161706E+00 -4.961280261E+01  4.776091790E+02  4.801808633E+02  7.629394531E-06  0.00000E+00  9.000E+00
#rwgt            1           1   1.9687226847066353E-002           9       26970           0
</event>
<event>
      5   9999  3.79277E-02  1.76207E+01 -1.00000E+00  1.71039E-01
      21    -1     0     0   502   501  0.000000000E+00  0.000000000E+00  9.260218360E+01  9.260218360E+01  0.000000000E+00  0.00000E+00  9.000E+00
      21    -1     0     0   511   502  0.000000000E+00  0.000000000E+00 -7.334743014E+02  7.334743014E+02  0.000000000E+00  0.00000E+00  9.000E+00
      25     1     1     2     0     0 -1.356076913E+02  3.641929915E+01 -5.138929934E+02  5.471990679E+02  1.250000000E+02  0.00000E+00  9.000E+00
      25     1     1     2     0     0  1.470673691E+02 -2.303411347E+01 -5.111017538E+01  2.009891327E+02  1.250000000E+02  0.00000E+00  9.000E+00
      21     1     1     2   511   501 -1.145967779E+01 -1.338518568E+01 -7.586894906E+01  7.788828437E+01  9.536743164E-07  0.00000E+00  9.000E+00
#rwgt            1           1   4.1189260368623783E-002           9       27062           0
</event>
<event>
      5   9999  3.79277E-02  4.91381E+01 -1.00000E+00  1.39508E-01
      21    -1     0     0   512   501  0.000000000E+00  0.000000000E+00  4.653601495E+02  4.653601495E+02  0.000000000E+00  0.00000E+00  9.000E+00
      21    -1     0     0   501   502  0.000000000E+00  0.000000000E+00 -1.765785455E+02  1.765785455E+02  0.000000000E+00  0.00000E+00  9.000E+00
      25     1     1     2     0     0  1.267028052E+01 -1.756164993E+02 -3.003979460E+01  2.180116513E+02  1.250000000E+02  0.00000E+00  9.000E+00
      25     1     1     2     0     0  3.531422445E+01  1.862015541E+02  2.349270553E+02  3.267014455E+02  1.250000000E+02  0.00000E+00  9.000E+00
      21     1     1     2   512   502 -4.798450497E+01 -1.058505485E+01  8.389434327E+01  9.722559815E+01  0.000000000E+00  0.00000E+00  9.000E+00
#rwgt            1           1   3.6118212488715863E-002           9       27308           0
</event>
<event>
      5   9999 -3.79277E-02  9.66368E+01 -1.00000E+00  1.24500E-01
      21    -1     0     0   502   501  0.000000000E+00  0.000000000E+00  1.447018570E+02  1.447018570E+02  0.000000000E+00  0.00000E+00  9.000E+00
      21    -1     0     0   511   502  0.000000000E+00  0.000000000E+00 -7.291314216E+02  7.291314216E+02  0.000000000E+00  0.00000E+00  9.000E+00
      25     1     1     2     0     0  1.001455101E+02  3.114101027E+01 -2.956067327E+02  3.376495611E+02  1.250000000E+02  0.00000E+00  9.000E+00
      25     1     1     2     0     0 -8.641175194E+01 -1.267969062E+02  3.257176276E+01  2.005750882E+02  1.250000000E+02  0.00000E+00  9.000E+00
      21     1     1     2   511   501 -1.373375820E+01  9.565589590E+01 -3.213945947E+02  3.356086293E+02  6.607249480E-06  0.00000E+00  9.000E+00
#rwgt            1           1  -8.2373485010402259E-002           9       27464           0
</event>
<event>
      5   9999  3.79277E-02  6.31134E+01 -1.00000E+00  1.33540E-01
      21    -1     0     0   502   501  0.000000000E+00  0.000000000E+00  1.529209746E+03  1.529209746E+03  0.000000000E+00  0.00000E+00  9.000E+00
      21    -1     0     0   512   502  0.000000000E+00  0.000000000E+00 -8.181846780E+01  8.181846780E+01  0.000000000E+00  0.00000E+00  9.000E+00
      25     1     1     2     0     0  1.676916422E+02  8.638992780E+01  9.515047103E+02  9.780439255E+02  1.250000000E+02  0.00000E+00  9.000E+00
      25     1     1     2     0     0 -1.210775380E+02 -4.384085551E+01  5.311770262E+02  5.606744367E+02  1.250000000E+02  0.00000E+00  9.000E+00
      21     1     1     2   512   501 -4.661410417E+01 -4.254907228E+01 -3.529045798E+01  7.230985191E+01  2.523185073E-06  0.00000E+00  9.000E+00
#rwgt            1           1   4.9517372093767595E-002           9       27529           0
</event>
<event>
      5   9999  3.79277E-02  2.68339E+01 -1.00000E+00  1.56482E-01
      21    -1     0     0   511   501  0.000000000E+00  0.000000000E+00  4.624467222E+02  4.624467222E+02  0.000000000E+00  0.00000E+00  9.000E+00
      21    -1     0     0   501   502  0.000000000E+00  0.000000000E+00 -1.435421290E+02  1.435421290E+02  0.000000000E+00  0.00000E+00  9.000E+00
      25     1     1     2     0     0  6.182724252E+01 -1.627954145E+02  2.455482776E+02  3.259507808E+02  1.250000000E+02  0.00000E+00  9.000E+00
      25     1     1     2     0     0 -5.805936860E+01  1.362273709E+02 -8.420854304E+00  1.939708680E+02  1.250000000E+02  0.00000E+00  9.000E+00
      21     1     1     2   511   502 -3.767873923E+00  2.656804361E+01  8.177716991E+01  8.606720243E+01  9.536743164E-07  0.00000E+00  9.000E+00
#rwgt            1           1   3.6937436741873893E-002           9       27621           0
</event>
<event>
      5   9999  3.79277E-02  1.36433E+01 -1.00000E+00  1.81352E-01
      21    -1     0     0   502   512  0.000000000E+00  0.000000000E+00  2.029086821E+03  2.029086821E+03  0.000000000E+00  0.00000E+00  9.000E+00
      21    -1     0     0   501   502  0.000000000E+00  0.000000000E+00 -3.380765746E+01  3.380765746E+01  0.000000000E+00  0.00000E+00  9.000E+00
      25     1     1     2     0     0 -1.652608616E+02  7.878017603E+01  4.870898394E+02  5.351625736E+02  1.250000000E+02  0.00000E+00  9.000E+00
      25     1     1     2     0     0  1.704542333E+02 -6.616397718E+01  1.271292527E+03  1.290442563E+03  1.250000000E+02  0.00000E+00  9.000E+00
      21     1     1     2   501   512 -5.193371667E+00 -1.261619885E+01  2.368967964E+02  2.372893418E+02  3.814697266E-06  0.00000E+00  9.000E+00
#rwgt            1           1   2.3359317979367609E-002           9       27835           0
</event>
<event>
      5   9999  3.79277E-02  3.34287E+01 -1.00000E+00  1.49846E-01
      21    -1     0     0   502   511  0.000000000E+00  0.000000000E+00  5.513570067E+02  5.513570067E+02  0.000000000E+00  0.00000E+00  9.000E+00
      21    -1     0     0   501   502  0.000000000E+00  0.000000000E+00 -1.151040529E+02  1.151040529E+02  0.000000000E+00  0.00000E+00  9.000E+00
      25     1     1     2     0     0 -1.660391782E+02 -9.570194583E+00  3.754289724E+02  4.292231478E+02  1.250000000E+02  0.00000E+00  9.000E+00
      25     1     1     2     0     0  1.423382617E+02 -1.400403619E+01  3.104919269E+01  1.924716762E+02  1.250000000E+02  0.00000E+00  9.000E+00
      21     1     1     2   501   511  2.370091651E+01  2.357423077E+01  2.977478876E+01  4.476623555E+01  6.743495762E-07  0.00000E+00  9.000E+00
#rwgt            1           1   4.3696170085033528E-002           9       27990           0
</event>
<event>
      5   9999  3.79277E-02  2.02758E+01 -1.00000E+00  1.65880E-01
      21    -1     0     0   502   512  0.000000000E+00  0.000000000E+00  2.159884524E+02  2.159884524E+02  0.000000000E+00  0.00000E+00  9.000E+00
      21    -1     0     0   501   502  0.000000000E+00  0.000000000E+00 -2.121318327E+02  2.121318327E+02  0.000000000E+00  0.00000E+00  9.000E+00
      25     1     1     2     0     0 -1.463993455E+02 -4.027915234E+01 -1.787934007E+01  1.974837950E+02  1.250000000E+02  0.00000E+00  9.000E+00
      25     1     1     2     0     0  1.353384086E+02  5.727218668E+01 -9.763126525E+00  1.931758444E+02  1.250000000E+02  0.00000E+00  9.000E+00
      21     1     1     2   501   512  1.106093687E+01 -1.699303434E+01  3.149908625E+01  3.746064569E+01  7.539457465E-07  0.00000E+00  9.000E+00
#rwgt            1           1   3.5837459766189628E-002           9       28148           0
</event>
<event>
      5   9999  3.79277E-02  1.25925E+02 -1.00000E+00  1.19487E-01
       2    -1     0     0   502     0  0.000000000E+00  0.000000000E+00  2.134086427E+03  2.134086427E+03  0.000000000E+00  0.00000E+00  9.000E+00
      21    -1     0     0   501   502  0.000000000E+00  0.000000000E+00 -5.451775398E+01  5.451775398E+01  0.000000000E+00  0.00000E+00  9.000E+00
      25     1     1     2     0     0 -1.065849878E+01  1.275295432E+02  4.963021709E+02  5.275587483E+02  1.250000000E+02  0.00000E+00  9.000E+00
      25     1     1     2     0     0  1.244791448E+02 -7.366060309E+01  2.178534321E+02  2.898379889E+02  1.250000000E+02  0.00000E+00  9.000E+00
       2     1     1     2   501     0 -1.138206461E+02 -5.386894013E+01  1.365413070E+03  1.371207443E+03  0.000000000E+00  0.00000E+00  9.000E+00
#rwgt            2          18   1.0438886766358274E-003           9       28326           0
</event>
<event>
      5   9999  3.79277E-02  3.87579E+01 -1.00000E+00  1.45695E-01
      21    -1     0     0   502   501  0.000000000E+00  0.000000000E+00  2.391713169E+02  2.391713169E+02  0.000000000E+00  0.00000E+00  9.000E+00
      21    -1     0     0   501   511  0.000000000E+00  0.000000000E+00 -3.018719276E+02  3.018719276E+02  0.000000000E+00  0.00000E+00  9.000E+00
      25     1     1     2     0     0 -1.733717683E+02  3.121659975E+01  8.712465652E+01  2.329118973E+02  1.250000000E+02  0.00000E+00  9.000E+00
      25     1     1     2     0     0  1.928181919E+02  2.309723586E+00 -1.357121507E+02  2.668838283E+02  1.250000000E+02  0.00000E+00  9.000E+00
      21     1     1     2   502   511 -1.944642364E+01 -3.352632334E+01 -1.411311652E+01  4.124751880E+01  5.057621821E-07  0.00000E+00  9.000E+00
#rwgt            1           1   3.2075452712303339E-002           9       28360           0
</event>
<event>
      5   9999  4.34854E-02  4.26746E+01 -1.00000E+00  1.43118E-01
      21    -1     0     0   502   501  0.000000000E+00  0.000000000E+00  4.289690486E+01  4.289690486E+01  0.000000000E+00  0.00000E+00  9.000E+00
      21    -1     0     0   512   502  0.000000000E+00  0.000000000E+00 -1.561370393E+03  1.561370393E+03  0.000000000E+00  0.00000E+00  9.000E+00
      25     1     1     2     0     0  1.764766746E+02 -2.227224718E+01 -6.977601612E+02  7.308449304E+02  1.250000000E+02  0.00000E+00  9.000E+00
      25     1     1     2     0     0 -2.178739355E+02  1.190947523E+01 -6.374925962E+02  6.852975248E+02  1.250000000E+02  0.00000E+00  9.000E+00
      21     1     1     2   512   501  4.139726086E+01  1.036277195E+01 -1.832207309E+02  1.881248428E+02  2.697398305E-06  0.00000E+00  9.000E+00
#rwgt            1           1  0.29069627399757558                9       28521           0
</event>
<event>
      5   9999  3.79277E-02  7.65974E+00 -1.00000E+00  2.10170E-01
      21    -1     0     0   502   501  0.000000000E+00  0.000000000E+00  1.067959735E+02  1.067959735E+02  0.000000000E+00  0.00000E+00  9.000E+00
       2    -1     0     0   501     0  0.000000000E+00  0.000000000E+00 -8.828950534E+02  8.828950534E+02  0.000000000E+00  0.00000E+00  9.000E+00
      25     1     1     2     0     0 -1.508646952E+02  4.086598584E+01 -1.665434977E+02  2.603688186E+02  1.250000000E+02  0.00000E+00  9.000E+00
      25     1     1     2     0     0  1.542330881E+02 -3.398662648E+01 -1.095914734E+02  2.292994271E+02  1.250000000E+02  0.00000E+00  9.000E+00
       2     1     1     2   502     0 -3.368392888E+00 -6.879359369E+00 -4.999641087E+02  5.000227812E+02  5.394796609E-06  0.00000E+00  9.000E+00
#rwgt            1           1   4.1744512911033663E-002           9       28616           0
</event>
<event>
      5   9999  3.79277E-02  3.66680E+01 -1.00000E+00  1.47222E-01
      21    -1     0     0   502   501  0.000000000E+00  0.000000000E+00  2.226389555E+03  2.226389555E+03  0.000000000E+00  0.00000E+00  9.000E+00
      21    -1     0     0   501   511  0.000000000E+00  0.000000000E+00 -6.665831833E+01  6.665831833E+01  0.000000000E+00  0.00000E+00  9.000E+00
      25     1     1     2     0     0  6.040573301E+01  7.815353471E+01  5.241924165E+01  1.677188256E+02  1.250000000E+02  0.00000E+00  9.000E+00
      25     1     1     2     0     0 -7.119230589E+01 -4.310792232E+01  2.060022642E+03  2.065489028E+03  1.250000000E+02  0.00000E+00  9.000E+00
      21     1     1     2   502   511  1.078657288E+01 -3.504561240E+01  4.728935299E+01  5.984002013E+01  9.536743164E-07  0.00000E+00  9.000E+00
#rwgt            1           1   4.2962860082059330E-002           9       28933           0
</event>
<event>
      5   9999  3.79277E-02  2.29284E+01 -1.00000E+00  1.61617E-01
      -2    -1     0     0     0   501  0.000000000E+00  0.000000000E+00  2.291237983E+03  2.291237983E+03  0.000000000E+00  0.00000E+00  9.000E+00
      21    -1     0     0   501   502  0.000000000E+00  0.000000000E+00 -4.396706032E+02  4.396706032E+02  0.000000000E+00  0.00000E+00  9.000E+00
      25     1     1     2     0     0  6.038660191E+01 -1.353358476E+02 -2.601270015E+02  3.244277890E+02  1.250000000E+02  0.00000E+00  9.000E+00
      25     1     1     2     0     0 -3.745837888E+01  1.354346828E+02 -8.731535894E+01  2.073515261E+02  1.250000000E+02  0.00000E+00  9.000E+00
      -2     1     1     2     0   502 -2.292822302E+01 -9.883521145E-02  2.199009740E+03  2.199129271E+03  3.051757812E-05  0.00000E+00  9.000E+00
#rwgt            1           1   6.3177773137801374E-002           9       29121           0
</event>
<event>
      5   9999  3.79277E-02  2.01522E+01 -1.00000E+00  1.66098E-01
      21    -1     0     0   502   501  0.000000000E+00  0.000000000E+00  8.286036933E+02  8.286036933E+02  0.000000000E+00  0.00000E+00  9.000E+00
      21    -1     0     0   511   502  0.000000000E+00  0.000000000E+00 -2.240875656E+02  2.240875656E+02  0.000000000E+00  0.00000E+00  9.000E+00
      25     1     1     2     0     0 -2.491762183E+02  1.354403549E+02  6.490101514E+02  7.192162777E+02  1.250000000E+02  0.00000E+00  9.000E+00
      25     1     1     2     0     0  2.570366968E+02 -1.168844244E+02 -4.943039393E+01  3.127270311E+02  1.250000000E+02  0.00000E+00  9.000E+00
      21     1     1     2   511   501 -7.860478495E+00 -1.855593051E+01  4.936370346E+00  2.074795006E+01  2.230201594E-07  0.00000E+00  9.000E+00
#rwgt            1           1   3.6507646930233582E-002           9       29312           0
</event>
<event>
      5   9999  3.79277E-02  3.77689E+01 -1.00000E+00  1.46403E-01
      21    -1     0     0   512   501  0.000000000E+00  0.000000000E+00  3.460177188E+02  3.460177188E+02  0.000000000E+00  0.00000E+00  9.000E+00
      21    -1     0     0   501   502  0.000000000E+00  0.000000000E+00 -4.026557196E+02  4.026557196E+02  0.000000000E+00  0.00000E+00  9.000E+00
      25     1     1     2     0     0  2.918573708E+01  2.367660823E+02 -3.097527216E+01  2.710986028E+02  1.250000000E+02  0.00000E+00  9.000E+00
      25     1     1     2     0     0  3.820042034E+00 -2.551265778E+02 -1.681567397E+02  3.301603437E+02  1.250000000E+02  0.00000E+00  9.000E+00
      21     1     1     2   512   502 -3.300577912E+01  1.836049554E+01  1.424940110E+02  1.474144919E+02  1.907348633E-06  0.00000E+00  9.000E+00
#rwgt            1           1   4.1537882923181030E-002           9       29682           0
</event>
<event>
      5   9999  3.79277E-02  4.52628E+01 -1.00000E+00  1.41588E-01
      21    -1     0     0   502   501  0.000000000E+00  0.000000000E+00  9.783710371E+01  9.783710371E+01  0.000000000E+00  0.00000E+00  9.000E+00
      21    -1     0     0   511   502  0.000000000E+00  0.000000000E+00 -1.438822555E+03  1.438822555E+03  0.000000000E+00  0.00000E+00  9.000E+00
      25     1     1     2     0     0 -3.050742979E+02  7.302641087E+01 -3.504835745E+02  4.866897573E+02  1.250000000E+02  0.00000E+00  9.000E+00
      25     1     1     2     0     0  2.599168940E+02 -6.993900455E+01 -7.775378609E+02  8.322489899E+02  1.250000000E+02  0.00000E+00  9.000E+00
      21     1     1     2   511   501  4.515740387E+01 -3.087406319E+00 -2.129640162E+02  2.177209117E+02  2.697398305E-06  0.00000E+00  9.000E+00
#rwgt            1           1   3.8775801859238970E-002           9       29849           0
</event>
<event>
      5   9999  3.79277E-02  7.85044E+00 -1.00000E+00  2.08748E-01
      21    -1     0     0   502   512  0.000000000E+00  0.000000000E+00  3.287470931E+01  3.287470931E+01  0.000000000E+00  0.00000E+00  9.000E+00
      21    -1     0     0   501   502  0.000000000E+00  0.000000000E+00 -1.446756139E+03  1.446756139E+03  0.000000000E+00  0.00000E+00  9.000E+00
      25     1     1     2     0     0  1.430877032E+02  6.025602715E+01 -4.760573114E+02  5.161011949E+02  1.250000000E+02  0.00000E+00  9.000E+00
      25     1     1     2     0     0 -1.387781318E+02 -5.369424078E+01 -9.353099869E+02  9.552864560E+02  1.250000000E+02  0.00000E+00  9.000E+00
      21     1     1     2   501   512 -4.309571398E+00 -6.561786376E+00 -2.514131209E+00  8.243197305E+00  2.439425222E-07  0.00000E+00  9.000E+00
#rwgt            1           1   4.3509812774108800E-002           9       30002           0
</event>
<event>
      5   9999  3.79277E-02  1.02735E+02  7.55638E-03  1.23303E-01
       1    -1     0     0   501     0  0.000000000E+00  0.000000000E+00  3.511160500E+03  3.511160500E+03  0.000000000E+00  0.00000E+00  9.000E+00
      -1    -1     0     0     0   502  0.000000000E+00  0.000000000E+00 -1.277984981E+01  1.277984981E+01  0.000000000E+00  0.00000E+00  9.000E+00
      25     1     1     2     0     0  7.417591377E+01 -5.203476865E+01  2.057940373E+03  2.063723156E+03  1.250000000E+02  0.00000E+00  9.000E+00
      25     1     1     2     0     0  2.677300390E+01  3.296075272E+01  9.502832919E+02  9.594094746E+02  1.250000000E+02  0.00000E+00  9.000E+00
      21     1     1     2   501   502 -1.009489177E+02  1.907401593E+01  4.901569853E+02  5.008077199E+02  9.344061824E-06  0.00000E+00  9.000E+00
#rwgt            3           6   1.3482602998752453E-003           9       30309           0
</event>
<event>
      5   9999  3.79277E-02  3.15245E+01 -1.00000E+00  1.51560E-01
      21    -1     0     0   502   511  0.000000000E+00  0.000000000E+00  2.992089719E+02  2.992089719E+02  0.000000000E+00  0.00000E+00  9.000E+00
      21    -1     0     0   501   502  0.000000000E+00  0.000000000E+00 -2.096269829E+02  2.096269829E+02  0.000000000E+00  0.00000E+00  9.000E+00
      25     1     1     2     0     0  8.412562614E+01 -1.366758685E+02 -6.931616388E+01  2.149119461E+02  1.250000000E+02  0.00000E+00  9.000E+00
      25     1     1     2     0     0 -1.144424947E+02  1.280340849E+02  1.532029655E+02  2.618892134E+02  1.250000000E+02  0.00000E+00  9.000E+00
      21     1     1     2   501   511  3.031686854E+01  8.641783654E+00  5.695187406E+00  3.203479518E+01  5.331201500E-07  0.00000E+00  9.000E+00
#rwgt            1           1   3.2567977702250304E-002           9       30343           0
</event>
<event>
      5   9999  3.79277E-02  4.12276E+01 -1.00000E+00  1.44031E-01
      21    -1     0     0   502   501  0.000000000E+00  0.000000000E+00  1.829350562E+03  1.829350562E+03  0.000000000E+00  0.00000E+00  9.000E+00
      21    -1     0     0   501   512  0.000000000E+00  0.000000000E+00 -2.813549629E+01  2.813549629E+01  0.000000000E+00  0.00000E+00  9.000E+00
      25     1     1     2     0     0  9.556603081E+01  5.934991774E+01  1.022201513E+03  1.035942186E+03  1.250000000E+02  0.00000E+00  9.000E+00
      25     1     1     2     0     0 -1.367930544E+02 -5.912672114E+01  7.387112407E+02  7.638897866E+02  1.250000000E+02  0.00000E+00  9.000E+00
      21     1     1     2   502   512  4.122702359E+01 -2.231965986E-01  4.030231233E+01  5.765408632E+01  4.768371582E-07  0.00000E+00  9.000E+00
#rwgt            1           1  0.16416883268757609                9       30562           0
</event>
<event>
      5   9999  3.79277E-02  4.00848E+01 -1.00000E+00  1.44783E-01
       1    -1     0     0   502     0  0.000000000E+00  0.000000000E+00  5.929078093E+02  5.929078093E+02  0.000000000E+00  0.00000E+00  9.000E+00
      21    -1     0     0   501   502  0.000000000E+00  0.000000000E+00 -3.176870728E+02  3.176870728E+02  0.000000000E+00  0.00000E+00  9.000E+00
      25     1     1     2     0     0 -2.305867146E+02  8.936258345E+01  2.960362473E+02  4.054853438E+02  1.250000000E+02  0.00000E+00  9.000E+00
      25     1     1     2     0     0  1.906263962E+02 -9.251958496E+01 -2.027596534E+02  3.188020915E+02  1.250000000E+02  0.00000E+00  9.000E+00
       1     1     1     2   501     0  3.996031846E+01  3.157001510E+00  1.819441426E+02  1.863074468E+02  0.000000000E+00  0.00000E+00  9.000E+00
#rwgt            1           1   4.3048465549936840E-002           9       30777           0
</event>
<event>
      5   9999  3.79277E-02  1.03420E+02 -1.00000E+00  1.23175E-01
      21    -1     0     0   511   501  0.000000000E+00  0.000000000E+00  1.509461543E+02  1.509461543E+02  0.000000000E+00  0.00000E+00  9.000E+00
      21    -1     0     0   501   502  0.000000000E+00  0.000000000E+00 -4.130330454E+02  4.130330454E+02  0.000000000E+00  0.00000E+00  9.000E+00
      25     1     1     2     0     0  7.971630989E+00  1.418781813E+02 -6.254108197E+01  1.993222320E+02  1.250000000E+02  0.00000E+00  9.000E+00
      25     1     1     2     0     0 -1.053536980E+02 -1.070590032E+02 -1.645836585E+02  2.554874018E+02  1.250000000E+02  0.00000E+00  9.000E+00
      21     1     1     2   511   502  9.738206703E+01 -3.481917812E+01 -3.496215063E+01  1.091695659E+02  1.581489940E-06  0.00000E+00  9.000E+00
#rwgt            1           1   2.8641094594201839E-002           9       30917           0
</event>
<event>
      5   9999  3.79277E-02  5.71045E+00 -1.00000E+00  2.28860E-01
      21    -1     0     0   502   501  0.000000000E+00  0.000000000E+00  2.892311731E+02  2.892311731E+02  0.000000000E+00  0.00000E+00  9.000E+00
      21    -1     0     0   512   502  0.000000000E+00  0.000000000E+00 -1.859442548E+02  1.859442548E+02  0.000000000E+00  0.00000E+00  9.000E+00
      25     1     1     2     0     0 -3.421179329E+01  1.253585813E+02 -5.745358636E+00  1.803974220E+02  1.250000000E+02  0.00000E+00  9.000E+00
      25     1     1     2     0     0  3.392611139E+01 -1.196552807E+02  1.632265333E+02  2.402837248E+02  1.250000000E+02  0.00000E+00  9.000E+00
      21     1     1     2   512   501  2.856819026E-01 -5.703300649E+00 -5.419425634E+01  5.449428110E+01  6.743495762E-07  0.00000E+00  9.000E+00
#rwgt            1           1   4.0195970090435650E-002           9       30978           0
</event>
<event>
      5   9999  3.79277E-02  3.92495E+01 -1.00000E+00  1.45352E-01
       3    -1     0     0   502     0  0.000000000E+00  0.000000000E+00  1.189225614E+03  1.189225614E+03  0.000000000E+00  0.00000E+00  9.000E+00
      21    -1     0     0   501   502  0.000000000E+00  0.000000000E+00 -1.370552940E+02  1.370552940E+02  0.000000000E+00  0.00000E+00  9.000E+00
      25     1     1     2     0     0  4.706955539E+01  1.080108904E+02 -4.957223924E+01  1.787856325E+02  1.250000000E+02  0.00000E+00  9.000E+00
      25     1     1     2     0     0 -1.910780251E+01 -8.046709377E+01  2.278896016E+02  2.727613093E+02  1.250000000E+02  0.00000E+00  9.000E+00
       3     1     1     2   501     0 -2.796175289E+01 -2.754379658E+01  8.738529575E+02  8.747339662E+02  0.000000000E+00  0.00000E+00  9.000E+00
#rwgt            1           1   1.7923366369946223E-002           9       31337           0
</event>
<event>
      5   9999  3.79277E-02  6.79150E+01 -1.00000E+00  1.31889E-01
       1    -1     0     0   502     0  0.000000000E+00  0.000000000E+00  2.174230586E+03  2.174230586E+03  0.000000000E+00  0.00000E+00  9.000E+00
      21    -1     0     0   501   502  0.000000000E+00  0.000000000E+00 -6.824229976E+01  6.824229976E+01  0.000000000E+00  0.00000E+00  9.000E+00
      25     1     1     2     0     0  1.281394985E+02  3.177040329E+01  1.371998154E+02  2.277671595E+02  1.250000000E+02  0.00000E+00  9.000E+00
      25     1     1     2     0     0 -1.310049176E+02  3.608412383E+01  3.609262725E+02  4.054098255E+02  1.250000000E+02  0.00000E+00  9.000E+00
       1     1     1     2   501     0  2.865419193E+00 -6.785452711E+01  1.607862198E+03  1.609295900E+03  2.157918644E-05  0.00000E+00  9.000E+00
#rwgt            1           1   3.8055212199774625E-002           9       31448           0
</event>
<event>
      5   9999  3.79277E-02  4.68917E+01 -1.00000E+00  1.40685E-01
      21    -1     0     0   502   501  0.000000000E+00  0.000000000E+00  9.339779678E+01  9.339779678E+01  0.000000000E+00  0.00000E+00  9.000E+00
      21    -1     0     0   511   502  0.000000000E+00  0.000000000E+00 -5.054305651E+02  5.054305651E+02  0.000000000E+00  0.00000E+00  9.000E+00
      25     1     1     2     0     0 -1.508107504E+01  1.197520655E+02 -2.108316307E+02  2.732086612E+02  1.250000000E+02  0.00000E+00  9.000E+00
      25     1     1     2     0     0  8.851515254E+00 -1.662280779E+02 -1.528108902E+02  2.582368900E+02  1.250000000E+02  0.00000E+00  9.000E+00
      21     1     1     2   511   501  6.229559785E+00  4.647601233E+01 -4.839024739E+01  6.738281071E+01  6.743495762E-07  0.00000E+00  9.000E+00
#rwgt            1           1   4.4497122888553245E-002           9       31504           0
</event>
<event>
      5   9999  3.79277E-02  1.45801E+02 -1.00000E+00  1.16884E-01
      21    -1     0     0   502   501  0.000000000E+00  0.000000000E+00  1.606234289E+02  1.606234289E+02  0.000000000E+00  0.00000E+00  9.000E+00
      -1    -1     0     0     0   502  0.000000000E+00  0.000000000E+00 -7.206386674E+02  7.206386674E+02  0.000000000E+00  0.00000E+00  9.000E+00
      25     1     1     2     0     0  1.783501518E+02 -1.664409473E+02 -4.191745492E+02  5.008429577E+02  1.250000000E+02  0.00000E+00  9.000E+00
      25     1     1     2     0     0 -1.506884104E+02  2.328778067E+01 -3.499101650E+01  2.002465705E+02  1.250000000E+02  0.00000E+00  9.000E+00
      -1     1     1     2     0   501 -2.766174146E+01  1.431531666E+02 -1.058496727E+02  1.801725680E+02  1.907348633E-06  0.00000E+00  9.000E+00
#rwgt            1           1   4.7212049897726441E-002           9       31613           0
</event>
<event>
      5   9999  3.79277E-02  3.32833E+01 -1.00000E+00  1.49972E-01
      21    -1     0     0   502   511  0.000000000E+00  0.000000000E+00  6.751412158E+02  6.751412158E+02  0.000000000E+00  0.00000E+00  9.000E+00
      21    -1     0     0   501   502  0.000000000E+00  0.000000000E+00 -3.097078291E+02  3.097078291E+02  0.000000000E+00  0.00000E+00  9.000E+00
      25     1     1     2     0     0 -1.482247274E+02 -3.643905825E+02  2.744058755E+02  4.956557787E+02  1.250000000E+02  0.00000E+00  9.000E+00
      25     1     1     2     0     0  1.519663772E+02  3.974629221E+02  6.791866964E+01  4.486741578E+02  1.250000000E+02  0.00000E+00  9.000E+00
      21     1     1     2   501   511 -3.741649757E+00 -3.307233960E+01  2.310884154E+01  4.051910842E+01  4.768371582E-07  0.00000E+00  9.000E+00
#rwgt            1           1   1.0437652091137927E-002           9       31690           0
</event>
<event>
      5   9999  3.79277E-02  4.25064E+01 -1.00000E+00  1.43222E-01
      21    -1     0     0   502   501  0.000000000E+00  0.000000000E+00  2.681323111E+02  2.681323111E+02  0.000000000E+00  0.00000E+00  9.000E+00
      21    -1     0     0   512   502  0.000000000E+00  0.000000000E+00 -5.557000763E+02  5.557000763E+02  0.000000000E+00  0.00000E+00  9.000E+00
      25     1     1     2     0     0 -8.871419017E+01  1.210040140E+02  1.003918715E+02  2.195807524E+02  1.250000000E+02  0.00000E+00  9.000E+00
      25     1     1     2     0     0  1.267274214E+02 -1.400248466E+02 -1.295659766E+01  2.268472403E+02  1.250000000E+02  0.00000E+00  9.000E+00
      21     1     1     2   512   501 -3.801323122E+01  1.902083257E+01 -3.750030391E+02  3.774043947E+02  0.000000000E+00  0.00000E+00  9.000E+00
#rwgt            1           1   3.2255361641161828E-002           9       31841           0
</event>
<event>
      5   9999 -3.79277E-02  9.94195E+01 -1.00000E+00  1.23942E-01
      21    -1     0     0   502   501  0.000000000E+00  0.000000000E+00  9.899596968E+02  9.899596968E+02  0.000000000E+00  0.00000E+00  9.000E+00
      21    -1     0     0   511   502  0.000000000E+00  0.000000000E+00 -7.851118131E+01  7.851118131E+01  0.000000000E+00  0.00000E+00  9.000E+00
      25     1     1     2     0     0  1.125464280E+02  1.015617341E+02  2.930102222E+02  3.527909786E+02  1.250000000E+02  0.00000E+00  9.000E+00
      25     1     1     2     0     0 -2.097101014E+02 -8.050328905E+01  4.891420422E+02  5.525794455E+02  1.250000000E+02  0.00000E+00  9.000E+00
      21     1     1     2   511   501  9.716367340E+01 -2.105844502E+01  1.292962511E+02  1.631004540E+02  1.907348633E-06  0.00000E+00  9.000E+00
#rwgt            1           1 -0.31112846638802422                9       31966           0
</event>
<event>
      5   9999  3.79277E-02  5.71359E+01 -1.00000E+00  1.35848E-01
      21    -1     0     0   502   512  0.000000000E+00  0.000000000E+00  4.156826152E+02  4.156826152E+02  0.000000000E+00  0.00000E+00  9.000E+00
      21    -1     0     0   501   502  0.000000000E+00  0.000000000E+00 -1.360574551E+02  1.360574551E+02  0.000000000E+00  0.00000E+00  9.000E+00
      25     1     1     2     0     0  1.837206224E+02  4.305798249E+01  1.591779761E+02  2.767126398E+02  1.250000000E+02  0.00000E+00  9.000E+00
      25     1     1     2     0     0 -1.273168694E+02 -5.217547372E+01  6.945536401E+01  1.984462468E+02  1.250000000E+02  0.00000E+00  9.000E+00
      21     1     1     2   501   512 -5.640375300E+01  9.117491229E+00  5.099181997E+01  7.658118374E+01  1.651812370E-06  0.00000E+00  9.000E+00
#rwgt            1           1   3.5159189946473116E-002           9       32067           0
</event>
<event>
      5   9999  3.79277E-02  9.76442E+01 -1.00000E+00  1.24295E-01
      21    -1     0     0   502   501  0.000000000E+00  0.000000000E+00  7.663294851E+02  7.663294851E+02  0.000000000E+00  0.00000E+00  9.000E+00
      21    -1     0     0   501   511  0.000000000E+00  0.000000000E+00 -8.259257249E+01  8.259257249E+01  0.000000000E+00  0.00000E+00  9.000E+00
      25     1     1     2     0     0 -4.358425286E+01  1.888367827E+02  2.797119585E+02  3.625226852E+02  1.250000000E+02  0.00000E+00  9.000E+00
      25     1     1     2     0     0 -1.836742699E+01 -1.133624138E+02  2.923512727E+02  3.380571932E+02  1.250000000E+02  0.00000E+00  9.000E+00
      21     1     1     2   502   511  6.195167985E+01 -7.547436883E+01  1.116736814E+02  1.483421791E+02  1.348699152E-06  0.00000E+00  9.000E+00
#rwgt            1           1   3.8765490506504324E-002           9       32191           0
</event>
<event>
      5   9999  3.79277E-02  1.38697E+01 -1.00000E+00  1.80650E-01
      21    -1     0     0   512   501  0.000000000E+00  0.000000000E+00  9.057350821E+02  9.057350821E+02  0.000000000E+00  0.00000E+00  9.000E+00
      21    -1     0     0   501   502  0.000000000E+00  0.000000000E+00 -1.162389788E+02  1.162389788E+02  0.000000000E+00  0.00000E+00  9.000E+00
      25     1     1     2     0     0 -2.773702456E+02 -2.401912210E+01  4.586597427E+02  5.509128161E+02  1.250000000E+02  0.00000E+00  9.000E+00
      25     1     1     2     0     0  2.911386376E+02  2.569268326E+01  2.992965734E+02  4.366065267E+02  1.250000000E+02  0.00000E+00  9.000E+00
      21     1     1     2   512   502 -1.376839209E+01 -1.673561154E+00  3.153978723E+01  3.445471820E+01  3.371747881E-07  0.00000E+00  9.000E+00
#rwgt            1           1   3.3464271779417895E-002           9       32277           0
</event>
<event>
      5   9999  3.79277E-02  3.44991E+01 -1.00000E+00  1.48941E-01
      21    -1     0     0   502   501  0.000000000E+00  0.000000000E+00  5.001158336E+02  5.001158336E+02  0.000000000E+00  0.00000E+00  9.000E+00
      21    -1     0     0   511   502  0.000000000E+00  0.000000000E+00 -1.552911388E+02  1.552911388E+02  0.000000000E+00  0.00000E+00  9.000E+00
      25     1     1     2     0     0 -2.226818346E+01 -2.263253530E+02  2.199647019E+02  3.401889291E+02  1.250000000E+02  0.00000E+00  9.000E+00
      25     1     1     2     0     0  7.129257712E+00  1.953253482E+02  1.465968614E+02  2.744420845E+02  1.250000000E+02  0.00000E+00  9.000E+00
      21     1     1     2   511   501  1.513892575E+01  3.100000486E+01 -2.173686839E+01  4.077595887E+01  6.743495762E-07  0.00000E+00  9.000E+00
#rwgt            1           1   3.5924149150017758E-002           9       32534           0
</event>
<event>
      5   9999  3.79277E-02  7.04181E+01 -1.00000E+00  1.31090E-01
      21    -1     0     0   502   501  0.000000000E+00  0.000000000E+00  1.314079266E+01  1.314079266E+01  0.000000000E+00  0.00000E+00  9.000E+00
       2    -1     0     0   501     0  0.000000000E+00  0.000000000E+00 -4.077385277E+03  4.077385277E+03  0.000000000E+00  0.00000E+00  9.000E+00
      25     1     1     2     0     0  1.090633814E+02  6.813537084E+01 -1.684108994E+03  1.693630820E+03  1.250000000E+02  0.00000E+00  9.000E+00
      25     1     1     2     0     0 -7.767149174E+01 -1.311692001E+02 -1.345387286E+03  1.359753716E+03  1.250000000E+02  0.00000E+00  9.000E+00
       2     1     1     2   502     0 -3.139188963E+01  6.303382926E+01 -1.034748205E+03  1.037141534E+03  2.157918644E-05  0.00000E+00  9.000E+00
#rwgt            1           1   2.5629932520998950E-002           9       32643           0
</event>
<event>
      5   9999  3.79277E-02  4.59279E+01 -1.00000E+00  1.41214E-01
       1    -1     0     0   502     0  0.000000000E+00  0.000000000E+00  3.701856507E+02  3.701856507E+02  0.000000000E+00  0.00000E+00  9.000E+00
      21    -1     0     0   501   502  0.000000000E+00  0.000000000E+00 -4.150515065E+02  4.150515065E+02  0.000000000E+00  0.00000E+00  9.000E+00
      25     1     1     2     0     0 -6.616238202E+01 -2.555581579E+02 -1.335473285E+02  3.211655676E+02  1.250000000E+02  0.00000E+00  9.000E+00
      25     1     1     2     0     0  4.677252699E+01  2.971923865E+02 -3.925442248E+01  3.281415755E+02  1.250000000E+02  0.00000E+00  9.000E+00
       1     1     1     2   501     0  1.938985504E+01 -4.163422863E+01  1.279358952E+02  1.359300142E+02  1.348699152E-06  0.00000E+00  9.000E+00
#rwgt            1           1   2.2775429082040371E-002           9       32687           0
</event>
<event>
      5   9999  3.79277E-02  9.90530E+00 -1.00000E+00  1.96236E-01
      21    -1     0     0   502   501  0.000000000E+00  0.000000000E+00  5.312967093E+02  5.312967093E+02  0.000000000E+00  0.00000E+00  9.000E+00
      21    -1     0     0   511   502  0.000000000E+00  0.000000000E+00 -4.289879745E+02  4.289879745E+02  0.000000000E+00  0.00000E+00  9.000E+00
      25     1     1     2     0     0 -6.884435980E+00  1.283246972E+02  2.584567996E+02  3.145465635E+02  1.250000000E+02  0.00000E+00  9.000E+00
      25     1     1     2     0     0 -2.366706597E+00 -1.318646680E+02  2.109980682E+02  2.784583932E+02  1.250000000E+02  0.00000E+00  9.000E+00
      21     1     1     2   511   501  9.251142577E+00  3.539970782E+00 -3.671461330E+02  3.672797271E+02  0.000000000E+00  0.00000E+00  9.000E+00
#rwgt            1           1   3.7251622432216656E-002           9       32881           0
</event>
<event>
      5   9999  3.79277E-02  1.81543E+02 -1.00000E+00  1.13201E-01
      21    -1     0     0   502   501  0.000000000E+00  0.000000000E+00  2.459227319E+02  2.459227319E+02  0.000000000E+00  0.00000E+00  9.000E+00
       2    -1     0     0   501     0  0.000000000E+00  0.000000000E+00 -7.469891283E+02  7.469891283E+02  0.000000000E+00  0.00000E+00  9.000E+00
      25     1     1     2     0     0  5.941151182E+01  2.636229193E+02 -6.204867525E+01  3.041411012E+02  1.250000000E+02  0.00000E+00  9.000E+00
      25     1     1     2     0     0 -1.729929388E+02 -1.219991823E+02 -3.823976426E+01  2.487923571E+02  1.250000000E+02  0.00000E+00  9.000E+00
       2     1     1     2   502     0  1.135814270E+02 -1.416237370E+02 -4.007779569E+02  4.399784019E+02  5.394796609E-06  0.00000E+00  9.000E+00
#rwgt            1           1   3.4870088276022983E-002           9       33116           0
</event>
<event>
      5   9999  3.79277E-02  2.61086E+01 -1.00000E+00  1.57352E-01
      21    -1     0     0   502   501  0.000000000E+00  0.000000000E+00  8.456593329E+02  8.456593329E+02  0.000000000E+00  0.00000E+00  9.000E+00
      21    -1     0     0   501   511  0.000000000E+00  0.000000000E+00 -5.733632305E+01  5.733632305E+01  0.000000000E+00  0.00000E+00  9.000E+00
      25     1     1     2     0     0 -4.697533837E+01  8.576910138E+01  6.513401456E+02  6.703969021E+02  1.250000000E+02  0.00000E+00  9.000E+00
      25     1     1     2     0     0  6.175810358E+01 -6.424871015E+01  1.380651194E+02  2.064677633E+02  1.250000000E+02  0.00000E+00  9.000E+00
      21     1     1     2   502   511 -1.478276521E+01 -2.152039122E+01 -1.082255104E+00  2.613099045E+01  3.440200204E-07  0.00000E+00  9.000E+00
#rwgt            1           1   3.6430135738057187E-002           9       33210           0
</event>
<event>
      5   9999  3.79277E-02  1.15778E+02 -1.00000E+00  1.21032E-01
      21    -1     0     0   502   501  0.000000000E+00  0.000000000E+00  5.899281109E+02  5.899281109E+02  0.000000000E+00  0.00000E+00  9.000E+00
      21    -1     0     0   512   502  0.000000000E+00  0.000000000E+00 -2.857671271E+02  2.857671271E+02  0.000000000E+00  0.00000E+00  9.000E+00
      25     1     1     2     0     0  4.614828803E+01  1.263257172E+02  3.530772258E+02  3.979652984E+02  1.250000000E+02  0.00000E+00  9.000E+00
      25     1     1     2     0     0 -1.718011850E+01 -1.422989195E+01  1.805391931E+02  2.207193841E+02  1.250000000E+02  0.00000E+00  9.000E+00
      21     1     1     2   512   501 -2.896816954E+01 -1.120958253E+02 -2.294554351E+02  2.570105554E+02  3.814697266E-06  0.00000E+00  9.000E+00
#rwgt            1           1   6.6850609443926748E-002           9       33315           0
</event>
<event>
      5   9999  3.79277E-02  1.94773E+02 -1.00000E+00  1.12068E-01
      21    -1     0     0   502   511  0.000000000E+00  0.000000000E+00  2.201176358E+02  2.201176358E+02  0.000000000E+00  0.00000E+00  9.000E+00
      21    -1     0     0   501   502  0.000000000E+00  0.000000000E+00 -1.395023531E+03  1.395023531E+03  0.000000000E+00  0.00000E+00  9.000E+00
      25     1     1     2     0     0  1.095716839E+02 -1.619279131E+02 -1.948999836E+02  3.030472019E+02  1.250000000E+02  0.00000E+00  9.000E+00
      25     1     1     2     0     0 -2.405421620E+02  1.776420654E+01 -1.065351709E+03  1.099443206E+03  1.250000000E+02  0.00000E+00  9.000E+00
      21     1     1     2   501   511  1.309704781E+02  1.441637065E+02  8.534579725E+01  2.126507595E+02  5.309833873E-06  0.00000E+00  9.000E+00
#rwgt            1           1   3.4366144247130651E-002           9       33494           0
</event>
<event>
      5   9999  3.79277E-02  3.94785E+01 -1.00000E+00  1.45194E-01
      21    -1     0     0   512   501  0.000000000E+00  0.000000000E+00  4.544472666E+02  4.544472666E+02  0.000000000E+00  0.00000E+00  9.000E+00
      21    -1     0     0   501   502  0.000000000E+00  0.000000000E+00 -2.786085750E+02  2.786085750E+02  0.000000000E+00  0.00000E+00  9.000E+00
      25     1     1     2     0     0 -1.886478558E+02  2.466536952E+01  6.414920589E+01  2.365090158E+02  1.250000000E+02  0.00000E+00  9.000E+00
      25     1     1     2     0     0  1.623135001E+02  4.746469852E+00 -1.358606507E+02  2.458684968E+02  1.250000000E+02  0.00000E+00  9.000E+00
      21     1     1     2   512   502  2.633435567E+01 -2.941183937E+01  2.475501364E+02  2.506783290E+02  2.697398305E-06  0.00000E+00  9.000E+00
#rwgt            1           1   3.0803624079102320E-002           9       33692           0
</event>
<event>
      5   9999 -3.79277E-02  6.58489E+01 -1.00000E+00  1.32580E-01
      21    -1     0     0   511   501  0.000000000E+00  0.000000000E+00  7.530389273E+02  7.530389273E+02  0.000000000E+00  0.00000E+00  9.000E+00
      21    -1     0     0   501   502  0.000000000E+00  0.000000000E+00 -9.138881183E+01  9.138881183E+01  0.000000000E+00  0.00000E+00  9.000E+00
      25     1     1     2     0     0 -3.939695845E+01  1.736472359E+02  2.911780165E+02  3.634764369E+02  1.250000000E+02  0.00000E+00  9.000E+00
      25     1     1     2     0     0  9.168524609E+01 -1.336221371E+02  1.581294970E+02  2.586329401E+02  1.250000000E+02  0.00000E+00  9.000E+00
      21     1     1     2   511   502 -5.228828763E+01 -4.002509881E+01  2.123426019E+02  2.223183621E+02  2.697398305E-06  0.00000E+00  9.000E+00
#rwgt            1           1 -0.10758491661572349                9       33792           0
</event>
<event>
      5   9999  3.79277E-02  1.01379E+02 -1.00000E+00  1.23561E-01
       2    -1     0     0   502     0  0.000000000E+00  0.000000000E+00  3.474651167E+02  3.474651167E+02  0.000000000E+00  0.00000E+00  9.000E+00
      21    -1     0     0   501   502  0.000000000E+00  0.000000000E+00 -1.338396063E+02  1.338396063E+02  0.000000000E+00  0.00000E+00  9.000E+00
      25     1     1     2     0     0 -1.257967831E+00  3.207682734E+01 -3.196355128E+01  1.329555337E+02  1.250000000E+02  0.00000E+00  9.000E+00
      25     1     1     2     0     0  4.547715047E+01  5.915068335E+01  1.495006860E+02  2.086682287E+02  1.250000000E+02  0.00000E+00  9.000E+00
       2     1     1     2   501     0 -4.421918264E+01 -9.122751069E+01  9.608837572E+01  1.396809606E+02  1.348699152E-06  0.00000E+00  9.000E+00
#rwgt            1           1   3.3753499446821836E-002           9       33891           0
</event>
<event>
      5   9999  3.79277E-02  1.03387E+02 -1.00000E+00  1.23181E-01
      21    -1     0     0   502   511  0.000000000E+00  0.000000000E+00  6.273903469E+01  6.273903469E+01  0.000000000E+00  0.00000E+00  9.000E+00
      21    -1     0     0   501   502  0.000000000E+00  0.000000000E+00 -1.277587308E+03  1.277587308E+03  0.000000000E+00  0.00000E+00  9.000E+00
      25     1     1     2     0     0  1.075477500E+02  6.099474618E+01 -1.009443289E+03  1.024640245E+03  1.250000000E+02  0.00000E+00  9.000E+00
      25     1     1     2     0     0 -4.800264809E+01  2.352353949E+01 -1.077887084E+02  1.734964461E+02  1.250000000E+02  0.00000E+00  9.000E+00
      21     1     1     2   501   511 -5.954510188E+01 -8.451828566E+01 -9.761627591E+01  1.421896518E+02  1.907348633E-06  0.00000E+00  9.000E+00
#rwgt            1           1   4.0293577697067040E-002           9       33966           0
</event>
<event>
      5   9999  3.79277E-02  2.91342E+01 -1.00000E+00  1.53928E-01
      21    -1     0     0   512   501  0.000000000E+00  0.000000000E+00  3.027179840E+02  3.027179840E+02  0.000000000E+00  0.00000E+00  9.000E+00
      21    -1     0     0   501   502  0.000000000E+00  0.000000000E+00 -2.612865691E+02  2.612865691E+02  0.000000000E+00  0.00000E+00  9.000E+00
      25     1     1     2     0     0 -1.072279496E+02  2.081154636E+02 -2.392474919E+01  2.664718990E+02  1.250000000E+02  0.00000E+00  9.000E+00
      25     1     1     2     0     0  1.238706859E+02 -1.842026762E+02  3.800803420E+01  2.575736466E+02  1.250000000E+02  0.00000E+00  9.000E+00
      21     1     1     2   512   502 -1.664273630E+01 -2.391278738E+01  2.734812994E+01  3.995900754E+01  0.000000000E+00  0.00000E+00  9.000E+00
#rwgt            1           1   4.5998692908452266E-002           9       34129           0
</event>
<event>
      5   9999  3.79277E-02  7.88130E+01 -1.00000E+00  1.28665E-01
      21    -1     0     0   502   501  0.000000000E+00  0.000000000E+00  1.013434293E+03  1.013434293E+03  0.000000000E+00  0.00000E+00  9.000E+00
      21    -1     0     0   501   511  0.000000000E+00  0.000000000E+00 -1.791512742E+02  1.791512742E+02  0.000000000E+00  0.00000E+00  9.000E+00
      25     1     1     2     0     0  3.628211410E+01  1.426993787E+02  8.141089626E+02  8.367065839E+02  1.250000000E+02  0.00000E+00  9.000E+00
      25     1     1     2     0     0 -1.145504257E+02 -1.334498957E+02  1.051118962E+02  2.400087195E+02  1.250000000E+02  0.00000E+00  9.000E+00
      21     1     1     2   502   511  7.826831163E+01 -9.249483029E+00 -8.493783960E+01  1.158702642E+02  3.568322551E-06  0.00000E+00  9.000E+00
#rwgt            1           1   2.5634393987027597E-002           9       34225           0
</event>
<event>
      5   9999  3.79277E-02  8.77560E+00 -1.00000E+00  2.02551E-01
       1    -1     0     0   502     0  0.000000000E+00  0.000000000E+00  9.023550721E+01  9.023550721E+01  0.000000000E+00  0.00000E+00  9.000E+00
      21    -1     0     0   501   502  0.000000000E+00  0.000000000E+00 -7.543153975E+02  7.543153975E+02  0.000000000E+00  0.00000E+00  9.000E+00
      25     1     1     2     0     0  1.022237029E+02 -8.753775249E+01 -5.718462158E+02  6.006210437E+02  1.250000000E+02  0.00000E+00  9.000E+00
      25     1     1     2     0     0 -1.034075696E+02  9.623313228E+01 -1.140441801E+02  2.204200903E+02  1.250000000E+02  0.00000E+00  9.000E+00
       1     1     1     2   501     0  1.183866661E+00 -8.695379786E+00  2.181050557E+01  2.350977080E+01  3.371747881E-07  0.00000E+00  9.000E+00
#rwgt            1           1   2.4509458022152760E-002           9       34332           0
</event>
<event>
      5   9999  3.79277E-02  3.89793E+01 -1.00000E+00  1.45540E-01
      21    -1     0     0   502   501  0.000000000E+00  0.000000000E+00  1.026346933E+02  1.026346933E+02  0.000000000E+00  0.00000E+00  9.000E+00
       2    -1     0     0   501     0  0.000000000E+00  0.000000000E+00 -5.244066398E+02  5.244066398E+02  0.000000000E+00  0.00000E+00  9.000E+00
      25     1     1     2     0     0 -1.304229062E+02  4.713881763E+01 -3.670024587E+02  4.117620761E+02  1.250000000E+02  0.00000E+00  9.000E+00
      25     1     1     2     0     0  1.125962331E+02 -1.247480742E+01 -5.035052576E+01  1.760502996E+02  1.250000000E+02  0.00000E+00  9.000E+00
       2     1     1     2   502     0  1.782667312E+01 -3.466401021E+01 -4.418961972E+00  3.922895746E+01  3.209808354E-07  0.00000E+00  9.000E+00
#rwgt            1           1   3.9163942945051849E-002           9       34548           0
</event>
<event>
      5   9999  3.79277E-02  3.88337E+01 -1.00000E+00  1.45642E-01
      21    -1     0     0   502   501  0.000000000E+00  0.000000000E+00  8.041625197E+02  8.041625197E+02  0.000000000E+00  0.00000E+00  9.000E+00
      21    -1     0     0   511   502  0.000000000E+00  0.000000000E+00 -6.190219616E+01  6.190219616E+01  0.000000000E+00  0.00000E+00  9.000E+00
      25     1     1     2     0     0 -1.328410032E+00 -6.950807696E+01  6.497362203E+02  6.652933889E+02  1.250000000E+02  0.00000E+00  9.000E+00
      25     1     1     2     0     0 -2.890926815E+01  4.514131468E+01  8.723022483E+01  1.615784522E+02  1.250000000E+02  0.00000E+00  9.000E+00
      21     1     1     2   511   501  3.023767818E+01  2.436676229E+01  5.293878470E+00  3.919287481E+01  9.367605236E-07  0.00000E+00  9.000E+00
#rwgt            1           1   4.0628534502895955E-002           9       34713           0
</event>
<event>
      5   9999  3.79277E-02  2.98787E+01 -1.00000E+00  1.53162E-01
      21    -1     0     0   512   501  0.000000000E+00  0.000000000E+00  8.883560787E+02  8.883560787E+02  0.000000000E+00  0.00000E+00  9.000E+00
      21    -1     0     0   501   502  0.000000000E+00  0.000000000E+00 -5.711316035E+01  5.711316035E+01  0.000000000E+00  0.00000E+00  9.000E+00
      25     1     1     2     0     0 -1.065662182E+02  4.220539848E+01  1.809852727E+02  2.480288762E+02  1.250000000E+02  0.00000E+00  9.000E+00
      25     1     1     2     0     0  1.362931238E+02 -4.521339139E+01  3.749356459E+02  4.205018489E+02  1.250000000E+02  0.00000E+00  9.000E+00
      21     1     1     2   512   502 -2.972690563E+01  3.007992907E+00  2.753219997E+02  2.769385139E+02  0.000000000E+00  0.00000E+00  9.000E+00
#rwgt            1           1   3.6888912111416275E-002           9       34779           0
</event>
<event>
      5   9999  3.79277E-02  1.19131E+01 -1.00000E+00  1.87361E-01
      21    -1     0     0   502   501  0.000000000E+00  0.000000000E+00  1.448344538E+03  1.448344538E+03  0.000000000E+00  0.00000E+00  9.000E+00
       2    -1     0     0   501     0  0.000000000E+00  0.000000000E+00 -6.252040562E+01  6.252040562E+01  0.000000000E+00  0.00000E+00  9.000E+00
      25     1     1     2     0     0  1.058036389E+02 -3.113830886E+01  4.616944825E+02  4.908673950E+02  1.250000000E+02  0.00000E+00  9.000E+00
      25     1     1     2     0     0 -1.024188705E+02  4.256044346E+01  9.640042271E+02  9.783814012E+02  1.250000000E+02  0.00000E+00  9.000E+00
       2     1     1     2   502     0 -3.384768347E+00 -1.142213460E+01 -3.987457723E+01  4.161614741E+01  1.430511475E-06  0.00000E+00  9.000E+00
#rwgt            1           1   4.7713237019502988E-002           9       34952           0
</event>
<event>
      5   9999 -3.79277E-02  3.76128E+01 -1.00000E+00  1.46517E-01
      21    -1     0     0   502   501  0.000000000E+00  0.000000000E+00  5.187974974E+02  5.187974974E+02  0.000000000E+00  0.00000E+00  9.000E+00
      21    -1     0     0   501   511  0.000000000E+00  0.000000000E+00 -5.871869385E+02  5.871869385E+02  0.000000000E+00  0.00000E+00  9.000E+00
      25     1     1     2     0     0 -1.736659361E+02  2.178441543E+02  3.538000445E+01  3.073966129E+02  1.250000000E+02  0.00000E+00  9.000E+00
      25     1     1     2     0     0  2.108369653E+02 -2.235919108E+02  2.670321357E+02  4.258834700E+02  1.250000000E+02  0.00000E+00  9.000E+00
      21     1     1     2   502   511 -3.717102922E+01  5.747756479E+00 -3.708015812E+02  3.727043530E+02  7.629394531E-06  0.00000E+00  9.000E+00
#rwgt            1           1 -0.11559876126521941                9       35267           0
</event>
<event>
      5   9999  3.79277E-02  4.46393E+01 -1.00000E+00  1.41945E-01
      21    -1     0     0   502   501  0.000000000E+00  0.000000000E+00  1.058370557E+03  1.058370557E+03  0.000000000E+00  0.00000E+00  9.000E+00
      21    -1     0     0   501   512  0.000000000E+00  0.000000000E+00 -1.613773122E+02  1.613773122E+02  0.000000000E+00  0.00000E+00  9.000E+00
      25     1     1     2     0     0 -2.308551025E+02  2.058617245E+01  2.736511611E+02  3.797733888E+02  1.250000000E+02  0.00000E+00  9.000E+00
      25     1     1     2     0     0  1.897420645E+02 -3.196955704E+00  7.083784149E+02  7.439336330E+02  1.250000000E+02  0.00000E+00  9.000E+00
      21     1     1     2   502   512  4.111303792E+01 -1.738921675E+01 -8.503633126E+01  9.604084745E+01  1.348699152E-06  0.00000E+00  9.000E+00
#rwgt            1           1   4.2607810570701822E-002           9       35421           0
</event>
<event>
      5   9999  3.79277E-02  3.08104E+01 -1.00000E+00  1.52240E-01
      21    -1     0     0   502   501  0.000000000E+00  0.000000000E+00  2.749515639E+02  2.749515639E+02  0.000000000E+00  0.00000E+00  9.000E+00
      21    -1     0     0   511   502  0.000000000E+00  0.000000000E+00 -9.972089272E+01  9.972089272E+01  0.000000000E+00  0.00000E+00  9.000E+00
      25     1     1     2     0     0 -3.274336363E+01 -5.088640241E+01  1.231099434E+01  1.394206383E+02  1.250000000E+02  0.00000E+00  9.000E+00
      25     1     1     2     0     0  1.086190337E+01  2.919581535E+01  1.583051857E+02  2.040977913E+02  1.250000000E+02  0.00000E+00  9.000E+00
      21     1     1     2   511   501  2.188146026E+01  2.169058706E+01  4.614491089E+00  3.115402699E+01  2.064765462E-07  0.00000E+00  9.000E+00
#rwgt            1           1   8.0057724278254833E-002           9       35545           0
</event>
<event>
      5   9999  3.79277E-02  4.89150E+01 -1.00000E+00  1.39621E-01
      21    -1     0     0   502   501  0.000000000E+00  0.000000000E+00  2.847167146E+02  2.847167146E+02  0.000000000E+00  0.00000E+00  9.000E+00
      21    -1     0     0   512   502  0.000000000E+00  0.000000000E+00 -2.083449471E+02  2.083449471E+02  0.000000000E+00  0.00000E+00  9.000E+00
      25     1     1     2     0     0 -1.763269012E+01 -1.616436599E+02  1.179395108E+02  2.365889109E+02  1.250000000E+02  0.00000E+00  9.000E+00
      25     1     1     2     0     0 -3.116278235E+01  1.582267585E+02 -3.673942768E+01  2.073200705E+02  1.250000000E+02  0.00000E+00  9.000E+00
      21     1     1     2   512   501  4.879547248E+01  3.416901418E+00 -4.828315684E+00  4.915268031E+01  1.081130335E-06  0.00000E+00  9.000E+00
#rwgt            1           1   4.1118322033395098E-002           9       35623           0
</event>
<event>
      5   9999  3.79277E-02  4.02854E+01 -1.00000E+00  1.44649E-01
      21    -1     0     0   502   501  0.000000000E+00  0.000000000E+00  2.353919302E+03  2.353919302E+03  0.000000000E+00  0.00000E+00  9.000E+00
      21    -1     0     0   511   502  0.000000000E+00  0.000000000E+00 -3.270970064E+01  3.270970064E+01  0.000000000E+00  0.00000E+00  9.000E+00
      25     1     1     2     0     0  9.901954090E+01  8.401791284E+01  8.610430139E+02  8.797067415E+02  1.250000000E+02  0.00000E+00  9.000E+00
      25     1     1     2     0     0 -1.370694673E+02 -7.078482020E+01  1.452382559E+03  1.465891751E+03  1.250000000E+02  0.00000E+00  9.000E+00
      21     1     1     2   511   501  3.804992645E+01 -1.323309264E+01  7.784028800E+00  4.103050996E+01  2.155678430E-06  0.00000E+00  9.000E+00
#rwgt            1           1   6.5743507294846529E-002           9       35781           0
</event>
<event>
      5   9999  3.79277E-02  5.17449E+01 -1.00000E+00  1.38231E-01
      21    -1     0     0   502   501  0.000000000E+00  0.000000000E+00  1.035132791E+02  1.035132791E+02  0.000000000E+00  0.00000E+00  9.000E+00
      21    -1     0     0   501   512  0.000000000E+00  0.000000000E+00 -1.252904461E+03  1.252904461E+03  0.000000000E+00  0.00000E+00  9.000E+00
      25     1     1     2     0     0 -1.341256212E+02 -1.047208723E+02 -3.888944910E+01  2.146940441E+02  1.250000000E+02  0.00000E+00  9.000E+00
      25     1     1     2     0     0  9.822364147E+01  1.419845207E+02 -9.137813703E+02  9.383117182E+02  1.250000000E+02  0.00000E+00  9.000E+00
      21     1     1     2   502   512  3.590197970E+01 -3.726364841E+01 -1.967203622E+02  2.034119774E+02  3.814697266E-06  0.00000E+00  9.000E+00
#rwgt            1           1   4.0526383363844690E-002           9       35845           0
</event>
<event>
      5   9999  3.79277E-02  1.38741E+02 -1.00000E+00  1.17753E-01
      21    -1     0     0   502   501  0.000000000E+00  0.000000000E+00  7.311301340E+01  7.311301340E+01  0.000000000E+00  0.00000E+00  9.000E+00
       2    -1     0     0   501     0  0.000000000E+00  0.000000000E+00 -1.942152788E+03  1.942152788E+03  0.000000000E+00  0.00000E+00  9.000E+00
      25     1     1     2     0     0  5.394727097E+01 -6.555307791E+01 -1.260466353E+02  1.967746639E+02  1.250000000E+02  0.00000E+00  9.000E+00
      25     1     1     2     0     0 -1.926707790E+02  6.774800419E+01 -3.847267236E+02  4.531572277E+02  1.250000000E+02  0.00000E+00  9.000E+00
       2     1     1     2   502     0  1.387235080E+02 -2.194926284E+00 -1.358266415E+03  1.365333909E+03  1.525878906E-05  0.00000E+00  9.000E+00
#rwgt            1           1   2.5336014844534602E-002           9       35967           0
</event>
<event>
      5   9999  3.79277E-02  4.01073E+01 -1.00000E+00  1.44768E-01
      21    -1     0     0   511   501  0.000000000E+00  0.000000000E+00  1.538654783E+02  1.538654783E+02  0.000000000E+00  0.00000E+00  9.000E+00
      21    -1     0     0   501   502  0.000000000E+00  0.000000000E+00 -2.922418237E+02  2.922418237E+02  0.000000000E+00  0.00000E+00  9.000E+00
      25     1     1     2     0     0 -3.514412818E+01 -1.153141934E+02 -9.909977126E+01  1.999455866E+02  1.250000000E+02  0.00000E+00  9.000E+00
      25     1     1     2     0     0  5.688997896E+01  1.490145261E+02 -2.859971905E+01  2.046576229E+02  1.250000000E+02  0.00000E+00  9.000E+00
      21     1     1     2   511   502 -2.174585079E+01 -3.370033268E+01 -1.067685514E+01  4.150409238E+01  8.429369702E-07  0.00000E+00  9.000E+00
#rwgt            1           1   3.4605687097125228E-002           9       36006           0
</event>
<event>
      5   9999  3.79277E-02  6.21696E+01 -1.00000E+00  1.33884E-01
      21    -1     0     0   502   512  0.000000000E+00  0.000000000E+00  3.705198289E+02  3.705198289E+02  0.000000000E+00  0.00000E+00  9.000E+00
      21    -1     0     0   501   502  0.000000000E+00  0.000000000E+00 -2.901092884E+02  2.901092884E+02  0.000000000E+00  0.00000E+00  9.000E+00
      25     1     1     2     0     0 -1.230413363E+02  5.139243256E+01 -1.684276201E+02  2.485421811E+02  1.250000000E+02  0.00000E+00  9.000E+00
      25     1     1     2     0     0  7.897745063E+01 -9.524945202E+01  2.244119372E+01  1.773090607E+02  1.250000000E+02  0.00000E+00  9.000E+00
      21     1     1     2   501   512  4.406388564E+01  4.385701946E+01  2.263969669E+02  2.347778755E+02  3.814697266E-06  0.00000E+00  9.000E+00
#rwgt            1           1   3.8912112044174899E-002           9       36186           0
</event>
<event>
      5   9999  3.79277E-02  1.01234E+02 -1.00000E+00  1.23589E-01
      21    -1     0     0   511   501  0.000000000E+00  0.000000000E+00  1.994497980E+02  1.994497980E+02  0.000000000E+00  0.00000E+00  9.000E+00
      21    -1     0     0   501   502  0.000000000E+00  0.000000000E+00 -5.611231472E+02  5.611231472E+02  0.000000000E+00  0.00000E+00  9.000E+00
      25     1     1     2     0     0 -2.529055273E+02  1.352855266E+02 -2.482105601E+02  3.993705818E+02  1.250000000E+02  0.00000E+00  9.000E+00
      25     1     1     2     0     0  1.517258848E+02 -1.385984113E+02 -6.617251124E+01  2.494675629E+02  1.250000000E+02  0.00000E+00  9.000E+00
      21     1     1     2   511   502  1.011796425E+02  3.312884706E+00 -4.729027781E+01  1.117348005E+02  6.743495762E-07  0.00000E+00  9.000E+00
#rwgt            1           1   7.8760769053984173E-002           9       36313           0
</event>
<event>
      5   9999 -3.79277E-02  1.46572E+02 -1.00000E+00  1.16793E-01
       2    -1     0     0   502     0  0.000000000E+00  0.000000000E+00  2.569656860E+03  2.569656860E+03  0.000000000E+00  0.00000E+00  9.000E+00
      21    -1     0     0   501   502  0.000000000E+00  0.000000000E+00 -3.050071305E+02  3.050071305E+02  0.000000000E+00  0.00000E+00  9.000E+00
      25     1     1     2     0     0  4.648350927E+01  3.053876662E+02  6.197769199E+01  3.389521760E+02  1.250000000E+02  0.00000E+00  9.000E+00
      25     1     1     2     0     0 -1.752278327E+02 -2.353281321E+02 -9.138975426E+00  3.190495949E+02  1.250000000E+02  0.00000E+00  9.000E+00
       2     1     1     2   501     0  1.287443234E+02 -7.005953406E+01  2.211811012E+03  2.216662219E+03  5.285799584E-05  0.00000E+00  9.000E+00
#rwgt            1           1  -8.7975961670065758E-002           9       36381           0
</event>
<event>
      5   9999  3.79277E-02  5.01206E+01 -1.00000E+00  1.39016E-01
      21    -1     0     0   502   501  0.000000000E+00  0.000000000E+00  4.116343648E+02  4.116343648E+02  0.000000000E+00  0.00000E+00  9.000E+00
      21    -1     0     0   501   511  0.000000000E+00  0.000000000E+00 -2.067924790E+02  2.067924790E+02  0.000000000E+00  0.00000E+00  9.000E+00
      25     1     1     2     0     0 -1.453108728E+02  1.010365803E+02 -6.441651916E+01  2.260489510E+02  1.250000000E+02  0.00000E+00  9.000E+00
      25     1     1     2     0     0  9.916687315E+01 -8.147115980E+01  2.877422974E+02  3.389575907E+02  1.250000000E+02  0.00000E+00  9.000E+00
      21     1     1     2   502   511  4.614399967E+01 -1.956542051E+01 -1.848389243E+01  5.342030199E+01  8.920806376E-07  0.00000E+00  9.000E+00
#rwgt            1           1   3.5234092877131667E-002           9       36525           0
</event>
<event>
      5   9999  3.79277E-02  1.29894E+01 -1.00000E+00  1.83482E-01
      21    -1     0     0   502   512  0.000000000E+00  0.000000000E+00  1.666982858E+02  1.666982858E+02  0.000000000E+00  0.00000E+00  9.000E+00
      21    -1     0     0   501   502  0.000000000E+00  0.000000000E+00 -6.289704501E+02  6.289704501E+02  0.000000000E+00  0.00000E+00  9.000E+00
      25     1     1     2     0     0  1.258686333E+02  2.430081542E+02 -3.547321414E+02  4.651405895E+02  1.250000000E+02  0.00000E+00  9.000E+00
      25     1     1     2     0     0 -1.361241356E+02 -2.350363774E+02 -9.889103819E+01  3.149227151E+02  1.250000000E+02  0.00000E+00  9.000E+00
      21     1     1     2   501   512  1.025550235E+01 -7.971776764E+00 -8.648984678E+00  1.560543140E+01  3.576278687E-07  0.00000E+00  9.000E+00
#rwgt            1           1   3.4707329576211317E-002           9       36611           0
</event>
<event>
      5   9999  3.79277E-02  1.81789E+01 -1.00000E+00  1.69864E-01
      21    -1     0     0   502   501  0.000000000E+00  0.000000000E+00  6.886645691E+01  6.886645691E+01  0.000000000E+00  0.00000E+00  9.000E+00
      21    -1     0     0   501   511  0.000000000E+00  0.000000000E+00 -4.962563998E+02  4.962563998E+02  0.000000000E+00  0.00000E+00  9.000E+00
      25     1     1     2     0     0  1.213212190E+02 -1.956968547E+01 -2.410746358E+02  2.980667556E+02  1.250000000E+02  0.00000E+00  9.000E+00
      25     1     1     2     0     0 -1.136075369E+02  3.603094658E+01 -1.629341180E+02  2.374393151E+02  1.250000000E+02  0.00000E+00  9.000E+00
      21     1     1     2   502   511 -7.713682040E+00 -1.646126111E+01 -2.338118903E+01  2.961678592E+01  0.000000000E+00  0.00000E+00  9.000E+00
#rwgt            1           1   1.7870414720684843E-002           9       36938           0
</event>
<event>
      5   9999  3.79277E-02  9.78875E+00 -1.00000E+00  1.96835E-01
      21    -1     0     0   502   501  0.000000000E+00  0.000000000E+00  7.755030394E+02  7.755030394E+02  0.000000000E+00  0.00000E+00  9.000E+00
      21    -1     0     0   512   502  0.000000000E+00  0.000000000E+00 -1.313847401E+02  1.313847401E+02  0.000000000E+00  0.00000E+00  9.000E+00
      25     1     1     2     0     0  8.784064353E+01  1.663559183E+02  5.379352066E+02  5.834291360E+02  1.250000000E+02  0.00000E+00  9.000E+00
      25     1     1     2     0     0 -9.420308747E+01 -1.589168989E+02  1.563181661E+02  2.723768924E+02  1.250000000E+02  0.00000E+00  9.000E+00
      21     1     1     2   512   501  6.362443947E+00 -7.439019435E+00 -5.013507344E+01  5.108175107E+01  1.784161275E-06  0.00000E+00  9.000E+00
#rwgt            1           1   2.2753767882484743E-002           9       37178           0
</event>
<event>
      5   9999  3.79277E-02  1.04125E+02 -1.00000E+00  1.23043E-01
      21    -1     0     0   502   501  0.000000000E+00  0.000000000E+00  1.096442912E+02  1.096442912E+02  0.000000000E+00  0.00000E+00  9.000E+00
      21    -1     0     0   511   502  0.000000000E+00  0.000000000E+00 -2.274834363E+03  2.274834363E+03  0.000000000E+00  0.00000E+00  9.000E+00
      25     1     1     2     0     0 -2.722621851E+02  2.208779758E+02 -3.258353607E+02  4.946791485E+02  1.250000000E+02  0.00000E+00  9.000E+00
      25     1     1     2     0     0  2.318105793E+02 -1.249318656E+02 -9.327966433E+02  9.772812766E+02  1.250000000E+02  0.00000E+00  9.000E+00
      21     1     1     2   511   501  4.045160580E+01 -9.594611016E+01 -9.065580672E+02  9.125182287E+02  1.078959322E-05  0.00000E+00  9.000E+00
#rwgt            1           1   2.3720655930721080E-002           9       37469           0
</event>
<event>
      5   9999  3.79277E-02  7.35631E+01 -1.00000E+00  1.30138E-01
       2    -1     0     0   502     0  0.000000000E+00  0.000000000E+00  1.298638129E+03  1.298638129E+03  0.000000000E+00  0.00000E+00  9.000E+00
      21    -1     0     0   501   502  0.000000000E+00  0.000000000E+00 -4.009135243E+01  4.009135243E+01  0.000000000E+00  0.00000E+00  9.000E+00
      25     1     1     2     0     0  8.973718611E+00  4.384191316E+01  6.053208069E+02  6.197103519E+02  1.250000000E+02  0.00000E+00  9.000E+00
      25     1     1     2     0     0 -6.744689817E+01 -8.847848360E+01  2.042032431E+02  2.640103987E+02  1.250000000E+02  0.00000E+00  9.000E+00
       2     1     1     2   501     0  5.847317956E+01  4.463657044E+01  4.490227261E+02  4.550087304E+02  7.629394531E-06  0.00000E+00  9.000E+00
#rwgt            1           1   3.3781340044724967E-002           9       37511           0
</event>
<event>
      5   9999  3.79277E-02  2.20143E+02 -1.00000E+00  1.10152E-01
      21    -1     0     0   502   511  0.000000000E+00  0.000000000E+00  7.518700653E+02  7.518700653E+02  0.000000000E+00  0.00000E+00  9.000E+00
      21    -1     0     0   501   502  0.000000000E+00  0.000000000E+00 -2.290211486E+02  2.290211486E+02  0.000000000E+00  0.00000E+00  9.000E+00
      25     1     1     2     0     0 -2.152350459E+02 -4.792449922E+01  4.180386172E+01  2.568957871E+02  1.250000000E+02  0.00000E+00  9.000E+00
      25     1     1     2     0     0  2.899750477E+01  1.653064023E+02  1.648393003E+01  2.099137487E+02  1.250000000E+02  0.00000E+00  9.000E+00
      21     1     1     2   501   511  1.862375411E+02 -1.173819031E+02  4.645611249E+02  5.140816780E+02  5.394796609E-06  0.00000E+00  9.000E+00
#rwgt            2          11   1.7105395894498122E-003           9       37698           0
</event>
<event>
      5   9999  3.79277E-02  1.61798E+02 -1.00000E+00  1.15105E-01
      21    -1     0     0   502   501  0.000000000E+00  0.000000000E+00  8.551745130E+02  8.551745130E+02  0.000000000E+00  0.00000E+00  9.000E+00
      21    -1     0     0   501   512  0.000000000E+00  0.000000000E+00 -1.369905682E+02  1.369905682E+02  0.000000000E+00  0.00000E+00  9.000E+00
      25     1     1     2     0     0 -2.644184477E+02 -1.164380105E+02  3.154667278E+02  4.456671203E+02  1.250000000E+02  0.00000E+00  9.000E+00
      25     1     1     2     0     0  1.618559036E+02 -8.699987208E+00  2.587364329E+02  3.299129658E+02  1.250000000E+02  0.00000E+00  9.000E+00
      21     1     1     2   502   512  1.025625441E+02  1.251379977E+02  1.439807841E+02  2.165849951E+02  1.907348633E-06  0.00000E+00  9.000E+00
#rwgt            1           1   3.9081543006952955E-002           9       37718           0
</event>
<event>
      5   9999  3.79277E-02  5.48916E+01 -1.00000E+00  1.36801E-01
      21    -1     0     0   502   511  0.000000000E+00  0.000000000E+00  4.967047317E+01  4.967047317E+01  0.000000000E+00  0.00000E+00  9.000E+00
      21    -1     0     0   501   502  0.000000000E+00  0.000000000E+00 -1.362140515E+03  1.362140515E+03  0.000000000E+00  0.00000E+00  9.000E+00
      25     1     1     2     0     0 -1.351744340E+02  3.073665353E+01 -7.629370296E+02  7.854392279E+02  1.250000000E+02  0.00000E+00  9.000E+00
      25     1     1     2     0     0  8.070201492E+01 -2.396576410E+01 -5.512237572E+02  5.714541133E+02  1.250000000E+02  0.00000E+00  9.000E+00
      21     1     1     2   501   511  5.447241910E+01 -6.770889426E+00  1.690744569E+00  5.491764747E+01  2.535475380E-06  0.00000E+00  9.000E+00
#rwgt            1           1   3.4275161099586011E-002           9       37790           0
</event>
<event>
      5   9999  3.79277E-02  1.20889E+01 -1.00000E+00  1.86692E-01
      21    -1     0     0   502   501  0.000000000E+00  0.000000000E+00  3.674818475E+02  3.674818475E+02  0.000000000E+00  0.00000E+00  9.000E+00
      21    -1     0     0   501   512  0.000000000E+00  0.000000000E+00 -1.816590668E+02  1.816590668E+02  0.000000000E+00  0.00000E+00  9.000E+00
      25     1     1     2     0     0 -1.842492394E+02 -5.984407751E+00  1.954490657E+02  2.963257206E+02  1.250000000E+02  0.00000E+00  9.000E+00
      25     1     1     2     0     0  1.723321307E+02  8.015221110E+00  2.653212377E+01  2.146894516E+02  1.250000000E+02  0.00000E+00  9.000E+00
      21     1     1     2   502   512  1.191710875E+01 -2.030813359E+00 -3.615840880E+01  3.812574210E+01  9.536743164E-07  0.00000E+00  9.000E+00
#rwgt            1           1   3.8326135268162906E-002           9       37902           0
</event>
<event>
      5   9999  3.79277E-02  2.49247E+01 -1.00000E+00  1.58849E-01
      21    -1     0     0   502   501  0.000000000E+00  0.000000000E+00  8.277268395E+01  8.277268395E+01  0.000000000E+00  0.00000E+00  9.000E+00
      21    -1     0     0   511   502  0.000000000E+00  0.000000000E+00 -7.164019941E+02  7.164019941E+02  0.000000000E+00  0.00000E+00  9.000E+00
      25     1     1     2     0     0 -1.715084643E+02  8.834299211E-01 -1.973948457E+02  2.898372973E+02  1.250000000E+02  0.00000E+00  9.000E+00
      25     1     1     2     0     0  1.962861034E+02 -3.586838351E+00 -3.560442033E+02  4.253628739E+02  1.250000000E+02  0.00000E+00  9.000E+00
      21     1     1     2   511   501 -2.477763906E+01  2.703408430E+00 -8.019026111E+01  8.397450680E+01  9.536743164E-07  0.00000E+00  9.000E+00
#rwgt            1           1   3.6351374142495257E-002           9       38130           0
</event>
<event>
      5   9999  3.79277E-02  5.39456E+01 -1.00000E+00  1.37219E-01
      21    -1     0     0   502   501  0.000000000E+00  0.000000000E+00  1.293557574E+03  1.293557574E+03  0.000000000E+00  0.00000E+00  9.000E+00
      21    -1     0     0   501   512  0.000000000E+00  0.000000000E+00 -5.512337245E+01  5.512337245E+01  0.000000000E+00  0.00000E+00  9.000E+00
      25     1     1     2     0     0  1.036815339E+02  7.377024969E+01  1.554042333E+02  2.365742715E+02  1.250000000E+02  0.00000E+00  9.000E+00
      25     1     1     2     0     0 -6.787852322E+01 -1.141221563E+02  9.683518922E+02  9.853739125E+02  1.250000000E+02  0.00000E+00  9.000E+00
      21     1     1     2   502   512 -3.580301068E+01  4.035190660E+01  1.146780766E+02  1.267327629E+02  0.000000000E+00  0.00000E+00  9.000E+00
#rwgt            1           1   2.9245726322440824E-002           9       38265           0
</event>
<event>
      5   9999  3.79277E-02  4.34125E+01 -1.00000E+00  1.42669E-01
      21    -1     0     0   502   511  0.000000000E+00  0.000000000E+00  1.409357319E+03  1.409357319E+03  0.000000000E+00  0.00000E+00  9.000E+00
      21    -1     0     0   501   502  0.000000000E+00  0.000000000E+00 -2.757698716E+01  2.757698716E+01  0.000000000E+00  0.00000E+00  9.000E+00
      25     1     1     2     0     0 -7.262115105E+01 -3.284806554E+01  7.436232597E+02  7.582568030E+02  1.250000000E+02  0.00000E+00  9.000E+00
      25     1     1     2     0     0  7.182176401E+01  7.625324173E+01  3.367906787E+02  3.742003259E+02  1.250000000E+02  0.00000E+00  9.000E+00
      21     1     1     2   501   511  7.993870453E-01 -4.340517620E+01  3.013663932E+02  3.044771769E+02  3.814697266E-06  0.00000E+00  9.000E+00
#rwgt            1           1   5.0159629558005521E-002           9       38409           0
</event>
<event>
      5   9999  3.79277E-02  2.80688E+01 -1.00000E+00  1.55074E-01
      21    -1     0     0   502   501  0.000000000E+00  0.000000000E+00  4.289049157E+02  4.289049157E+02  0.000000000E+00  0.00000E+00  9.000E+00
      21    -1     0     0   501   512  0.000000000E+00  0.000000000E+00 -1.736727686E+02  1.736727686E+02  0.000000000E+00  0.00000E+00  9.000E+00
      25     1     1     2     0     0 -2.848538909E+01 -1.927976034E+01  1.203909714E+01  1.302039416E+02  1.250000000E+02  0.00000E+00  9.000E+00
      25     1     1     2     0     0  4.252443879E+01 -5.025906119E+00  3.435933846E+02  3.681236226E+02  1.250000000E+02  0.00000E+00  9.000E+00
      21     1     1     2   502   512 -1.403904970E+01  2.430566646E+01 -1.004003347E+02  1.042501201E+02  1.348699152E-06  0.00000E+00  9.000E+00
#rwgt            1           1   5.0672769220269864E-002           9       38661           0
</event>
<event>
      5   9999  3.79277E-02  4.11983E+01 -1.00000E+00  1.44050E-01
      21    -1     0     0   502   511  0.000000000E+00  0.000000000E+00  7.393699071E+02  7.393699071E+02  0.000000000E+00  0.00000E+00  9.000E+00
      21    -1     0     0   501   502  0.000000000E+00  0.000000000E+00 -9.611239277E+01  9.611239277E+01  0.000000000E+00  0.00000E+00  9.000E+00
      25     1     1     2     0     0  1.278746536E+02  1.927453758E+02  3.222730157E+02  4.159177846E+02  1.250000000E+02  0.00000E+00  9.000E+00
      25     1     1     2     0     0 -1.015645292E+02 -1.610423918E+02  2.563288499E+02  3.428986510E+02  1.250000000E+02  0.00000E+00  9.000E+00
      21     1     1     2   501   511 -2.631012438E+01 -3.170298391E+01  6.465564879E+01  7.666586433E+01  9.536743164E-07  0.00000E+00  9.000E+00
#rwgt            1           1   2.0547291748545873E-002           9       38790           0
</event>
<event>
      5   9999  3.79277E-02  8.20191E+01 -1.00000E+00  1.27828E-01
      21    -1     0     0   502   501  0.000000000E+00  0.000000000E+00  1.199458715E+02  1.199458715E+02  0.000000000E+00  0.00000E+00  9.000E+00
      21    -1     0     0   501   512  0.000000000E+00  0.000000000E+00 -7.609618805E+02  7.609618805E+02  0.000000000E+00  0.00000E+00  9.000E+00
      25     1     1     2     0     0  4.471221428E+01  1.246547687E+02 -1.867372148E+01  1.830620150E+02  1.250000000E+02  0.00000E+00  9.000E+00
      25     1     1     2     0     0 -1.218255216E+02 -1.525952141E+02 -4.912240877E+02  5.431876853E+02  1.250000000E+02  0.00000E+00  9.000E+00
      21     1     1     2   502   512  7.711330733E+01  2.794044538E+01 -1.311181997E+02  1.546580517E+02  1.907348633E-06  0.00000E+00  9.000E+00
#rwgt            1           1   2.1872482710795758E-002           9       38922           0
</event>
<event>
      5   9999 -3.79277E-02  5.10443E+01 -1.00000E+00  1.38565E-01
      21    -1     0     0   502   511  0.000000000E+00  0.000000000E+00  1.230631173E+02  1.230631173E+02  0.000000000E+00  0.00000E+00  9.000E+00
      21    -1     0     0   501   502  0.000000000E+00  0.000000000E+00 -7.409274589E+02  7.409274589E+02  0.000000000E+00  0.00000E+00  9.000E+00
      25     1     1     2     0     0 -1.660456859E+02 -1.633182952E+02 -4.332752489E+02  5.075396306E+02  1.250000000E+02  0.00000E+00  9.000E+00
      25     1     1     2     0     0  1.154835846E+02  1.563184665E+02 -1.972986604E+02  3.038481243E+02  1.250000000E+02  0.00000E+00  9.000E+00
      21     1     1     2   501   511  5.056210133E+01  6.999828685E+00  1.270956762E+01  5.260282123E+01  7.152557373E-07  0.00000E+00  9.000E+00
#rwgt            1           1  -4.2204962820236384E-002           9       39225           0
</event>
<event>
      5   9999  3.79277E-02  4.44521E+01 -1.00000E+00  1.42054E-01
      21    -1     0     0   502   512  0.000000000E+00  0.000000000E+00  1.538116042E+03  1.538116042E+03  0.000000000E+00  0.00000E+00  9.000E+00
      21    -1     0     0   501   502  0.000000000E+00  0.000000000E+00 -4.491938776E+01  4.491938776E+01  0.000000000E+00  0.00000E+00  9.000E+00
      25     1     1     2     0     0 -1.040101165E+02  1.146916726E+02  2.954471703E+02  3.562110534E+02  1.250000000E+02  0.00000E+00  9.000E+00
      25     1     1     2     0     0  6.115433546E+01 -1.264973196E+02  6.334380284E+02  6.607648299E+02  1.250000000E+02  0.00000E+00  9.000E+00
      21     1     1     2   501   512  4.285578109E+01  1.180564699E+01  5.643114556E+02  5.660595465E+02  0.000000000E+00  0.00000E+00  9.000E+00
#rwgt            1           1   3.7149301878662590E-002           9       39373           0
</event>
<event>
      5   9999  3.79277E-02  1.50671E+02 -1.00000E+00  1.16317E-01
      21    -1     0     0   502   501  0.000000000E+00  0.000000000E+00  2.261399928E+03  2.261399928E+03  0.000000000E+00  0.00000E+00  9.000E+00
      -3    -1     0     0     0   502  0.000000000E+00  0.000000000E+00 -5.955181592E+01  5.955181592E+01  0.000000000E+00  0.00000E+00  9.000E+00
      25     1     1     2     0     0  3.187774011E+01  1.680415371E+02  1.816149898E+03  1.828463727E+03  1.250000000E+02  0.00000E+00  9.000E+00
      25     1     1     2     0     0  6.490799925E+01 -5.256763207E+01  1.473327610E+02  2.104954792E+02  1.250000000E+02  0.00000E+00  9.000E+00
      -3     1     1     2     0   501 -9.678573936E+01 -1.154739051E+02  2.383654522E+02  2.819925370E+02  3.814697266E-06  0.00000E+00  9.000E+00
#rwgt            1           1   4.3282652128623138E-002           9       39502           0
</event>
<event>
      5   9999  3.79277E-02  1.81417E+02 -1.00000E+00  1.13212E-01
      21    -1     0     0   511   501  0.000000000E+00  0.000000000E+00  3.852585403E+02  3.852585403E+02  0.000000000E+00  0.00000E+00  9.000E+00
      21    -1     0     0   501   502  0.000000000E+00  0.000000000E+00 -7.731121957E+02  7.731121957E+02  0.000000000E+00  0.00000E+00  9.000E+00
      25     1     1     2     0     0  2.045847839E+02 -2.110762834E+02 -3.267974302E+02  4.569788744E+02  1.250000000E+02  0.00000E+00  9.000E+00
      25     1     1     2     0     0 -2.726478749E+01  1.727394556E+02 -3.198331706E+02  3.853576848E+02  1.250000000E+02  0.00000E+00  9.000E+00
      21     1     1     2   511   502 -1.773199964E+02  3.833682777E+01  2.587769455E+02  3.160341769E+02  3.814697266E-06  0.00000E+00  9.000E+00
#rwgt            1           1   3.9173444609732495E-002           9       39577           0
</event>
<event>
      5   9999  3.79277E-02  3.41443E+01 -1.00000E+00  1.49236E-01
      21    -1     0     0   502   501  0.000000000E+00  0.000000000E+00  4.926659856E+02  4.926659856E+02  0.000000000E+00  0.00000E+00  9.000E+00
       3    -1     0     0   501     0  0.000000000E+00  0.000000000E+00 -1.885427357E+02  1.885427357E+02  0.000000000E+00  0.00000E+00  9.000E+00
      25     1     1     2     0     0 -1.321634933E+02  7.316827571E+00  6.822593874E+01  1.944235162E+02  1.250000000E+02  0.00000E+00  9.000E+00
      25     1     1     2     0     0  1.416241044E+02 -4.012430210E+01  3.323976632E+02  3.844223628E+02  1.250000000E+02  0.00000E+00  9.000E+00
       3     1     1     2   502     0 -9.460611123E+00  3.280747452E+01 -9.650035198E+01  1.023628423E+02  1.907348633E-06  0.00000E+00  9.000E+00
#rwgt            1           1   3.5477841874162683E-002           9       39645           0
</event>
<event>
      5   9999  3.79277E-02  1.73118E+02 -1.00000E+00  1.13979E-01
      21    -1     0     0   502   511  0.000000000E+00  0.000000000E+00  4.109674895E+02  4.109674895E+02  0.000000000E+00  0.00000E+00  9.000E+00
      21    -1     0     0   501   502  0.000000000E+00  0.000000000E+00 -7.562201360E+02  7.562201360E+02  0.000000000E+00  0.00000E+00  9.000E+00
      25     1     1     2     0     0 -3.255061209E+02  2.753438958E+02 -3.356285499E+02  5.568123734E+02  1.250000000E+02  0.00000E+00  9.000E+00
      25     1     1     2     0     0  1.759206644E+02 -3.624880933E+02 -6.876584551E+01  4.274335498E+02  1.250000000E+02  0.00000E+00  9.000E+00
      21     1     1     2   501   511  1.495854565E+02  8.714419750E+01  5.914174897E+01  1.829417023E+02  6.743495762E-07  0.00000E+00  9.000E+00
#rwgt            1           1   2.4746883679241535E-002           9       39831           0
</event>
<event>
      5   9999  3.79277E-02  7.55193E+01 -1.00000E+00  1.29573E-01
      21    -1     0     0   502   501  0.000000000E+00  0.000000000E+00  7.354068094E+01  7.354068094E+01  0.000000000E+00  0.00000E+00  9.000E+00
      21    -1     0     0   501   512  0.000000000E+00  0.000000000E+00 -1.629235575E+03  1.629235575E+03  0.000000000E+00  0.00000E+00  9.000E+00
      25     1     1     2     0     0  6.974886874E+01  2.280025933E+02 -4.700373697E+02  5.416735328E+02  1.250000000E+02  0.00000E+00  9.000E+00
      25     1     1     2     0     0 -1.216720752E+02 -2.828401026E+02 -8.159900574E+02  8.810603789E+02  1.250000000E+02  0.00000E+00  9.000E+00
      21     1     1     2   502   512  5.192320650E+01  5.483750937E+01 -2.696674667E+02  2.800423440E+02  0.000000000E+00  0.00000E+00  9.000E+00
#rwgt            1           1   3.4352714010520508E-002           9       39875           0
</event>
<event>
      5   9999  3.79277E-02  6.25360E+01 -1.00000E+00  1.33750E-01
      21    -1     0     0   511   501  0.000000000E+00  0.000000000E+00  7.932422779E+02  7.932422779E+02  0.000000000E+00  0.00000E+00  9.000E+00
      21    -1     0     0   501   502  0.000000000E+00  0.000000000E+00 -3.086555181E+02  3.086555181E+02  0.000000000E+00  0.00000E+00  9.000E+00
      25     1     1     2     0     0 -6.427671485E+01  4.102926209E+02  3.663310696E+02  5.677102988E+02  1.250000000E+02  0.00000E+00  9.000E+00
      25     1     1     2     0     0  4.273081344E+00 -4.279083029E+02  6.205892038E+01  4.501111912E+02  1.250000000E+02  0.00000E+00  9.000E+00
      21     1     1     2   511   502  6.000363350E+01  1.761568192E+01  5.619676983E+01  8.407630595E+01  0.000000000E+00  0.00000E+00  9.000E+00
#rwgt            1           1  0.15456265150633713                9       40071           0
</event>
<event>
      5   9999  3.79277E-02  6.24307E+01 -1.00000E+00  1.33788E-01
      21    -1     0     0   502   501  0.000000000E+00  0.000000000E+00  8.224671391E+02  8.224671391E+02  0.000000000E+00  0.00000E+00  9.000E+00
      21    -1     0     0   512   502  0.000000000E+00  0.000000000E+00 -1.684998999E+03  1.684998999E+03  0.000000000E+00  0.00000E+00  9.000E+00
      25     1     1     2     0     0  8.907406872E+01  2.425160989E+01  1.799562987E+01  1.564326468E+02  1.250000000E+02  0.00000E+00  9.000E+00
      25     1     1     2     0     0 -2.812161650E+01 -1.074640158E+01  7.290222527E+02  7.402734329E+02  1.250000000E+02  0.00000E+00  9.000E+00
      21     1     1     2   512   501 -6.095245221E+01 -1.350520831E+01 -1.609549743E+03  1.610760059E+03  2.157918644E-05  0.00000E+00  9.000E+00
#rwgt            1           1   2.9592892339732668E-002           9       40189           0
</event>
<event>
      5   9999  3.79277E-02  1.05906E+02 -1.00000E+00  1.22717E-01
      21    -1     0     0   502   511  0.000000000E+00  0.000000000E+00  3.250497462E+02  3.250497462E+02  0.000000000E+00  0.00000E+00  9.000E+00
      21    -1     0     0   501   502  0.000000000E+00  0.000000000E+00 -6.645100882E+02  6.645100882E+02  0.000000000E+00  0.00000E+00  9.000E+00
      25     1     1     2     0     0 -9.877538238E+01 -1.274768389E+01 -6.089179345E+01  1.710318395E+02  1.250000000E+02  0.00000E+00  9.000E+00
      25     1     1     2     0     0  2.046272014E+02  9.370069726E+00 -5.102094807E+02  5.638251537E+02  1.250000000E+02  0.00000E+00  9.000E+00
      21     1     1     2   501   511 -1.058518191E+02  3.377614164E+00  2.316409322E+02  2.547028412E+02  2.697398305E-06  0.00000E+00  9.000E+00
#rwgt            1           1   4.7835182535748401E-002           9       40285           0
</event>
<event>
      5   9999  3.79277E-02  3.84426E+01 -1.00000E+00  1.45918E-01
      21    -1     0     0   502   501  0.000000000E+00  0.000000000E+00  1.321258160E+02  1.321258160E+02  0.000000000E+00  0.00000E+00  9.000E+00
      21    -1     0     0   501   512  0.000000000E+00  0.000000000E+00 -5.976231573E+02  5.976231573E+02  0.000000000E+00  0.00000E+00  9.000E+00
      25     1     1     2     0     0 -1.793187775E+02 -6.205013404E+01 -1.733571223E+02  2.858026154E+02  1.250000000E+02  0.00000E+00  9.000E+00
      25     1     1     2     0     0  1.838552258E+02  1.002241060E+02 -1.281106617E+02  2.754722438E+02  1.250000000E+02  0.00000E+00  9.000E+00
      21     1     1     2   502   512 -4.536448285E+00 -3.817397194E+01 -1.640295572E+02  1.684741141E+02  1.907348633E-06  0.00000E+00  9.000E+00
#rwgt            1           1   7.4543230968728100E-002           9       40354           0
</event>
<event>
      5   9999  3.79277E-02  6.98199E+01 -1.00000E+00  1.31277E-01
      21    -1     0     0   502   511  0.000000000E+00  0.000000000E+00  1.568365415E+03  1.568365415E+03  0.000000000E+00  0.00000E+00  9.000E+00
      21    -1     0     0   501   502  0.000000000E+00  0.000000000E+00 -9.674448099E+01  9.674448099E+01  0.000000000E+00  0.00000E+00  9.000E+00
      25     1     1     2     0     0  1.972384050E+02  8.171522643E+01  1.895102668E+02  3.116400293E+02  1.250000000E+02  0.00000E+00  9.000E+00
      25     1     1     2     0     0 -1.277403708E+02 -8.841132368E+01  2.536474213E+02  3.226393944E+02  1.250000000E+02  0.00000E+00  9.000E+00
      21     1     1     2   501   511 -6.949803425E+01  6.696097249E+00  1.028463246E+03  1.030830472E+03  1.525878906E-05  0.00000E+00  9.000E+00
#rwgt            1           1   2.8958813626613369E-002           9       40595           0
</event>
<event>
      5   9999  3.79277E-02  3.94318E+01 -1.00000E+00  1.45227E-01
      21    -1     0     0   502   501  0.000000000E+00  0.000000000E+00  2.144928751E+02  2.144928751E+02  0.000000000E+00  0.00000E+00  9.000E+00
      21    -1     0     0   512   502  0.000000000E+00  0.000000000E+00 -5.937301944E+02  5.937301944E+02  0.000000000E+00  0.00000E+00  9.000E+00
      25     1     1     2     0     0  1.866109315E+01  6.576926359E+01 -7.883499877E+01  1.628305544E+02  1.250000000E+02  0.00000E+00  9.000E+00
      25     1     1     2     0     0 -2.678499527E+01 -1.043550974E+02  1.319230544E+02  2.112726074E+02  1.250000000E+02  0.00000E+00  9.000E+00
      21     1     1     2   512   501  8.123902123E+00  3.858583384E+01 -4.323253750E+02  4.341199077E+02  0.000000000E+00  0.00000E+00  9.000E+00
#rwgt            1           1   4.0234475267600232E-002           9       40730           0
</event>
<event>
      5   9999  3.79277E-02  1.61116E+02 -1.00000E+00  1.15176E-01
      21    -1     0     0   502   511  0.000000000E+00  0.000000000E+00  3.436941239E+02  3.436941239E+02  0.000000000E+00  0.00000E+00  9.000E+00
      21    -1     0     0   501   502  0.000000000E+00  0.000000000E+00 -4.997322029E+02  4.997322029E+02  0.000000000E+00  0.00000E+00  9.000E+00
      25     1     1     2     0     0 -6.697880750E+01 -4.117198857E+01 -1.782831551E+02  2.314976819E+02  1.250000000E+02  0.00000E+00  9.000E+00
      25     1     1     2     0     0  9.802623022E+01 -1.169244816E+02 -2.359827972E+02  3.075603303E+02  1.250000000E+02  0.00000E+00  9.000E+00
      21     1     1     2   501   511 -3.104742272E+01  1.580964702E+02  2.582278734E+02  3.043683146E+02  5.394796609E-06  0.00000E+00  9.000E+00
#rwgt            1           1   1.5453323023238947E-002           9       40879           0
</event>
<event>
      5   9999 -3.79277E-02  1.36071E+02 -1.00000E+00  1.18096E-01
      21    -1     0     0   502   501  0.000000000E+00  0.000000000E+00  2.695877255E+02  2.695877255E+02  0.000000000E+00  0.00000E+00  9.000E+00
      21    -1     0     0   501   512  0.000000000E+00  0.000000000E+00 -3.629207672E+02  3.629207672E+02  0.000000000E+00  0.00000E+00  9.000E+00
      25     1     1     2     0     0  1.269988417E+02  3.041994242E+00  6.376820038E+01  1.892864044E+02  1.250000000E+02  0.00000E+00  9.000E+00
      25     1     1     2     0     0 -2.319606588E+02 -8.963490747E+01 -1.023152144E+02  2.965359455E+02  1.250000000E+02  0.00000E+00  9.000E+00
      21     1     1     2   502   512  1.049618171E+02  8.659291323E+01 -5.478602765E+01  1.466861428E+02  0.000000000E+00  0.00000E+00  9.000E+00
#rwgt            1           1 -0.12807426325178012                9       40919           0
</event>
<event>
      5   9999  3.79277E-02  1.22072E+01 -1.00000E+00  1.86250E-01
      21    -1     0     0   511   501  0.000000000E+00  0.000000000E+00  9.328406920E+01  9.328406920E+01  0.000000000E+00  0.00000E+00  9.000E+00
      21    -1     0     0   501   502  0.000000000E+00  0.000000000E+00 -4.369555746E+02  4.369555746E+02  0.000000000E+00  0.00000E+00  9.000E+00
      25     1     1     2     0     0 -1.380982982E+02 -5.331774170E+01 -1.399021780E+02  2.389802104E+02  1.250000000E+02  0.00000E+00  9.000E+00
      25     1     1     2     0     0  1.440694575E+02  4.267066761E+01 -1.959431993E+02  2.767589778E+02  1.250000000E+02  0.00000E+00  9.000E+00
      21     1     1     2   511   502 -5.971159385E+00  1.064707409E+01 -7.826128106E+00  1.450045559E+01  3.769728732E-07  0.00000E+00  9.000E+00
#rwgt            1           1   2.8724472096698248E-002           9       41005           0
</event>
<event>
      5   9999  3.79277E-02  4.26806E+01 -1.00000E+00  1.43114E-01
      21    -1     0     0   502   501  0.000000000E+00  0.000000000E+00  3.980967589E+02  3.980967589E+02  0.000000000E+00  0.00000E+00  9.000E+00
      -4    -1     0     0     0   502  0.000000000E+00  0.000000000E+00 -4.217936823E+02  4.217936823E+02  0.000000000E+00  0.00000E+00  9.000E+00
      25     1     1     2     0     0 -2.995695309E+02 -1.123876254E+02  9.934352920E+01  3.575849815E+02  1.250000000E+02  0.00000E+00  9.000E+00
      25     1     1     2     0     0  2.569055912E+02  1.111948367E+02  2.561360740E+01  3.076456263E+02  1.250000000E+02  0.00000E+00  9.000E+00
      -4     1     1     2     0   501  4.266393973E+01  1.192788685E+00 -1.486540600E+02  1.546598334E+02  1.907348633E-06  0.00000E+00  9.000E+00
#rwgt            1           1  0.17562303580558777                9       41384           0
</event>
<event>
      5   9999  3.79277E-02  4.54024E+01 -1.00000E+00  1.41509E-01
      21    -1     0     0   511   501  0.000000000E+00  0.000000000E+00  1.576041587E+02  1.576041587E+02  0.000000000E+00  0.00000E+00  9.000E+00
      21    -1     0     0   501   502  0.000000000E+00  0.000000000E+00 -8.476039890E+02  8.476039890E+02  0.000000000E+00  0.00000E+00  9.000E+00
      25     1     1     2     0     0 -1.893478290E+02  1.451975395E+02 -6.765225732E+02  7.281776691E+02  1.250000000E+02  0.00000E+00  9.000E+00
      25     1     1     2     0     0  1.518489328E+02 -1.196005080E+02 -1.994340656E+00  2.301985172E+02  1.250000000E+02  0.00000E+00  9.000E+00
      21     1     1     2   511   502  3.749889617E+01 -2.559703145E+01 -1.148291644E+01  4.683196134E+01  6.307962682E-07  0.00000E+00  9.000E+00
#rwgt            1           1   5.7170179753367349E-002           9       41651           0
</event>
<event>
      5   9999  3.79277E-02  5.24640E+01 -1.00000E+00  1.37894E-01
      21    -1     0     0   502   501  0.000000000E+00  0.000000000E+00  4.476758632E+02  4.476758632E+02  0.000000000E+00  0.00000E+00  9.000E+00
      21    -1     0     0   501   512  0.000000000E+00  0.000000000E+00 -2.616257076E+02  2.616257076E+02  0.000000000E+00  0.00000E+00  9.000E+00
      25     1     1     2     0     0 -7.450047529E+01  1.236660405E+02  2.666698924E+02  3.279961005E+02  1.250000000E+02  0.00000E+00  9.000E+00
      25     1     1     2     0     0  3.036071588E+01 -1.520236643E+02  7.827444408E+01  2.139739614E+02  1.250000000E+02  0.00000E+00  9.000E+00
      21     1     1     2   502   512  4.413975940E+01  2.835762377E+01 -1.588941809E+02  1.673315090E+02  1.907348633E-06  0.00000E+00  9.000E+00
#rwgt            1           1   4.0793013531827703E-002           9       41791           0
</event>
<event>
      5   9999  3.79277E-02  5.23440E+02 -1.00000E+00  9.82900E-02
      21    -1     0     0   511   501  0.000000000E+00  0.000000000E+00  1.731716375E+02  1.731716375E+02  0.000000000E+00  0.00000E+00  9.000E+00
      21    -1     0     0   501   502  0.000000000E+00  0.000000000E+00 -3.272508589E+03  3.272508589E+03  0.000000000E+00  0.00000E+00  9.000E+00
      25     1     1     2     0     0 -2.987815368E+01 -2.935377707E+01 -3.898170920E+01  1.374733500E+02  1.250000000E+02  0.00000E+00  9.000E+00
      25     1     1     2     0     0 -4.598062433E+02 -1.555762454E+02 -2.465081983E+03  2.515527764E+03  1.250000000E+02  0.00000E+00  9.000E+00
      21     1     1     2   511   502  4.896843970E+02  1.849300225E+02 -5.952732595E+02  7.926791125E+02  2.157918644E-05  0.00000E+00  9.000E+00
#rwgt            1           1   2.8428922242481620E-002           9       41959           0
</event>
<event>
      5   9999  3.79277E-02  2.27557E+01 -1.00000E+00  1.61873E-01
      21    -1     0     0   502   501  0.000000000E+00  0.000000000E+00  2.554897982E+02  2.554897982E+02  0.000000000E+00  0.00000E+00  9.000E+00
      21    -1     0     0   501   512  0.000000000E+00  0.000000000E+00 -3.669643977E+02  3.669643977E+02  0.000000000E+00  0.00000E+00  9.000E+00
      25     1     1     2     0     0  1.239237884E+02 -1.737821801E+02  4.902643006E+01  2.521625316E+02  1.250000000E+02  0.00000E+00  9.000E+00
      25     1     1     2     0     0 -1.279944356E+02  1.961708428E+02 -6.667371479E+01  2.737443321E+02  1.250000000E+02  0.00000E+00  9.000E+00
      21     1     1     2   502   512  4.070647176E+00 -2.238866264E+01 -9.382731477E+01  9.654733233E+01  0.000000000E+00  0.00000E+00  9.000E+00
#rwgt            1           1   4.1031734829339646E-002           9       42002           0
</event>
<event>
      5   9999  3.79277E-02  8.68452E+01 -1.00000E+00  1.26647E-01
       2    -1     0     0   502     0  0.000000000E+00  0.000000000E+00  1.039439766E+03  1.039439766E+03  0.000000000E+00  0.00000E+00  9.000E+00
      21    -1     0     0   501   502  0.000000000E+00  0.000000000E+00 -4.480068184E+02  4.480068184E+02  0.000000000E+00  0.00000E+00  9.000E+00
      25     1     1     2     0     0 -1.223763114E+02  1.068720791E+02 -2.906675462E+02  3.556827594E+02  1.250000000E+02  0.00000E+00  9.000E+00
      25     1     1     2     0     0  1.194708156E+02 -2.007553983E+01 -6.116720043E+01  1.845067194E+02  1.250000000E+02  0.00000E+00  9.000E+00
       2     1     1     2   501     0  2.905495821E+00 -8.679653930E+01  9.432676940E+02  9.472571053E+02  0.000000000E+00  0.00000E+00  9.000E+00
#rwgt            1           1   3.8453470530661484E-002           9       42168           0
</event>
<event>
      5   9999  3.79277E-02  3.12384E+01 -1.00000E+00  1.51830E-01
      21    -1     0     0   502   501  0.000000000E+00  0.000000000E+00  2.074548080E+02  2.074548080E+02  0.000000000E+00  0.00000E+00  9.000E+00
       2    -1     0     0   501     0  0.000000000E+00  0.000000000E+00 -1.189590774E+03  1.189590774E+03  0.000000000E+00  0.00000E+00  9.000E+00
      25     1     1     2     0     0 -3.973661205E+01  1.970016532E+02 -1.213735566E+02  2.659796795E+02  1.250000000E+02  0.00000E+00  9.000E+00
      25     1     1     2     0     0  4.728199487E+01 -2.273150891E+02  5.982284817E+00  2.637584587E+02  1.250000000E+02  0.00000E+00  9.000E+00
       2     1     1     2   502     0 -7.545382824E+00  3.031343597E+01 -8.667446943E+02  8.673074439E+02  1.078959322E-05  0.00000E+00  9.000E+00
#rwgt            1           1   3.8778888630274101E-002           9       42207           0
</event>
<event>
      5   9999  3.79277E-02  3.04595E+01 -1.00000E+00  1.52583E-01
      21    -1     0     0   511   501  0.000000000E+00  0.000000000E+00  1.027300427E+03  1.027300427E+03  0.000000000E+00  0.00000E+00  9.000E+00
      21    -1     0     0   501   502  0.000000000E+00  0.000000000E+00 -7.099720857E+01  7.099720857E+01  0.000000000E+00  0.00000E+00  9.000E+00
      25     1     1     2     0     0 -1.851813529E+02  9.338016791E+01  3.983037594E+02  4.661361110E+02  1.250000000E+02  0.00000E+00  9.000E+00
      25     1     1     2     0     0  1.739587759E+02 -6.506347806E+01  3.104877793E+02  3.827826707E+02  1.250000000E+02  0.00000E+00  9.000E+00
      21     1     1     2   511   502  1.122257700E+01 -2.831668984E+01  2.475116797E+02  2.493788538E+02  2.697398305E-06  0.00000E+00  9.000E+00
#rwgt            1           1   3.4580056450511466E-002           9       42313           0
</event>
<event>
      5   9999  3.79277E-02  1.35278E+02 -1.00000E+00  1.18200E-01
      21    -1     0     0   502   512  0.000000000E+00  0.000000000E+00  2.033301332E+02  2.033301332E+02  0.000000000E+00  0.00000E+00  9.000E+00
      21    -1     0     0   501   502  0.000000000E+00  0.000000000E+00 -3.540572347E+02  3.540572347E+02  0.000000000E+00  0.00000E+00  9.000E+00
      25     1     1     2     0     0 -5.090548350E+01 -1.463363425E+02 -1.449228694E+02  2.462383631E+02  1.250000000E+02  0.00000E+00  9.000E+00
      25     1     1     2     0     0 -7.161071774E+01  8.897927545E+01 -3.464434209E+01  1.728312379E+02  1.250000000E+02  0.00000E+00  9.000E+00
      21     1     1     2   501   512  1.225162012E+02  5.735706707E+01  2.884010995E+01  1.383177669E+02  1.877309769E-06  0.00000E+00  9.000E+00
#rwgt            1           1   4.0276401369839718E-002           9       42566           0
</event>
<event>
      5   9999  3.79277E-02  5.58879E+01 -1.00000E+00  1.36372E-01
      21    -1     0     0   502   501  0.000000000E+00  0.000000000E+00  5.455338034E+02  5.455338034E+02  0.000000000E+00  0.00000E+00  9.000E+00
      21    -1     0     0   501   511  0.000000000E+00  0.000000000E+00 -1.523242869E+02  1.523242869E+02  0.000000000E+00  0.00000E+00  9.000E+00
      25     1     1     2     0     0  2.206428393E+02  1.077253397E+02  2.308819229E+02  3.594711027E+02  1.250000000E+02  0.00000E+00  9.000E+00
      25     1     1     2     0     0 -1.785170795E+02 -7.099834344E+01  1.650296076E+02  2.824338574E+02  1.250000000E+02  0.00000E+00  9.000E+00
      21     1     1     2   502   511 -4.212575978E+01 -3.672699622E+01 -2.702014077E+00  5.595313011E+01  9.924665573E-07  0.00000E+00  9.000E+00
#rwgt            1           1   3.6008273517067917E-002           9       42684           0
</event>
<event>
      5   9999  3.79277E-02  9.38780E+01 -1.00000E+00  1.25075E-01
       2    -1     0     0   502     0  0.000000000E+00  0.000000000E+00  7.768990761E+02  7.768990761E+02  0.000000000E+00  0.00000E+00  9.000E+00
      21    -1     0     0   501   502  0.000000000E+00  0.000000000E+00 -1.043995185E+02  1.043995185E+02  0.000000000E+00  0.00000E+00  9.000E+00
      25     1     1     2     0     0 -6.301311285E+01  5.804612383E+01 -1.827456168E+01  1.526399833E+02  1.250000000E+02  0.00000E+00  9.000E+00
      25     1     1     2     0     0 -5.252470249E+00  6.396804401E+00  5.075866541E+02  5.228170990E+02  1.250000000E+02  0.00000E+00  9.000E+00
       2     1     1     2   501     0  6.826558310E+01 -6.444292823E+01  1.831874651E+02  2.058415124E+02  3.814697266E-06  0.00000E+00  9.000E+00
#rwgt            1           1   3.4919088550414382E-002           9       42798           0
</event>
<event>
      5   9999  3.79277E-02  1.44821E+01 -1.00000E+00  1.78833E-01
      21    -1     0     0   502   501  0.000000000E+00  0.000000000E+00  2.552432674E+02  2.552432674E+02  0.000000000E+00  0.00000E+00  9.000E+00
       2    -1     0     0   501     0  0.000000000E+00  0.000000000E+00 -1.601211729E+03  1.601211729E+03  0.000000000E+00  0.00000E+00  9.000E+00
      25     1     1     2     0     0  2.891312574E+02  8.269269418E+01 -1.492610054E+01  3.260103589E+02  1.250000000E+02  0.00000E+00  9.000E+00
      25     1     1     2     0     0 -2.822617257E+02 -9.544183350E+01 -1.622585408E+02  3.615710988E+02  1.250000000E+02  0.00000E+00  9.000E+00
       2     1     1     2   502     0 -6.869531650E+00  1.274913932E+01 -1.168783820E+03  1.168873539E+03  0.000000000E+00  0.00000E+00  9.000E+00
#rwgt            1           1   3.0344083373513742E-002           9       42889           0
</event>
<event>
      5   9999  3.79277E-02  1.56508E+02 -1.00000E+00  1.15667E-01
      21    -1     0     0   502   511  0.000000000E+00  0.000000000E+00  5.664294417E+01  5.664294417E+01  0.000000000E+00  0.00000E+00  9.000E+00
      21    -1     0     0   501   502  0.000000000E+00  0.000000000E+00 -3.243878628E+03  3.243878628E+03  0.000000000E+00  0.00000E+00  9.000E+00
      25     1     1     2     0     0 -2.461071847E+02  8.731611035E+01 -2.015802006E+03  2.036486086E+03  1.250000000E+02  0.00000E+00  9.000E+00
      25     1     1     2     0     0  1.719799258E+02  5.052365641E+01 -1.030528198E+03  1.053443449E+03  1.250000000E+02  0.00000E+00  9.000E+00
      21     1     1     2   501   511  7.412725889E+01 -1.378397668E+02 -1.409054802E+02  2.105920372E+02  6.325959759E-06  0.00000E+00  9.000E+00
#rwgt            2          11   2.2675592295489880E-003           9       43053           0
</event>
<event>
      5   9999  3.79277E-02  3.07018E+01 -1.00000E+00  1.52346E-01
      21    -1     0     0   502   512  0.000000000E+00  0.000000000E+00  2.595904814E+02  2.595904814E+02  0.000000000E+00  0.00000E+00  9.000E+00
      21    -1     0     0   501   502  0.000000000E+00  0.000000000E+00 -3.208705738E+02  3.208705738E+02  0.000000000E+00  0.00000E+00  9.000E+00
      25     1     1     2     0     0 -1.104232491E+02 -1.939473723E-01 -1.555006346E+02  2.280324076E+02  1.250000000E+02  0.00000E+00  9.000E+00
      25     1     1     2     0     0  1.388827359E+02  1.171157382E+01 -5.889679347E+01  1.962636176E+02  1.250000000E+02  0.00000E+00  9.000E+00
      21     1     1     2   501   512 -2.845948687E+01 -1.151762645E+01  1.531173357E+02  1.561650300E+02  1.907348633E-06  0.00000E+00  9.000E+00
#rwgt            1           1   1.7483134592881994E-002           9       43073           0
</event>
<event>
      5   9999  3.79277E-02  4.49758E+01 -1.00000E+00  1.41751E-01
      21    -1     0     0   502   501  0.000000000E+00  0.000000000E+00  9.593862079E+01  9.593862079E+01  0.000000000E+00  0.00000E+00  9.000E+00
      21    -1     0     0   501   511  0.000000000E+00  0.000000000E+00 -1.125212010E+03  1.125212010E+03  0.000000000E+00  0.00000E+00  9.000E+00
      25     1     1     2     0     0 -5.683626417E+01 -9.369402981E+01 -2.602803797E+01  1.682598910E+02  1.250000000E+02  0.00000E+00  9.000E+00
      25     1     1     2     0     0  9.835860652E+01  7.641063648E+01 -2.988288495E+02  3.470398855E+02  1.250000000E+02  0.00000E+00  9.000E+00
      21     1     1     2   502   511 -4.152234236E+01  1.728339333E+01 -7.044165022E+02  7.058508547E+02  1.078959322E-05  0.00000E+00  9.000E+00
#rwgt            1           1   3.9709993114153429E-002           9       43273           0
</event>
<event>
      5   9999  3.79277E-02  1.30421E+02 -1.00000E+00  1.18853E-01
      21    -1     0     0   502   501  0.000000000E+00  0.000000000E+00  7.917500708E+01  7.917500708E+01  0.000000000E+00  0.00000E+00  9.000E+00
       2    -1     0     0   501     0  0.000000000E+00  0.000000000E+00 -2.063428544E+03  2.063428544E+03  0.000000000E+00  0.00000E+00  9.000E+00
      25     1     1     2     0     0 -2.133745445E+02 -3.792962841E+00 -3.862068972E+02  4.586107830E+02  1.250000000E+02  0.00000E+00  9.000E+00
      25     1     1     2     0     0  9.019980559E+01  4.666120298E+01 -1.216177265E+02  2.018146283E+02  1.250000000E+02  0.00000E+00  9.000E+00
       2     1     1     2   502     0  1.231747390E+02 -4.286824014E+01 -1.476428913E+03  1.482178140E+03  0.000000000E+00  0.00000E+00  9.000E+00
#rwgt            1           1   3.9571853657353051E-002           9       43427           0
</event>
<event>
      5   9999  3.79277E-02  1.14993E+02 -1.00000E+00  1.21159E-01
      21    -1     0     0   502   501  0.000000000E+00  0.000000000E+00  5.271146086E+02  5.271146086E+02  0.000000000E+00  0.00000E+00  9.000E+00
       1    -1     0     0   501     0  0.000000000E+00  0.000000000E+00 -2.539044372E+03  2.539044372E+03  0.000000000E+00  0.00000E+00  9.000E+00
      25     1     1     2     0     0  3.567833415E+01 -2.162629480E+02  3.658529939E+02  4.444277437E+02  1.250000000E+02  0.00000E+00  9.000E+00
      25     1     1     2     0     0 -3.222798866E+01  1.013216656E+02  6.480708298E+01  1.764360541E+02  1.250000000E+02  0.00000E+00  9.000E+00
       1     1     1     2   502     0 -3.450345482E+00  1.149412824E+02 -2.442589841E+03  2.445295183E+03  3.051757812E-05  0.00000E+00  9.000E+00
#rwgt            1           1   4.9640771312324888E-002           9       43531           0
</event>
<event>
      5   9999  3.79277E-02  1.64921E+02 -1.00000E+00  1.14784E-01
      21    -1     0     0   502   511  0.000000000E+00  0.000000000E+00  3.372984547E+02  3.372984547E+02  0.000000000E+00  0.00000E+00  9.000E+00
      21    -1     0     0   501   502  0.000000000E+00  0.000000000E+00 -6.382316074E+02  6.382316074E+02  0.000000000E+00  0.00000E+00  9.000E+00
      25     1     1     2     0     0  1.970534603E+02 -1.960192998E+02 -2.730326671E+02  4.091765748E+02  1.250000000E+02  0.00000E+00  9.000E+00
      25     1     1     2     0     0 -1.442652793E+02  3.522634525E+02 -2.427603332E+01  4.013929951E+02  1.250000000E+02  0.00000E+00  9.000E+00
      21     1     1     2   501   511 -5.278818101E+01 -1.562441527E+02 -3.624452375E+00  1.649604921E+02  4.271620004E-06  0.00000E+00  9.000E+00
#rwgt            1           1  0.20592292236453710                9       43599           0
</event>
<event>
      5   9999  3.79277E-02  2.06148E+01 -1.00000E+00  1.65291E-01
      21    -1     0     0   512   501  0.000000000E+00  0.000000000E+00  6.718770244E+02  6.718770244E+02  0.000000000E+00  0.00000E+00  9.000E+00
      21    -1     0     0   501   502  0.000000000E+00  0.000000000E+00 -1.681841045E+02  1.681841045E+02  0.000000000E+00  0.00000E+00  9.000E+00
      25     1     1     2     0     0  2.369366940E+01 -1.057387233E+02 -1.047631918E+02  1.958121394E+02  1.250000000E+02  0.00000E+00  9.000E+00
      25     1     1     2     0     0 -3.070226701E+01  8.635192276E+01  3.252555281E+02  3.602991012E+02  1.250000000E+02  0.00000E+00  9.000E+00
      21     1     1     2   512   502  7.008597605E+00  1.938680051E+01  2.832005837E+02  2.839498883E+02  0.000000000E+00  0.00000E+00  9.000E+00
#rwgt            1           1   4.0680385193254696E-002           9       43657           0
</event>
<event>
      5   9999  3.79277E-02  1.19378E+01 -1.00000E+00  1.87266E-01
      21    -1     0     0   502   511  0.000000000E+00  0.000000000E+00  2.068793254E+02  2.068793254E+02  0.000000000E+00  0.00000E+00  9.000E+00
      21    -1     0     0   501   502  0.000000000E+00  0.000000000E+00 -2.726630884E+02  2.726630884E+02  0.000000000E+00  0.00000E+00  9.000E+00
      25     1     1     2     0     0  1.094756973E+02  1.296265300E+02 -1.253971418E+02  2.452292983E+02  1.250000000E+02  0.00000E+00  9.000E+00
      25     1     1     2     0     0 -1.207296823E+02 -1.256442556E+02  5.410749405E+01  2.211668060E+02  1.250000000E+02  0.00000E+00  9.000E+00
      21     1     1     2   501   511  1.125398496E+01 -3.982274374E+00  5.505884717E+00  1.314630949E+01  1.976862425E-07  0.00000E+00  9.000E+00
#rwgt            1           1   3.1803543393663897E-002           9       43878           0
</event>
<event>
      5   9999  3.79277E-02  5.85877E+01 -1.00000E+00  1.35259E-01
       1    -1     0     0   502     0  0.000000000E+00  0.000000000E+00  1.805892398E+03  1.805892398E+03  0.000000000E+00  0.00000E+00  9.000E+00
      21    -1     0     0   501   502  0.000000000E+00  0.000000000E+00 -3.535630394E+01  3.535630394E+01  0.000000000E+00  0.00000E+00  9.000E+00
      25     1     1     2     0     0  1.526405244E+02  7.957828307E+01  7.019976625E+02  7.335240630E+02  1.250000000E+02  0.00000E+00  9.000E+00
      25     1     1     2     0     0 -1.011168926E+02 -5.168859455E+01  1.013051231E+03  1.027031710E+03  1.250000000E+02  0.00000E+00  9.000E+00
       1     1     1     2   501     0 -5.152363177E+01 -2.788968852E+01  5.548720064E+01  8.069292901E+01  1.348699152E-06  0.00000E+00  9.000E+00
#rwgt            1           1   2.8918168817495076E-002           9       44196           0
</event>
<event>
      5   9999  3.79277E-02  1.18918E+02 -1.00000E+00  1.20535E-01
      21    -1     0     0   502   511  0.000000000E+00  0.000000000E+00  6.271626373E+02  6.271626373E+02  0.000000000E+00  0.00000E+00  9.000E+00
      21    -1     0     0   501   502  0.000000000E+00  0.000000000E+00 -1.554493154E+02  1.554493154E+02  0.000000000E+00  0.00000E+00  9.000E+00
      25     1     1     2     0     0 -1.979910026E+02  1.208122845E+02  1.807799466E+02  3.195347153E+02  1.250000000E+02  0.00000E+00  9.000E+00
      25     1     1     2     0     0  2.051564171E+02 -2.110134144E+00  1.772027060E+02  2.985287376E+02  1.250000000E+02  0.00000E+00  9.000E+00
      21     1     1     2   501   511 -7.165414584E+00 -1.187021504E+02  1.137306693E+02  1.645484999E+02  2.697398305E-06  0.00000E+00  9.000E+00
#rwgt            1           1   1.6152413839309463E-002           9       44257           0
</event>
<event>
      5   9999  3.79277E-02  9.78246E+00 -1.00000E+00  1.96868E-01
      21    -1     0     0   502   501  0.000000000E+00  0.000000000E+00  1.593821324E+02  1.593821324E+02  0.000000000E+00  0.00000E+00  9.000E+00
      21    -1     0     0   501   512  0.000000000E+00  0.000000000E+00 -5.943282887E+02  5.943282887E+02  0.000000000E+00  0.00000E+00  9.000E+00
      25     1     1     2     0     0 -3.752168057E+01 -1.541306297E+02 -4.275898113E+02  4.728870629E+02  1.250000000E+02  0.00000E+00  9.000E+00
      25     1     1     2     0     0  3.781671166E+01  1.639086420E+02  5.583118128E+01  2.168830732E+02  1.250000000E+02  0.00000E+00  9.000E+00
      21     1     1     2   502   512 -2.950310924E-01 -9.778012337E+00 -6.318752634E+01  6.394028506E+01  0.000000000E+00  0.00000E+00  9.000E+00
#rwgt            1           1   2.6233268675220450E-002           9       44350           0
</event>
<event>
      5   9999  3.79277E-02  4.55155E+01 -1.00000E+00  1.41445E-01
      21    -1     0     0   511   501  0.000000000E+00  0.000000000E+00  4.263365267E+02  4.263365267E+02  0.000000000E+00  0.00000E+00  9.000E+00
      21    -1     0     0   501   502  0.000000000E+00  0.000000000E+00 -1.584569114E+02  1.584569114E+02  0.000000000E+00  0.00000E+00  9.000E+00
      25     1     1     2     0     0 -2.747810931E+01  4.715389881E+01  2.784151096E+02  3.100298532E+02  1.250000000E+02  0.00000E+00  9.000E+00
      25     1     1     2     0     0  6.871552049E+01 -6.641889951E+01 -9.140132951E+01  1.819683929E+02  1.250000000E+02  0.00000E+00  9.000E+00
      21     1     1     2   511   502 -4.123741118E+01  1.926500070E+01  8.086583531E+01  9.279519197E+01  0.000000000E+00  0.00000E+00  9.000E+00
#rwgt            1           1   4.3768284526463232E-002           9       44664           0
</event>
<event>
      5   9999  3.79277E-02  1.82536E+01 -1.00000E+00  1.69711E-01
      21    -1     0     0   502   501  0.000000000E+00  0.000000000E+00  4.459514275E+02  4.459514275E+02  0.000000000E+00  0.00000E+00  9.000E+00
      21    -1     0     0   512   502  0.000000000E+00  0.000000000E+00 -7.347995096E+01  7.347995096E+01  0.000000000E+00  0.00000E+00  9.000E+00
      25     1     1     2     0     0 -7.735117788E+01 -7.116081752E+01  1.632640392E+02  2.309268568E+02  1.250000000E+02  0.00000E+00  9.000E+00
      25     1     1     2     0     0  6.015338996E+01  7.727879024E+01  2.168011404E+02  2.687343972E+02  1.250000000E+02  0.00000E+00  9.000E+00
      21     1     1     2   512   501  1.719778792E+01 -6.117972713E+00 -7.593703048E+00  1.977012457E+01  2.920019320E-07  0.00000E+00  9.000E+00
#rwgt            1           1   2.6397084670636738E-002           9       44792           0
</event>
<event>
      5   9999  3.79277E-02  6.93624E+01 -1.00000E+00  1.31422E-01
      21    -1     0     0   502   501  0.000000000E+00  0.000000000E+00  4.515950458E+02  4.515950458E+02  0.000000000E+00  0.00000E+00  9.000E+00
      21    -1     0     0   501   511  0.000000000E+00  0.000000000E+00 -1.152856102E+03  1.152856102E+03  0.000000000E+00  0.00000E+00  9.000E+00
      25     1     1     2     0     0 -5.067892746E+01  1.260883330E+02 -6.930377465E+01  1.972172269E+02  1.250000000E+02  0.00000E+00  9.000E+00
      25     1     1     2     0     0  1.191664171E+02 -1.151064519E+02  3.585578219E+02  4.142931834E+02  1.250000000E+02  0.00000E+00  9.000E+00
      21     1     1     2   502   511 -6.848748960E+01 -1.098188101E+01 -9.905151031E+02  9.929407371E+02  1.078959322E-05  0.00000E+00  9.000E+00
#rwgt            1           1   4.3630012696522558E-002           9       44999           0
</event>
<event>
      5   9999  3.79277E-02  1.53511E+01 -1.00000E+00  1.76442E-01
      21    -1     0     0   512   501  0.000000000E+00  0.000000000E+00  1.636798885E+03  1.636798885E+03  0.000000000E+00  0.00000E+00  9.000E+00
      21    -1     0     0   501   502  0.000000000E+00  0.000000000E+00 -9.631267937E+01  9.631267937E+01  0.000000000E+00  0.00000E+00  9.000E+00
      25     1     1     2     0     0 -1.423898999E+02 -9.478095945E+01  5.422221646E+02  5.821410393E+02  1.250000000E+02  0.00000E+00  9.000E+00
      25     1     1     2     0     0  1.519727473E+02  1.067737146E+02  8.796075079E+01  2.405378052E+02  1.250000000E+02  0.00000E+00  9.000E+00
      21     1     1     2   512   502 -9.582847397E+00 -1.199275516E+01  9.103032902E+02  9.104327199E+02  1.078959322E-05  0.00000E+00  9.000E+00
#rwgt            1           1   4.3812996495043444E-002           9       45112           0
</event>
<event>
      5   9999  3.79277E-02  6.16638E+01 -1.00000E+00  1.34072E-01
       2    -1     0     0   502     0  0.000000000E+00  0.000000000E+00  3.455376399E+03  3.455376399E+03  0.000000000E+00  0.00000E+00  9.000E+00
      21    -1     0     0   501   502  0.000000000E+00  0.000000000E+00 -1.719511194E+02  1.719511194E+02  0.000000000E+00  0.00000E+00  9.000E+00
      25     1     1     2     0     0 -1.264845533E+02  1.272441467E+02 -1.115673817E+01  2.189495099E+02  1.250000000E+02  0.00000E+00  9.000E+00
      25     1     1     2     0     0  1.866290068E+02 -1.136400479E+02  2.233687349E+02  3.365457449E+02  1.250000000E+02  0.00000E+00  9.000E+00
       2     1     1     2   501     0 -6.014445344E+01 -1.360409882E+01  3.071213283E+03  3.071832264E+03  4.315837288E-05  0.00000E+00  9.000E+00
#rwgt            1           1   3.1652830473107185E-002           9       45609           0
</event>
<event>
      5   9999  3.79277E-02  7.43702E+01 -1.00000E+00  1.29902E-01
      21    -1     0     0   502   501  0.000000000E+00  0.000000000E+00  5.170451987E+02  5.170451987E+02  0.000000000E+00  0.00000E+00  9.000E+00
      21    -1     0     0   511   502  0.000000000E+00  0.000000000E+00 -1.607409121E+02  1.607409121E+02  0.000000000E+00  0.00000E+00  9.000E+00
      25     1     1     2     0     0 -1.175390255E+02 -1.012812191E+02  3.465369741E+02  3.997326385E+02  1.250000000E+02  0.00000E+00  9.000E+00
      25     1     1     2     0     0  5.052471260E+01  6.903214303E+01  8.380901458E+01  1.731101796E+02  1.250000000E+02  0.00000E+00  9.000E+00
      21     1     1     2   511   501  6.701431287E+01  3.224907611E+01 -7.404170212E+01  1.049432927E+02  0.000000000E+00  0.00000E+00  9.000E+00
#rwgt            1           1   4.3482959553405448E-002           9       45771           0
</event>
<event>
      5   9999  3.79277E-02  5.89031E+01 -1.00000E+00  1.35133E-01
      21    -1     0     0   512   501  0.000000000E+00  0.000000000E+00  1.112040116E+03  1.112040116E+03  0.000000000E+00  0.00000E+00  9.000E+00
      21    -1     0     0   501   502  0.000000000E+00  0.000000000E+00 -5.696817437E+01  5.696817437E+01  0.000000000E+00  0.00000E+00  9.000E+00
      25     1     1     2     0     0  4.291848112E+01 -2.016085799E+02  4.582923870E+02  5.178271212E+02  1.250000000E+02  0.00000E+00  9.000E+00
      25     1     1     2     0     0 -9.310618659E+00  1.532340972E+02  4.092505606E+02  4.546189586E+02  1.250000000E+02  0.00000E+00  9.000E+00
      21     1     1     2   512   502 -3.360786246E+01  4.837448273E+01  1.875289942E+02  1.965622107E+02  4.672030912E-06  0.00000E+00  9.000E+00
#rwgt            1           1   2.1567940151887791E-002           9       45840           0
</event>
<event>
      5   9999  3.79277E-02  3.68852E+01 -1.00000E+00  1.47058E-01
      21    -1     0     0   502   501  0.000000000E+00  0.000000000E+00  2.095371175E+02  2.095371175E+02  0.000000000E+00  0.00000E+00  9.000E+00
      21    -1     0     0   511   502  0.000000000E+00  0.000000000E+00 -7.743109514E+02  7.743109514E+02  0.000000000E+00  0.00000E+00  9.000E+00
      25     1     1     2     0     0 -7.736381767E+01  8.736176558E+01 -4.569111018E+01  1.770025873E+02  1.250000000E+02  0.00000E+00  9.000E+00
      25     1     1     2     0     0  4.293325889E+01 -7.413081016E+01  1.032830448E+02  1.833876470E+02  1.250000000E+02  0.00000E+00  9.000E+00
      21     1     1     2   511   501  3.443055878E+01 -1.323095542E+01 -6.223657686E+02  6.234578345E+02  7.629394531E-06  0.00000E+00  9.000E+00
#rwgt            1           1   3.0711006955493579E-002           9       45949           0
</event>
<event>
      5   9999  3.79277E-02  3.88429E+01 -1.00000E+00  1.45635E-01
      21    -1     0     0   502   512  0.000000000E+00  0.000000000E+00  1.177498462E+02  1.177498462E+02  0.000000000E+00  0.00000E+00  9.000E+00
      21    -1     0     0   501   502  0.000000000E+00  0.000000000E+00 -1.238216652E+03  1.238216652E+03  0.000000000E+00  0.00000E+00  9.000E+00
      25     1     1     2     0     0 -1.759646203E+02  5.508741185E+00 -6.902425404E+02  7.232244869E+02  1.250000000E+02  0.00000E+00  9.000E+00
      25     1     1     2     0     0  1.480213812E+02  2.147168591E+01 -5.089248390E+02  5.449778476E+02  1.250000000E+02  0.00000E+00  9.000E+00
      21     1     1     2   501   512  2.794323914E+01 -2.698042710E+01  7.870057383E+01  8.776416343E+01  3.015782986E-06  0.00000E+00  9.000E+00
#rwgt            1           1  0.12020830923751766                9       46067           0
</event>
<event>
      5   9999 -3.79277E-02  1.67940E+01 -1.00000E+00  1.72883E-01
      21    -1     0     0   502   511  0.000000000E+00  0.000000000E+00  1.255109824E+01  1.255109824E+01  0.000000000E+00  0.00000E+00  9.000E+00
      21    -1     0     0   501   502  0.000000000E+00  0.000000000E+00 -3.405062490E+03  3.405062490E+03  0.000000000E+00  0.00000E+00  9.000E+00
      25     1     1     2     0     0  4.482147057E+01 -1.033082651E+02 -2.220428744E+03  2.226793742E+03  1.250000000E+02  0.00000E+00  9.000E+00
      25     1     1     2     0     0 -5.645657924E+01  1.154187567E+02 -1.145039700E+03  1.158986518E+03  1.250000000E+02  0.00000E+00  9.000E+00
      21     1     1     2   501   511  1.163510868E+01 -1.211049160E+01 -2.704294818E+01  3.183332855E+01  1.348699152E-06  0.00000E+00  9.000E+00
#rwgt            1           1  -6.9891038784890600E-002           9       46202           0
</event>
<event>
      5   9999  3.79277E-02  2.53413E+01 -1.00000E+00  1.58311E-01
      21    -1     0     0   502   501  0.000000000E+00  0.000000000E+00  3.484677795E+02  3.484677795E+02  0.000000000E+00  0.00000E+00  9.000E+00
      21    -1     0     0   512   502  0.000000000E+00  0.000000000E+00 -2.843830777E+02  2.843830777E+02  0.000000000E+00  0.00000E+00  9.000E+00
      25     1     1     2     0     0  1.162341307E+02 -1.604237725E+02  1.089697564E+02  2.583516358E+02  1.250000000E+02  0.00000E+00  9.000E+00
      25     1     1     2     0     0 -1.255373821E+02  1.368519830E+02  8.702278772E+01  2.401792354E+02  1.250000000E+02  0.00000E+00  9.000E+00
      21     1     1     2   512   501  9.303251398E+00  2.357178959E+01 -1.319078423E+02  1.343199859E+02  1.907348633E-06  0.00000E+00  9.000E+00
#rwgt            1           1   4.5444676205764693E-002           9       46327           0
</event>
<event>
      5   9999  3.79277E-02  4.80907E+01 -1.00000E+00  1.40047E-01
      21    -1     0     0   502   501  0.000000000E+00  0.000000000E+00  7.865610626E+02  7.865610626E+02  0.000000000E+00  0.00000E+00  9.000E+00
       2    -1     0     0   501     0  0.000000000E+00  0.000000000E+00 -1.649216185E+02  1.649216185E+02  0.000000000E+00  0.00000E+00  9.000E+00
      25     1     1     2     0     0 -1.322992191E+01 -5.421506428E+01  1.082184436E+02  1.745008183E+02  1.250000000E+02  0.00000E+00  9.000E+00
      25     1     1     2     0     0 -1.549287406E+01  1.564412574E+01  6.343071433E+02  6.468812255E+02  1.250000000E+02  0.00000E+00  9.000E+00
       2     1     1     2   502     0  2.872279597E+01  3.857093853E+01 -1.208861429E+02  1.301006374E+02  3.568322551E-06  0.00000E+00  9.000E+00
#rwgt            1           1   5.3911475419014573E-002           9       46452           0
</event>
<event>
      5   9999  3.79277E-02  2.38134E+02 -1.00000E+00  1.08957E-01
      21    -1     0     0   502   501  0.000000000E+00  0.000000000E+00  5.566594635E+02  5.566594635E+02  0.000000000E+00  0.00000E+00  9.000E+00
      21    -1     0     0   511   502  0.000000000E+00  0.000000000E+00 -6.400430866E+02  6.400430866E+02  0.000000000E+00  0.00000E+00  9.000E+00
      25     1     1     2     0     0 -2.632612819E+02 -1.926078098E+02  2.698831149E+02  4.414364809E+02  1.250000000E+02  0.00000E+00  9.000E+00
      25     1     1     2     0     0  5.953193418E+01  6.931088109E+01  1.392253893E+02  2.082228577E+02  1.250000000E+02  0.00000E+00  9.000E+00
      21     1     1     2   511   501  2.037293477E+02  1.232969287E+02 -4.924921273E+02  5.470432115E+02  1.078959322E-05  0.00000E+00  9.000E+00
#rwgt            1           1   4.1950835533569243E-002           9       46546           0
</event>
<event>
      5   9999  3.79277E-02  2.01334E+02 -1.00000E+00  1.11543E-01
      21    -1     0     0   502   501  0.000000000E+00  0.000000000E+00  7.240995726E+02  7.240995726E+02  0.000000000E+00  0.00000E+00  9.000E+00
      -3    -1     0     0     0   502  0.000000000E+00  0.000000000E+00 -2.261167352E+02  2.261167352E+02  0.000000000E+00  0.00000E+00  9.000E+00
      25     1     1     2     0     0 -2.100983109E+02 -5.560406610E+01  5.356615442E+02  5.914316548E+02  1.250000000E+02  0.00000E+00  9.000E+00
      25     1     1     2     0     0  1.030535637E+01  8.046414819E+01  1.746535471E+01  1.500357228E+02  1.250000000E+02  0.00000E+00  9.000E+00
      -3     1     1     2     0   501  1.997929545E+02 -2.486008209E+01 -5.514406144E+01  2.087489302E+02  2.431401974E-06  0.00000E+00  9.000E+00
#rwgt            1           1   4.1053498270389378E-002           9       46586           0
</event>
<event>
      5   9999  3.79277E-02  3.43936E+00 -1.00000E+00  2.79946E-01
      21    -1     0     0   511   501  0.000000000E+00  0.000000000E+00  6.551117556E+01  6.551117556E+01  0.000000000E+00  0.00000E+00  9.000E+00
      21    -1     0     0   501   502  0.000000000E+00  0.000000000E+00 -7.517890583E+02  7.517890583E+02  0.000000000E+00  0.00000E+00  9.000E+00
      25     1     1     2     0     0 -2.760055490E+01 -2.244020795E+01 -6.668292019E+02  6.793758445E+02  1.250000000E+02  0.00000E+00  9.000E+00
      25     1     1     2     0     0  3.084054929E+01  2.128623120E+01 -2.351574855E+01  1.325980149E+02  1.250000000E+02  0.00000E+00  9.000E+00
      21     1     1     2   511   502 -3.239994387E+00  1.153976753E+00  4.067067687E+00  5.326374522E+00  1.685873940E-07  0.00000E+00  9.000E+00
#rwgt            1           1   5.2000335802268281E-002           9       46651           0
</event>
<event>
      5   9999  3.79277E-02  6.45176E+01 -1.00000E+00  1.33040E-01
      21    -1     0     0   502   501  0.000000000E+00  0.000000000E+00  1.000995117E+02  1.000995117E+02  0.000000000E+00  0.00000E+00  9.000E+00
      21    -1     0     0   501   512  0.000000000E+00  0.000000000E+00 -3.953905612E+02  3.953905612E+02  0.000000000E+00  0.00000E+00  9.000E+00
      25     1     1     2     0     0 -6.607648602E+01 -3.397010868E+01 -2.017033330E+02  2.486549916E+02  1.250000000E+02  0.00000E+00  9.000E+00
      25     1     1     2     0     0  6.255337935E+01 -3.045121288E+01 -1.306273454E+01  1.436517896E+02  1.250000000E+02  0.00000E+00  9.000E+00
      21     1     1     2   502   512  3.523106667E+00  6.442132155E+01 -8.052498192E+01  1.031832916E+02  1.348699152E-06  0.00000E+00  9.000E+00
#rwgt            1           1   3.1811856412735554E-002           9       47107           0
</event>
<event>
      5   9999  3.79277E-02  3.03978E+01 -1.00000E+00  1.52644E-01
      21    -1     0     0   502   511  0.000000000E+00  0.000000000E+00  1.603187534E+03  1.603187534E+03  0.000000000E+00  0.00000E+00  9.000E+00
      21    -1     0     0   501   502  0.000000000E+00  0.000000000E+00 -5.088110639E+01  5.088110639E+01  0.000000000E+00  0.00000E+00  9.000E+00
      25     1     1     2     0     0  4.348508241E+01  1.902974004E+02  5.728153298E+02  6.179372582E+02  1.250000000E+02  0.00000E+00  9.000E+00
      25     1     1     2     0     0 -5.654245495E+01 -1.628468569E+02  3.778161846E+02  4.336890791E+02  1.250000000E+02  0.00000E+00  9.000E+00
      21     1     1     2   501   511  1.305737254E+01 -2.745054353E+01  6.016749132E+02  6.024423030E+02  0.000000000E+00  0.00000E+00  9.000E+00
#rwgt            1           1   1.9925580844065559E-002           9       47186           0
</event>
<event>
      5   9999  3.79277E-02  2.71278E+01 -1.00000E+00  1.56139E-01
      21    -1     0     0   502   501  0.000000000E+00  0.000000000E+00  7.580415444E+02  7.580415444E+02  0.000000000E+00  0.00000E+00  9.000E+00
      21    -1     0     0   512   502  0.000000000E+00  0.000000000E+00 -1.203605660E+02  1.203605660E+02  0.000000000E+00  0.00000E+00  9.000E+00
      25     1     1     2     0     0  1.955880115E+02 -1.691520268E+02  2.619597499E+02  3.887351142E+02  1.250000000E+02  0.00000E+00  9.000E+00
      25     1     1     2     0     0 -1.707323613E+02  1.582839648E+02  3.793321309E+02  4.622999223E+02  1.250000000E+02  0.00000E+00  9.000E+00
      21     1     1     2   512   501 -2.485565019E+01  1.086806205E+01 -3.610902431E+00  2.736707393E+01  3.500980176E-07  0.00000E+00  9.000E+00
#rwgt            1           1  0.26489166799287861                9       47413           0
</event>
<event>
      5   9999  3.79277E-02  1.68092E+02 -1.00000E+00  1.14467E-01
      21    -1     0     0   502   511  0.000000000E+00  0.000000000E+00  8.040458246E+02  8.040458246E+02  0.000000000E+00  0.00000E+00  9.000E+00
      21    -1     0     0   501   502  0.000000000E+00  0.000000000E+00 -1.061285622E+02  1.061285622E+02  0.000000000E+00  0.00000E+00  9.000E+00
      25     1     1     2     0     0  1.718325957E+01  1.276774183E+02  2.930635888E+02  3.436685244E+02  1.250000000E+02  0.00000E+00  9.000E+00
      25     1     1     2     0     0  1.201503829E+02 -3.075341757E+01  6.563182590E+01  1.879213233E+02  1.250000000E+02  0.00000E+00  9.000E+00
      21     1     1     2   501   511 -1.373336424E+02 -9.692400070E+01  3.392218477E+02  3.785845390E+02  3.814697266E-06  0.00000E+00  9.000E+00
#rwgt            1           1   3.9350410943814633E-002           9       47722           0
</event>
<event>
      5   9999  3.79277E-02  5.08165E+01 -1.00000E+00  1.38675E-01
      21    -1     0     0   502   501  0.000000000E+00  0.000000000E+00  1.817180218E+02  1.817180218E+02  0.000000000E+00  0.00000E+00  9.000E+00
      21    -1     0     0   501   512  0.000000000E+00  0.000000000E+00 -3.188449175E+02  3.188449175E+02  0.000000000E+00  0.00000E+00  9.000E+00
      25     1     1     2     0     0  9.111353388E+01 -1.097032423E+02  7.292731669E+01  2.031744840E+02  1.250000000E+02  0.00000E+00  9.000E+00
      25     1     1     2     0     0 -4.488554515E+01  8.860130001E+01 -1.619245315E+02  2.273971337E+02  1.250000000E+02  0.00000E+00  9.000E+00
      21     1     1     2   502   512 -4.622798872E+01  2.110194231E+01 -4.812968087E+01  6.999132154E+01  1.348699152E-06  0.00000E+00  9.000E+00
#rwgt            1           1   4.5088301633540905E-002           9       47784           0
</event>
<event>
      5   9999  3.79277E-02  4.85593E+01 -1.00000E+00  1.39804E-01
      21    -1     0     0   511   501  0.000000000E+00  0.000000000E+00  2.114721104E+02  2.114721104E+02  0.000000000E+00  0.00000E+00  9.000E+00
      21    -1     0     0   501   502  0.000000000E+00  0.000000000E+00 -2.532508488E+02  2.532508488E+02  0.000000000E+00  0.00000E+00  9.000E+00
      25     1     1     2     0     0  6.944933218E+01  1.028398004E+02 -1.059100043E+01  1.764551035E+02  1.250000000E+02  0.00000E+00  9.000E+00
      25     1     1     2     0     0 -2.570654206E+01 -8.175487202E+01 -1.157849827E+02  1.907245334E+02  1.250000000E+02  0.00000E+00  9.000E+00
      21     1     1     2   511   502 -4.374279012E+01 -2.108492833E+01  8.459724477E+01  9.754332223E+01  1.907348633E-06  0.00000E+00  9.000E+00
#rwgt            1           1   4.8071782760467863E-002           9       47965           0
</event>
<event>
      5   9999  3.79277E-02  2.30591E+01 -1.00000E+00  1.61425E-01
      21    -1     0     0   502   512  0.000000000E+00  0.000000000E+00  1.210905935E+03  1.210905935E+03  0.000000000E+00  0.00000E+00  9.000E+00
      21    -1     0     0   501   502  0.000000000E+00  0.000000000E+00 -1.768977638E+02  1.768977638E+02  0.000000000E+00  0.00000E+00  9.000E+00
      25     1     1     2     0     0  1.416402914E+02 -1.246269114E+02 -8.086459739E+01  2.403287796E+02  1.250000000E+02  0.00000E+00  9.000E+00
      25     1     1     2     0     0 -1.305982529E+02  1.043835500E+02  6.646253791E+02  6.966374406E+02  1.250000000E+02  0.00000E+00  9.000E+00
      21     1     1     2   501   512 -1.104203847E+01  2.024336142E+01  4.502473899E+02  4.508374789E+02  7.629394531E-06  0.00000E+00  9.000E+00
#rwgt            1           1   4.3849825078515536E-002           9       48052           0
</event>
<event>
      5   9999 -3.79277E-02  6.83189E+01 -1.00000E+00  1.31758E-01
      21    -1     0     0   502   511  0.000000000E+00  0.000000000E+00  3.557231982E+02  3.557231982E+02  0.000000000E+00  0.00000E+00  9.000E+00
      21    -1     0     0   501   502  0.000000000E+00  0.000000000E+00 -2.011240413E+02  2.011240413E+02  0.000000000E+00  0.00000E+00  9.000E+00
      25     1     1     2     0     0  1.328839529E+02 -1.151986048E+02  1.547221302E+02  2.655048042E+02  1.250000000E+02  0.00000E+00  9.000E+00
      25     1     1     2     0     0 -1.678148738E+02  5.648484094E+01 -2.597989858E+01  2.182941233E+02  1.250000000E+02  0.00000E+00  9.000E+00
      21     1     1     2   501   511  3.493092088E+01  5.871376386E+01  2.585692528E+01  7.304831199E+01  7.539457465E-07  0.00000E+00  9.000E+00
#rwgt            1           1  -2.5347462764457165E-002           9       48234           0
</event>
<event>
      5   9999  3.79277E-02  1.21418E+02 -1.00000E+00  1.20152E-01
       2    -1     0     0   502     0  0.000000000E+00  0.000000000E+00  4.184777996E+03  4.184777996E+03  0.000000000E+00  0.00000E+00  9.000E+00
      21    -1     0     0   501   502  0.000000000E+00  0.000000000E+00 -1.744882692E+01  1.744882692E+01  0.000000000E+00  0.00000E+00  9.000E+00
      25     1     1     2     0     0  2.000304812E+02  4.081043201E+01  1.550429448E+03  1.568800229E+03  1.250000000E+02  0.00000E+00  9.000E+00
      25     1     1     2     0     0 -1.114816318E+02  4.226415000E+01  1.604595618E+03  1.613866943E+03  1.250000000E+02  0.00000E+00  9.000E+00
       2     1     1     2   501     0 -8.854884941E+01 -8.307458201E+01  1.012304103E+03  1.019559651E+03  1.868812365E-05  0.00000E+00  9.000E+00
#rwgt            1           1   2.7157713305424307E-002           9       48294           0
</event>
<event>
      5   9999  3.79277E-02  3.62658E+01 -1.00000E+00  1.47530E-01
      21    -1     0     0   502   511  0.000000000E+00  0.000000000E+00  5.811745213E+02  5.811745213E+02  0.000000000E+00  0.00000E+00  9.000E+00
      21    -1     0     0   501   502  0.000000000E+00  0.000000000E+00 -1.310979452E+02  1.310979452E+02  0.000000000E+00  0.00000E+00  9.000E+00
      25     1     1     2     0     0 -1.479583546E+02  1.234863678E+02  2.264478716E+02  3.225588261E+02  1.250000000E+02  0.00000E+00  9.000E+00
      25     1     1     2     0     0  1.613804577E+02 -1.571769095E+02  1.284832038E+02  2.878908937E+02  1.250000000E+02  0.00000E+00  9.000E+00
      21     1     1     2   501   511 -1.342210307E+01  3.369054166E+01  9.514550069E+01  1.018227467E+02  1.348699152E-06  0.00000E+00  9.000E+00
#rwgt            1           1   3.6369326495879692E-002           9       48365           0
</event>
<event>
      5   9999  3.79277E-02  4.18870E+01 -1.00000E+00  1.43609E-01
      21    -1     0     0   502   501  0.000000000E+00  0.000000000E+00  6.520895757E+01  6.520895757E+01  0.000000000E+00  0.00000E+00  9.000E+00
      21    -1     0     0   501   512  0.000000000E+00  0.000000000E+00 -1.060154775E+03  1.060154775E+03  0.000000000E+00  0.00000E+00  9.000E+00
      25     1     1     2     0     0 -3.607778574E+01 -1.759747272E+02 -5.343039100E+02  5.773858151E+02  1.250000000E+02  0.00000E+00  9.000E+00
      25     1     1     2     0     0  4.950541966E+01  2.156511634E+02 -3.806939669E+02  4.577216483E+02  1.250000000E+02  0.00000E+00  9.000E+00
      21     1     1     2   502   512 -1.342763392E+01 -3.967643616E+01 -7.994794061E+01  9.025626929E+01  0.000000000E+00  0.00000E+00  9.000E+00
#rwgt            1           1   2.7792293380180633E-002           9       48546           0
</event>
<event>
      5   9999  3.79277E-02  2.24731E+01 -1.00000E+00  1.62297E-01
      -2    -1     0     0     0   501  0.000000000E+00  0.000000000E+00  3.356146963E+02  3.356146963E+02  0.000000000E+00  0.00000E+00  9.000E+00
      21    -1     0     0   501   502  0.000000000E+00  0.000000000E+00 -4.478795206E+02  4.478795206E+02  0.000000000E+00  0.00000E+00  9.000E+00
      25     1     1     2     0     0 -1.031300495E+02 -1.577328717E+01 -6.388775029E+01  1.749035401E+02  1.250000000E+02  0.00000E+00  9.000E+00
      25     1     1     2     0     0  9.302050875E+01  3.584415276E+01 -3.085156811E+02  3.474831562E+02  1.250000000E+02  0.00000E+00  9.000E+00
      -2     1     1     2     0   502  1.010954079E+01 -2.007086559E+01  2.601386071E+02  2.611075207E+02  3.814697266E-06  0.00000E+00  9.000E+00
#rwgt            1           1   3.4563973268071896E-002           9       48715           0
</event>
<event>
      5   9999  3.79277E-02  1.56027E+02 -1.00000E+00  1.15720E-01
      21    -1     0     0   502   501  0.000000000E+00  0.000000000E+00  9.703483038E+02  9.703483038E+02  0.000000000E+00  0.00000E+00  9.000E+00
      21    -1     0     0   511   502  0.000000000E+00  0.000000000E+00 -2.034310110E+02  2.034310110E+02  0.000000000E+00  0.00000E+00  9.000E+00
      25     1     1     2     0     0 -6.545575097E+01  1.537807029E+02  1.445268666E+02  2.538621183E+02  1.250000000E+02  0.00000E+00  9.000E+00
      25     1     1     2     0     0 -7.455804216E+01 -8.493009038E+01  7.176099993E+02  7.371303365E+02  1.250000000E+02  0.00000E+00  9.000E+00
      21     1     1     2   511   501  1.400137931E+02 -6.885061257E+01 -9.521957306E+01  1.827868601E+02  2.336015456E-06  0.00000E+00  9.000E+00
#rwgt            1           1   3.1854639268132784E-002           9       49059           0
</event>
<event>
      5   9999  3.79277E-02  1.32783E+01 -1.00000E+00  1.82522E-01
      21    -1     0     0   502   501  0.000000000E+00  0.000000000E+00  4.854465743E+02  4.854465743E+02  0.000000000E+00  0.00000E+00  9.000E+00
      21    -1     0     0   512   502  0.000000000E+00  0.000000000E+00 -1.012248244E+02  1.012248244E+02  0.000000000E+00  0.00000E+00  9.000E+00
      25     1     1     2     0     0 -7.606645319E+01  1.420320247E+02  2.054377882E+02  2.894630998E+02  1.250000000E+02  0.00000E+00  9.000E+00
      25     1     1     2     0     0  7.382289474E+01 -1.551193633E+02  1.857573825E+02  2.822102794E+02  1.250000000E+02  0.00000E+00  9.000E+00
      21     1     1     2   512   501  2.243558450E+00  1.308733866E+01 -6.973420794E+00  1.499801938E+01  2.230201594E-07  0.00000E+00  9.000E+00
#rwgt            1           1   2.7404184107577230E-002           9       49147           0
</event>
<event>
      5   9999  3.79277E-02  7.14803E+01 -1.00000E+00  1.30762E-01
      -4    -1     0     0     0   501  0.000000000E+00  0.000000000E+00  1.080565870E+02  1.080565870E+02  0.000000000E+00  0.00000E+00  9.000E+00
      21    -1     0     0   501   502  0.000000000E+00  0.000000000E+00 -1.067871450E+03  1.067871450E+03  0.000000000E+00  0.00000E+00  9.000E+00
      25     1     1     2     0     0  6.901752127E+01  1.375660658E+02 -4.576160165E+02  4.987236302E+02  1.250000000E+02  0.00000E+00  9.000E+00
      25     1     1     2     0     0 -5.727171520E+01 -6.705745245E+01 -5.629689889E+02  5.833830935E+02  1.250000000E+02  0.00000E+00  9.000E+00
      -4     1     1     2     0   502 -1.174580607E+01 -7.050861333E+01  6.077014284E+01  9.382131301E+01  3.568322551E-06  0.00000E+00  9.000E+00
#rwgt            2           2   4.1035954932645419E-005           9       49485           0
</event>
<event>
      5   9999  3.79277E-02  2.45886E+01 -1.00000E+00  1.59293E-01
      21    -1     0     0   502   511  0.000000000E+00  0.000000000E+00  3.192104055E+02  3.192104055E+02  0.000000000E+00  0.00000E+00  9.000E+00
      21    -1     0     0   501   502  0.000000000E+00  0.000000000E+00 -5.917978881E+02  5.917978881E+02  0.000000000E+00  0.00000E+00  9.000E+00
      25     1     1     2     0     0  3.623103647E+01 -3.444917541E+02 -4.882397837E+01  3.714781791E+02  1.250000000E+02  0.00000E+00  9.000E+00
      25     1     1     2     0     0 -3.307373255E+01  3.201066881E+02 -3.012780277E+02  4.582091373E+02  1.250000000E+02  0.00000E+00  9.000E+00
      21     1     1     2   501   511 -3.157303920E+00  2.438506597E+01  7.751452335E+01  8.132097725E+01  9.536743164E-07  0.00000E+00  9.000E+00
#rwgt            1           1   3.1342337411682610E-002           9       49534           0
</event>
<event>
      5   9999  3.79277E-02  1.50424E+02 -1.00000E+00  1.16345E-01
      21    -1     0     0   502   512  0.000000000E+00  0.000000000E+00  5.369044430E+02  5.369044430E+02  0.000000000E+00  0.00000E+00  9.000E+00
      21    -1     0     0   501   502  0.000000000E+00  0.000000000E+00 -1.815182528E+02  1.815182528E+02  0.000000000E+00  0.00000E+00  9.000E+00
      25     1     1     2     0     0 -8.396010972E+01 -9.493727988E+01 -6.976618034E+01  1.911928530E+02  1.250000000E+02  0.00000E+00  9.000E+00
      25     1     1     2     0     0 -6.382293488E+01  6.687550257E+01  2.669974642E+02  3.089633404E+02  1.250000000E+02  0.00000E+00  9.000E+00
      21     1     1     2   501   512  1.477830446E+02  2.806177731E+01  1.581549064E+02  2.182665023E+02  1.907348633E-06  0.00000E+00  9.000E+00
#rwgt            1           1   4.4959042748979570E-002           9       49987           0
</event>
<event>
      5   9999  3.79277E-02  5.68810E+01 -1.00000E+00  1.35954E-01
      21    -1     0     0   502   511  0.000000000E+00  0.000000000E+00  1.712743450E+02  1.712743450E+02  0.000000000E+00  0.00000E+00  9.000E+00
      21    -1     0     0   501   502  0.000000000E+00  0.000000000E+00 -4.068477485E+02  4.068477485E+02  0.000000000E+00  0.00000E+00  9.000E+00
      25     1     1     2     0     0  1.567019786E+02  6.157786172E+01 -2.176885829E+02  3.022592633E+02  1.250000000E+02  0.00000E+00  9.000E+00
      25     1     1     2     0     0 -1.118409350E+02 -2.660730971E+01 -8.331624071E+01  1.891637905E+02  1.250000000E+02  0.00000E+00  9.000E+00
      21     1     1     2   501   511 -4.486104353E+01 -3.497055201E+01  6.543142010E+01  8.669903962E+01  1.348699152E-06  0.00000E+00  9.000E+00
#rwgt            1           1   1.9493665787896762E-002           9       50064           0
</event>
<event>
      5   9999  3.79277E-02  4.68306E+01 -1.00000E+00  1.40718E-01
      21    -1     0     0   502   501  0.000000000E+00  0.000000000E+00  5.887639981E+02  5.887639981E+02  0.000000000E+00  0.00000E+00  9.000E+00
      21    -1     0     0   501   512  0.000000000E+00  0.000000000E+00 -2.741038867E+02  2.741038867E+02  0.000000000E+00  0.00000E+00  9.000E+00
      25     1     1     2     0     0  9.539120301E+01  2.465897470E+02  3.249735094E+02  4.371941980E+02  1.250000000E+02  0.00000E+00  9.000E+00
      25     1     1     2     0     0 -7.624085967E+01 -2.038536853E+02  1.265032784E+02  2.810641797E+02  1.250000000E+02  0.00000E+00  9.000E+00
      21     1     1     2   502   512 -1.915034334E+01 -4.273606170E+01 -1.368166763E+02  1.446095071E+02  0.000000000E+00  0.00000E+00  9.000E+00
#rwgt            1           1   5.8570867032030488E-002           9       50284           0
</event>
<event>
      5   9999 -3.79277E-02  4.61186E+01 -1.00000E+00  1.41108E-01
      21    -1     0     0   502   501  0.000000000E+00  0.000000000E+00  1.013638862E+02  1.013638862E+02  0.000000000E+00  0.00000E+00  9.000E+00
      21    -1     0     0   501   511  0.000000000E+00  0.000000000E+00 -1.703413701E+03  1.703413701E+03  0.000000000E+00  0.00000E+00  9.000E+00
      25     1     1     2     0     0 -2.360887195E+02 -1.914671209E+02 -3.353581427E+02  4.695610991E+02  1.250000000E+02  0.00000E+00  9.000E+00
      25     1     1     2     0     0  2.780054044E+02  2.107002636E+02 -1.044281668E+03  1.108075272E+03  1.250000000E+02  0.00000E+00  9.000E+00
      21     1     1     2   502   511 -4.191668496E+01 -1.923314267E+01 -2.224100039E+02  2.271412162E+02  3.814697266E-06  0.00000E+00  9.000E+00
#rwgt            1           1  -3.9127621026775007E-002           9       50465           0
</event>
<event>
      5   9999  3.79277E-02  9.58085E+01 -1.00000E+00  1.24670E-01
      21    -1     0     0   512   501  0.000000000E+00  0.000000000E+00  5.912351689E+02  5.912351689E+02  0.000000000E+00  0.00000E+00  9.000E+00
      21    -1     0     0   501   502  0.000000000E+00  0.000000000E+00 -2.015386260E+03  2.015386260E+03  0.000000000E+00  0.00000E+00  9.000E+00
      25     1     1     2     0     0 -2.601039888E+01 -3.970988806E+02 -1.098871884E+03  1.175375888E+03  1.250000000E+02  0.00000E+00  9.000E+00
      25     1     1     2     0     0  3.532016425E+00  4.902331865E+02 -8.002182092E+02  9.467392644E+02  1.250000000E+02  0.00000E+00  9.000E+00
      21     1     1     2   512   502  2.247838246E+01 -9.313430586E+01  4.749390017E+02  4.845062765E+02  1.078959322E-05  0.00000E+00  9.000E+00
#rwgt            2          11   3.0698397027756571E-003           9       50737           0
</event>
<event>
      5   9999  3.79277E-02  5.49254E+01 -1.00000E+00  1.36787E-01
       5    -1     0     0   502     0  0.000000000E+00  0.000000000E+00  1.636599595E+02  1.636599595E+02  0.000000000E+00  0.00000E+00  9.000E+00
      21    -1     0     0   501   502  0.000000000E+00  0.000000000E+00 -2.648819620E+02  2.648819620E+02  0.000000000E+00  0.00000E+00  9.000E+00
      25     1     1     2     0     0 -1.207188638E+01  5.915991512E+01  2.989701634E+01  1.420016112E+02  1.250000000E+02  0.00000E+00  9.000E+00
      25     1     1     2     0     0 -4.285086625E+01 -5.970198943E+01 -1.668210922E+02  2.210312220E+02  1.250000000E+02  0.00000E+00  9.000E+00
       5     1     1     2   501     0  5.492275263E+01  5.420743174E-01  3.570207337E+01  6.550908826E+01  1.348699152E-06  0.00000E+00  9.000E+00
#rwgt            1           1   4.4459145330255412E-002           9       50922           0
</event>
<event>
      5   9999  3.79277E-02  3.45331E+01 -1.00000E+00  1.48913E-01
      21    -1     0     0   511   501  0.000000000E+00  0.000000000E+00  1.044765977E+03  1.044765977E+03  0.000000000E+00  0.00000E+00  9.000E+00
      21    -1     0     0   501   502  0.000000000E+00  0.000000000E+00 -3.865091314E+02  3.865091314E+02  0.000000000E+00  0.00000E+00  9.000E+00
      25     1     1     2     0     0 -4.402490018E+02 -1.089833039E+01  2.696879073E+02  5.313139604E+02  1.250000000E+02  0.00000E+00  9.000E+00
      25     1     1     2     0     0  4.582301046E+02 -1.858409831E+01 -3.346803533E+01  4.765137006E+02  1.250000000E+02  0.00000E+00  9.000E+00
      21     1     1     2   511   502 -1.798110276E+01  2.948242870E+01  4.220369737E+02  4.234474475E+02  0.000000000E+00  0.00000E+00  9.000E+00
#rwgt            1           1   9.3190621418375211E-002           9       51061           0
</event>
<event>
      5   9999  3.79277E-02  1.15038E+02 -1.00000E+00  1.21152E-01
      21    -1     0     0   502   512  0.000000000E+00  0.000000000E+00  4.937022413E+02  4.937022413E+02  0.000000000E+00  0.00000E+00  9.000E+00
      21    -1     0     0   501   502  0.000000000E+00  0.000000000E+00 -3.110297436E+02  3.110297436E+02  0.000000000E+00  0.00000E+00  9.000E+00
      25     1     1     2     0     0  9.037786721E+01 -1.689062462E+02 -1.095664874E+02  2.536282595E+02  1.250000000E+02  0.00000E+00  9.000E+00
      25     1     1     2     0     0 -3.697267276E+01  6.701626377E+01 -7.614883083E+01  1.651720393E+02  1.250000000E+02  0.00000E+00  9.000E+00
      21     1     1     2   501   512 -5.340519444E+01  1.018899824E+02  3.683878160E+02  3.859316860E+02  5.394796609E-06  0.00000E+00  9.000E+00
#rwgt            1           1   4.0333352984452113E-002           9       51244           0
</event>
<event>
      5   9999  3.79277E-02  1.58207E+02 -1.00000E+00  1.15484E-01
       1    -1     0     0   502     0  0.000000000E+00  0.000000000E+00  6.886245005E+02  6.886245005E+02  0.000000000E+00  0.00000E+00  9.000E+00
      21    -1     0     0   501   502  0.000000000E+00  0.000000000E+00 -1.820936687E+02  1.820936687E+02  0.000000000E+00  0.00000E+00  9.000E+00
      25     1     1     2     0     0  1.722996059E+00  8.290863836E+01  2.553906290E+02  2.961860638E+02  1.250000000E+02  0.00000E+00  9.000E+00
      25     1     1     2     0     0 -1.403882773E+02 -1.590749908E+02 -3.385878153E+01  2.485661646E+02  1.250000000E+02  0.00000E+00  9.000E+00
       1     1     1     2   501     0  1.386652813E+02  7.616635247E+01  2.849989843E+02  3.259659408E+02  3.814697266E-06  0.00000E+00  9.000E+00
#rwgt            1           1   5.2522464876725156E-002           9       51381           0
</event>
<event>
      5   9999  3.79277E-02  1.28246E+02 -1.00000E+00  1.19156E-01
      21    -1     0     0   502   511  0.000000000E+00  0.000000000E+00  6.061513871E+01  6.061513871E+01  0.000000000E+00  0.00000E+00  9.000E+00
      21    -1     0     0   501   502  0.000000000E+00  0.000000000E+00 -1.905186542E+03  1.905186542E+03  0.000000000E+00  0.00000E+00  9.000E+00
      25     1     1     2     0     0  2.292685957E+01  1.050132793E+02 -1.507008297E+03  1.515998825E+03  1.250000000E+02  0.00000E+00  9.000E+00
      25     1     1     2     0     0  8.131922645E+01 -3.031508882E+01 -2.560121029E+02  2.978238037E+02  1.250000000E+02  0.00000E+00  9.000E+00
      21     1     1     2   501   511 -1.042460860E+02 -7.469819052E+01 -8.155100315E+01  1.519790520E+02  1.651812370E-06  0.00000E+00  9.000E+00
#rwgt            1           1   6.0405888600663767E-002           9       51426           0
</event>
<event>
      5   9999  3.79277E-02  2.59676E+01 -1.00000E+00  1.57525E-01
      21    -1     0     0   512   501  0.000000000E+00  0.000000000E+00  1.346738973E+03  1.346738973E+03  0.000000000E+00  0.00000E+00  9.000E+00
      21    -1     0     0   501   502  0.000000000E+00  0.000000000E+00 -3.429700428E+01  3.429700428E+01  0.000000000E+00  0.00000E+00  9.000E+00
      25     1     1     2     0     0 -1.353804233E+02  5.877501435E+00  9.300908011E+02  9.481857953E+02  1.250000000E+02  0.00000E+00  9.000E+00
      25     1     1     2     0     0  1.135319911E+02  8.156819048E+00  2.784542275E+02  3.257572770E+02  1.250000000E+02  0.00000E+00  9.000E+00
      21     1     1     2   512   502  2.184843216E+01 -1.403432048E+01  1.038969398E+02  1.070929047E+02  1.907348633E-06  0.00000E+00  9.000E+00
#rwgt            1           1   9.5293402484003545E-002           9       51498           0
</event>
<event>
      5   9999  3.79277E-02  3.44577E+01 -1.00000E+00  1.48975E-01
      21    -1     0     0   502   501  0.000000000E+00  0.000000000E+00  9.671205971E+01  9.671205971E+01  0.000000000E+00  0.00000E+00  9.000E+00
      21    -1     0     0   511   502  0.000000000E+00  0.000000000E+00 -4.265435525E+02  4.265435525E+02  0.000000000E+00  0.00000E+00  9.000E+00
      25     1     1     2     0     0  9.421342630E+01 -6.673831691E+01 -1.011157962E+02  1.979383159E+02  1.250000000E+02  0.00000E+00  9.000E+00
      25     1     1     2     0     0 -1.285838546E+02  6.428762453E+01 -1.613514279E+02  2.496517366E+02  1.250000000E+02  0.00000E+00  9.000E+00
      21     1     1     2   511   501  3.437042826E+01  2.450692377E+00 -6.736426870E+01  7.566555973E+01  1.348699152E-06  0.00000E+00  9.000E+00
#rwgt            1           1   3.5463252248188533E-002           9       51607           0
</event>
<event>
      5   9999  3.79277E-02  4.20561E+01 -1.00000E+00  1.43503E-01
      21    -1     0     0   512   501  0.000000000E+00  0.000000000E+00  1.167899341E+03  1.167899341E+03  0.000000000E+00  0.00000E+00  9.000E+00
      21    -1     0     0   501   502  0.000000000E+00  0.000000000E+00 -1.163902431E+02  1.163902431E+02  0.000000000E+00  0.00000E+00  9.000E+00
      25     1     1     2     0     0 -1.611390061E+02 -1.532389596E+02  1.532721037E+02  2.975992201E+02  1.250000000E+02  0.00000E+00  9.000E+00
      25     1     1     2     0     0  1.194647843E+02  1.475846422E+02  2.531723928E+02  3.402562590E+02  1.250000000E+02  0.00000E+00  9.000E+00
      21     1     1     2   512   502  4.167422184E+01  5.654317369E+00  6.450646018E+02  6.464341054E+02  7.629394531E-06  0.00000E+00  9.000E+00
#rwgt            1           1   3.4620041767534554E-002           9       51799           0
</event>
<event>
      5   9999  3.79277E-02  4.47813E+01 -1.00000E+00  1.41863E-01
       1    -1     0     0   502     0  0.000000000E+00  0.000000000E+00  1.034719825E+03  1.034719825E+03  0.000000000E+00  0.00000E+00  9.000E+00
      21    -1     0     0   501   502  0.000000000E+00  0.000000000E+00 -1.388963387E+02  1.388963387E+02  0.000000000E+00  0.00000E+00  9.000E+00
      25     1     1     2     0     0  7.225999867E+01  9.780872027E+00 -7.357415348E+01  1.623432442E+02  1.250000000E+02  0.00000E+00  9.000E+00
      25     1     1     2     0     0 -1.166565095E+02 -1.563866688E+01  3.458805816E+02  3.861498231E+02  1.250000000E+02  0.00000E+00  9.000E+00
       1     1     1     2   501     0  4.439651086E+01  5.857794850E+00  6.235170580E+02  6.251230963E+02  0.000000000E+00  0.00000E+00  9.000E+00
#rwgt            1           1   3.0230922054686575E-002           9       51897           0
</event>
<event>
      5   9999  3.79277E-02  4.23156E+01 -1.00000E+00  1.43341E-01
      21    -1     0     0   502   511  0.000000000E+00  0.000000000E+00  8.291891297E+01  8.291891297E+01  0.000000000E+00  0.00000E+00  9.000E+00
      21    -1     0     0   501   502  0.000000000E+00  0.000000000E+00 -4.923299415E+02  4.923299415E+02  0.000000000E+00  0.00000E+00  9.000E+00
      25     1     1     2     0     0 -9.561059552E+01 -1.772239292E+01 -1.584214773E+02  2.240040929E+02  1.250000000E+02  0.00000E+00  9.000E+00
      25     1     1     2     0     0  1.292132587E+02  4.344143786E+01 -2.472376939E+02  3.087631811E+02  1.250000000E+02  0.00000E+00  9.000E+00
      21     1     1     2   501   511 -3.360266315E+01 -2.571904494E+01 -3.751857388E+00  4.248158045E+01  9.195356739E-07  0.00000E+00  9.000E+00
#rwgt            1           1  0.20448289373384093                9       52003           0
</event>
<event>
      5   9999  3.79277E-02  4.13290E+01 -1.00000E+00  1.43965E-01
      21    -1     0     0   502   501  0.000000000E+00  0.000000000E+00  4.419947161E+02  4.419947161E+02  0.000000000E+00  0.00000E+00  9.000E+00
      21    -1     0     0   512   502  0.000000000E+00  0.000000000E+00 -1.341272666E+02  1.341272666E+02  0.000000000E+00  0.00000E+00  9.000E+00
      25     1     1     2     0     0 -1.253733900E+02 -1.140405124E+01  2.765823476E+02  3.285899182E+02  1.250000000E+02  0.00000E+00  9.000E+00
      25     1     1     2     0     0  1.564116536E+02 -1.588529838E+01  1.014219287E+01  2.011089560E+02  1.250000000E+02  0.00000E+00  9.000E+00
      21     1     1     2   512   501 -3.103826364E+01  2.728934963E+01  2.114290902E+01  4.642310862E+01  2.384185791E-07  0.00000E+00  9.000E+00
#rwgt            1           1   3.6236278407213593E-002           9       52247           0
</event>
<event>
      5   9999  3.79277E-02  1.35756E+02 -1.00000E+00  1.18137E-01
      21    -1     0     0   502   501  0.000000000E+00  0.000000000E+00  2.483139668E+02  2.483139668E+02  0.000000000E+00  0.00000E+00  9.000E+00
      21    -1     0     0   501   511  0.000000000E+00  0.000000000E+00 -7.371247602E+02  7.371247602E+02  0.000000000E+00  0.00000E+00  9.000E+00
      25     1     1     2     0     0  1.603489854E+01 -6.026917593E+01  1.962232931E+02  2.408694092E+02  1.250000000E+02  0.00000E+00  9.000E+00
      25     1     1     2     0     0  8.651021942E+01 -2.869241558E+01 -3.298626115E+02  3.643372274E+02  1.250000000E+02  0.00000E+00  9.000E+00
      21     1     1     2   502   511 -1.025451180E+02  8.896159152E+01 -3.551714750E+02  3.802320904E+02  6.607249480E-06  0.00000E+00  9.000E+00
#rwgt            1           1   4.6686138577656244E-002           9       52393           0
</event>
<event>
      5   9999 -3.79277E-02  2.66843E+01 -1.00000E+00  1.56659E-01
      21    -1     0     0   502   512  0.000000000E+00  0.000000000E+00  1.106883096E+02  1.106883096E+02  0.000000000E+00  0.00000E+00  9.000E+00
      21    -1     0     0   501   502  0.000000000E+00  0.000000000E+00 -3.390491505E+02  3.390491505E+02  0.000000000E+00  0.00000E+00  9.000E+00
      25     1     1     2     0     0  6.090409078E+01  3.565158355E+01 -2.324681095E+02  2.732156028E+02  1.250000000E+02  0.00000E+00  9.000E+00
      25     1     1     2     0     0 -4.611501591E+01 -5.786275461E+01 -1.132201655E+01  1.456979105E+02  1.250000000E+02  0.00000E+00  9.000E+00
      21     1     1     2   501   512 -1.478907487E+01  2.221117106E+01  1.542928509E+01  3.082394676E+01  5.057621821E-07  0.00000E+00  9.000E+00
#rwgt            1           1  -3.5424079437551784E-002           9       52564           0
</event>
<event>
      5   9999  3.79277E-02  8.38585E+01 -1.00000E+00  1.27367E-01
      21    -1     0     0   502   501  0.000000000E+00  0.000000000E+00  3.722332395E+02  3.722332395E+02  0.000000000E+00  0.00000E+00  9.000E+00
      21    -1     0     0   511   502  0.000000000E+00  0.000000000E+00 -6.629773830E+02  6.629773830E+02  0.000000000E+00  0.00000E+00  9.000E+00
      25     1     1     2     0     0 -8.019490768E+01 -1.031095223E+02  1.305604449E+01  1.812684669E+02  1.250000000E+02  0.00000E+00  9.000E+00
      25     1     1     2     0     0  1.537290449E+02  6.279847131E+01  2.320753085E+02  3.115448861E+02  1.250000000E+02  0.00000E+00  9.000E+00
      21     1     1     2   511   501 -7.353413725E+01  4.031105101E+01 -5.358754965E+02  5.423972694E+02  1.078959322E-05  0.00000E+00  9.000E+00
#rwgt            1           1   3.8673842023655439E-002           9       52742           0
</event>
<event>
      5   9999  3.79277E-02  1.85562E+01 -1.00000E+00  1.69100E-01
      21    -1     0     0   502   501  0.000000000E+00  0.000000000E+00  7.876123307E+02  7.876123307E+02  0.000000000E+00  0.00000E+00  9.000E+00
      21    -1     0     0   512   502  0.000000000E+00  0.000000000E+00 -8.797784181E+01  8.797784181E+01  0.000000000E+00  0.00000E+00  9.000E+00
      25     1     1     2     0     0 -9.273823761E+01  1.366476547E+02  1.484834065E+02  2.548436466E+02  1.250000000E+02  0.00000E+00  9.000E+00
      25     1     1     2     0     0  7.636108305E+01 -1.279229143E+02  5.650385252E+02  5.975690939E+02  1.250000000E+02  0.00000E+00  9.000E+00
      21     1     1     2   512   501  1.637715456E+01 -8.724740379E+00 -1.388744279E+01  2.317743198E+01  8.920806376E-07  0.00000E+00  9.000E+00
#rwgt            1           1   3.7611646176586425E-002           9       52784           0
</event>
<event>
      5   9999  3.79277E-02  8.16469E+01 -1.00000E+00  1.27923E-01
      21    -1     0     0   502   501  0.000000000E+00  0.000000000E+00  2.954181613E+02  2.954181613E+02  0.000000000E+00  0.00000E+00  9.000E+00
      21    -1     0     0   511   502  0.000000000E+00  0.000000000E+00 -2.308196900E+02  2.308196900E+02  0.000000000E+00  0.00000E+00  9.000E+00
      25     1     1     2     0     0 -7.635777695E+01  4.936485199E+01 -2.261417013E+01  1.562171546E+02  1.250000000E+02  0.00000E+00  9.000E+00
      25     1     1     2     0     0  7.534352532E+01 -1.310054074E+02  1.657124681E+02  2.567580294E+02  1.250000000E+02  0.00000E+00  9.000E+00
      21     1     1     2   511   501  1.014251628E+00  8.164055539E+01 -7.849982671E+01  1.132626672E+02  2.336015456E-06  0.00000E+00  9.000E+00
#rwgt            1           1   3.1544365592288418E-002           9       53066           0
</event>
<event>
      5   9999  3.79277E-02  6.34353E+01 -1.00000E+00  1.33424E-01
      21    -1     0     0   502   501  0.000000000E+00  0.000000000E+00  8.328779570E+01  8.328779570E+01  0.000000000E+00  0.00000E+00  9.000E+00
      21    -1     0     0   512   502  0.000000000E+00  0.000000000E+00 -1.172257281E+03  1.172257281E+03  0.000000000E+00  0.00000E+00  9.000E+00
      25     1     1     2     0     0  6.053746036E+01 -1.572993327E+02 -2.411407914E+02  3.196587953E+02  1.250000000E+02  0.00000E+00  9.000E+00
      25     1     1     2     0     0 -6.909630979E+01  9.444408556E+01 -1.293015804E+02  2.145644053E+02  1.250000000E+02  0.00000E+00  9.000E+00
      21     1     1     2   512   501  8.558849434E+00  6.285524717E+01 -7.185271140E+02  7.213218765E+02  1.321449896E-05  0.00000E+00  9.000E+00
#rwgt            1           1   4.0055104178049035E-002           9       53196           0
</event>
<event>
      5   9999  3.79277E-02  2.77314E+01 -1.00000E+00  1.55450E-01
      21    -1     0     0   502   501  0.000000000E+00  0.000000000E+00  4.208640375E+02  4.208640375E+02  0.000000000E+00  0.00000E+00  9.000E+00
      21    -1     0     0   511   502  0.000000000E+00  0.000000000E+00 -1.730509280E+02  1.730509280E+02  0.000000000E+00  0.00000E+00  9.000E+00
      25     1     1     2     0     0  1.457106065E+02  1.222092470E+02  4.148984112E+01  2.313289602E+02  1.250000000E+02  0.00000E+00  9.000E+00
      25     1     1     2     0     0 -1.713299572E+02 -1.115940849E+02  2.253457814E+02  3.289573152E+02  1.250000000E+02  0.00000E+00  9.000E+00
      21     1     1     2   511   501  2.561935068E+01 -1.061516210E+01 -1.902251300E+01  3.362869008E+01  2.384185791E-07  0.00000E+00  9.000E+00
#rwgt            1           1   3.7779425278427134E-002           9       53342           0
</event>
<event>
      5   9999  3.79277E-02  5.20462E+01 -1.00000E+00  1.38089E-01
      21    -1     0     0   502   501  0.000000000E+00  0.000000000E+00  8.398617828E+01  8.398617828E+01  0.000000000E+00  0.00000E+00  9.000E+00
       2    -1     0     0   501     0  0.000000000E+00  0.000000000E+00 -6.795776539E+02  6.795776539E+02  0.000000000E+00  0.00000E+00  9.000E+00
      25     1     1     2     0     0  1.348269825E+02  8.900726576E+01 -3.511727501E+02  4.062608879E+02  1.250000000E+02  0.00000E+00  9.000E+00
      25     1     1     2     0     0 -1.020770857E+02 -1.294579001E+02 -2.106687345E+02  2.952717308E+02  1.250000000E+02  0.00000E+00  9.000E+00
       2     1     1     2   502     0 -3.274989678E+01  4.045063433E+01 -3.374999099E+01  6.203121350E+01  4.768371582E-07  0.00000E+00  9.000E+00
#rwgt            1           1   3.6532953397057200E-002           9       53549           0
</event>
<event>
      5   9999  3.79277E-02  1.18643E+01 -1.00000E+00  1.87549E-01
      21    -1     0     0   502   511  0.000000000E+00  0.000000000E+00  3.910737415E+02  3.910737415E+02  0.000000000E+00  0.00000E+00  9.000E+00
      21    -1     0     0   501   502  0.000000000E+00  0.000000000E+00 -1.995038855E+02  1.995038855E+02  0.000000000E+00  0.00000E+00  9.000E+00
      25     1     1     2     0     0 -6.573450395E+01 -2.060958057E+02 -2.271289361E+01  2.508732383E+02  1.250000000E+02  0.00000E+00  9.000E+00
      25     1     1     2     0     0  5.535190247E+01  2.003544668E+02  1.761425517E+02  2.997614785E+02  1.250000000E+02  0.00000E+00  9.000E+00
      21     1     1     2   501   511  1.038260147E+01  5.741338932E+00  3.814019789E+01  3.994291028E+01  8.259061849E-07  0.00000E+00  9.000E+00
#rwgt            1           1   3.1825284727949682E-002           9       53814           0
</event>
<event>
      5   9999  3.79277E-02  6.03356E+01 -1.00000E+00  1.34574E-01
      21    -1     0     0   512   501  0.000000000E+00  0.000000000E+00  5.258950112E+02  5.258950112E+02  0.000000000E+00  0.00000E+00  9.000E+00
      21    -1     0     0   501   502  0.000000000E+00  0.000000000E+00 -1.207421828E+03  1.207421828E+03  0.000000000E+00  0.00000E+00  9.000E+00
      25     1     1     2     0     0  5.453479880E+02  1.504487816E+02 -2.792718445E+01  5.800380949E+02  1.250000000E+02  0.00000E+00  9.000E+00
      25     1     1     2     0     0 -6.043658048E+02 -1.629897834E+02 -7.831704495E+02  1.010348776E+03  1.250000000E+02  0.00000E+00  9.000E+00
      21     1     1     2   512   502  5.901781672E+01  1.254100184E+01  1.295708169E+02  1.429299689E+02  3.814697266E-06  0.00000E+00  9.000E+00
#rwgt            1           1   2.0542431416090506E-002           9       54288           0
</event>
<event>
      5   9999 -3.79277E-02  2.47600E+02 -1.00000E+00  1.08374E-01
      21    -1     0     0   502   501  0.000000000E+00  0.000000000E+00  4.184969304E+02  4.184969304E+02  0.000000000E+00  0.00000E+00  9.000E+00
      21    -1     0     0   511   502  0.000000000E+00  0.000000000E+00 -4.313820280E+02  4.313820280E+02  0.000000000E+00  0.00000E+00  9.000E+00
      25     1     1     2     0     0  3.636563337E+00 -2.813204658E+02  9.483835897E+01  3.221393230E+02  1.250000000E+02  0.00000E+00  9.000E+00
      25     1     1     2     0     0 -1.968551706E+02  1.264899926E+02 -8.737495555E+01  2.793045994E+02  1.250000000E+02  0.00000E+00  9.000E+00
      21     1     1     2   511   501  1.932186073E+02  1.548304732E+02 -2.034850097E+01  2.484350360E+02  1.668930054E-06  0.00000E+00  9.000E+00
#rwgt            1           1 -0.15051592541943731                9       54388           0
</event>
<event>
      5   9999  3.79277E-02  1.81282E+01 -1.00000E+00  1.69969E-01
      21    -1     0     0   502   501  0.000000000E+00  0.000000000E+00  1.560739819E+02  1.560739819E+02  0.000000000E+00  0.00000E+00  9.000E+00
      21    -1     0     0   512   502  0.000000000E+00  0.000000000E+00 -2.628687743E+02  2.628687743E+02  0.000000000E+00  0.00000E+00  9.000E+00
      25     1     1     2     0     0  1.222401357E+02 -4.456290178E+01 -1.277630569E+02  2.210812107E+02  1.250000000E+02  0.00000E+00  9.000E+00
      25     1     1     2     0     0 -1.180206001E+02  2.693262266E+01  3.158603337E+01  1.768527798E+02  1.250000000E+02  0.00000E+00  9.000E+00
      21     1     1     2   512   501 -4.219535632E+00  1.763027912E+01 -1.061776882E+01  2.100876573E+01  1.192092896E-07  0.00000E+00  9.000E+00
#rwgt            1           1   3.7011254730424714E-002           9       54459           0
</event>
<event>
      5   9999  3.79277E-02  8.74754E+00 -1.00000E+00  2.02724E-01
      21    -1     0     0   502   511  0.000000000E+00  0.000000000E+00  3.898173429E+02  3.898173429E+02  0.000000000E+00  0.00000E+00  9.000E+00
      21    -1     0     0   501   502  0.000000000E+00  0.000000000E+00 -4.027351055E+02  4.027351055E+02  0.000000000E+00  0.00000E+00  9.000E+00
      25     1     1     2     0     0  1.726747435E+02 -2.622560263E+01  2.794120946E+02  3.524208675E+02  1.250000000E+02  0.00000E+00  9.000E+00
      25     1     1     2     0     0 -1.639830456E+02  2.721246719E+01 -3.362366328E+02  3.953618986E+02  1.250000000E+02  0.00000E+00  9.000E+00
      21     1     1     2   501   511 -8.691697897E+00 -9.868645600E-01  4.390677552E+01  4.476968227E+01  6.743495762E-07  0.00000E+00  9.000E+00
#rwgt            1           1   4.1249715747767007E-002           9       54626           0
</event>
<event>
      5   9999  3.79277E-02  7.62053E+01 -1.00000E+00  1.29379E-01
      21    -1     0     0   502   512  0.000000000E+00  0.000000000E+00  7.329820347E+02  7.329820347E+02  0.000000000E+00  0.00000E+00  9.000E+00
      21    -1     0     0   501   502  0.000000000E+00  0.000000000E+00 -7.455019239E+02  7.455019239E+02  0.000000000E+00  0.00000E+00  9.000E+00
      25     1     1     2     0     0 -9.525254628E+01 -1.747509807E+01 -7.107019107E+02  7.280801004E+02  1.250000000E+02  0.00000E+00  9.000E+00
      25     1     1     2     0     0  3.848672689E+01 -3.336671547E+01  1.715480813E+02  2.182849286E+02  1.250000000E+02  0.00000E+00  9.000E+00
      21     1     1     2   501   512  5.676581939E+01  5.084181354E+01  5.266339402E+02  5.321189296E+02  7.629394531E-06  0.00000E+00  9.000E+00
#rwgt            1           1   5.8843934614086810E-002           9       54945           0
</event>
<event>
      5   9999  3.79277E-02  4.36187E+01 -1.00000E+00  1.42545E-01
      21    -1     0     0   502   511  0.000000000E+00  0.000000000E+00  5.010637328E+02  5.010637328E+02  0.000000000E+00  0.00000E+00  9.000E+00
      21    -1     0     0   501   502  0.000000000E+00  0.000000000E+00 -2.415379457E+02  2.415379457E+02  0.000000000E+00  0.00000E+00  9.000E+00
      25     1     1     2     0     0 -9.875975955E+01 -2.937915562E+01  2.758900305E+01  1.643252202E+02  1.250000000E+02  0.00000E+00  9.000E+00
      25     1     1     2     0     0  8.064418067E+01  6.905811817E+01 -1.327454435E+02  2.109949296E+02  1.250000000E+02  0.00000E+00  9.000E+00
      21     1     1     2   501   511  1.811557887E+01 -3.967896255E+01  3.646822275E+02  3.672815287E+02  5.394796609E-06  0.00000E+00  9.000E+00
#rwgt            1           1   6.3081247289691639E-002           9       55033           0
</event>
<event>
      5   9999  3.79277E-02  8.88679E+01 -1.00000E+00  1.26178E-01
      21    -1     0     0   502   512  0.000000000E+00  0.000000000E+00  3.669009412E+02  3.669009412E+02  0.000000000E+00  0.00000E+00  9.000E+00
      21    -1     0     0   501   502  0.000000000E+00  0.000000000E+00 -6.862949879E+02  6.862949879E+02  0.000000000E+00  0.00000E+00  9.000E+00
      25     1     1     2     0     0 -2.423911465E+02  5.782884785E+01 -5.068525083E+02  5.784653047E+02  1.250000000E+02  0.00000E+00  9.000E+00
      25     1     1     2     0     0  2.020688993E+02  2.136472958E+01 -2.939976911E+01  2.403697946E+02  1.250000000E+02  0.00000E+00  9.000E+00
      21     1     1     2   501   512  4.032224717E+01 -7.919357743E+01  2.168582307E+02  2.343608298E+02  5.394796609E-06  0.00000E+00  9.000E+00
#rwgt            1           1   3.5603632821201520E-002           9       55107           0
</event>
<event>
      5   9999  3.79277E-02  1.45003E+01 -1.00000E+00  1.78781E-01
      21    -1     0     0   502   511  0.000000000E+00  0.000000000E+00  5.275550753E+02  5.275550753E+02  0.000000000E+00  0.00000E+00  9.000E+00
      21    -1     0     0   501   502  0.000000000E+00  0.000000000E+00 -7.880314519E+01  7.880314519E+01  0.000000000E+00  0.00000E+00  9.000E+00
      25     1     1     2     0     0  1.066531095E+02  7.012329061E+01  1.206319303E+02  2.155672152E+02  1.250000000E+02  0.00000E+00  9.000E+00
      25     1     1     2     0     0 -9.411181839E+01 -7.740164402E+01  2.159249035E+02  2.776627681E+02  1.250000000E+02  0.00000E+00  9.000E+00
      21     1     1     2   501   511 -1.254129111E+01  7.278353410E+00  1.121950963E+02  1.131282372E+02  1.907348633E-06  0.00000E+00  9.000E+00
#rwgt            1           1   4.0217982209506738E-002           9       55210           0
</event>
<event>
      5   9999  3.79277E-02  1.42722E+01 -1.00000E+00  1.79443E-01
      21    -1     0     0   502   501  0.000000000E+00  0.000000000E+00  5.360040938E+02  5.360040938E+02  0.000000000E+00  0.00000E+00  9.000E+00
      21    -1     0     0   501   512  0.000000000E+00  0.000000000E+00 -4.277778178E+02  4.277778178E+02  0.000000000E+00  0.00000E+00  9.000E+00
      25     1     1     2     0     0 -7.667774662E+01  7.871109778E+01 -1.864456883E+02  2.499238052E+02  1.250000000E+02  0.00000E+00  9.000E+00
      25     1     1     2     0     0  9.075012556E+01 -7.633105927E+01  4.892781144E+02  5.187293024E+02  1.250000000E+02  0.00000E+00  9.000E+00
      21     1     1     2   502   512 -1.407237895E+01 -2.380038518E+00 -1.946061502E+02  1.951288040E+02  2.697398305E-06  0.00000E+00  9.000E+00
#rwgt            1           1   3.8570917407111292E-002           9       55302           0
</event>
<event>
      5   9999 -3.79277E-02  1.54690E+01 -1.00000E+00  1.76133E-01
      21    -1     0     0   511   501  0.000000000E+00  0.000000000E+00  3.182360542E+02  3.182360542E+02  0.000000000E+00  0.00000E+00  9.000E+00
      21    -1     0     0   501   502  0.000000000E+00  0.000000000E+00 -7.203446560E+02  7.203446560E+02  0.000000000E+00  0.00000E+00  9.000E+00
      25     1     1     2     0     0  4.214979649E+02 -1.582133759E+02 -3.004095825E+02  5.554844049E+02  1.250000000E+02  0.00000E+00  9.000E+00
      25     1     1     2     0     0 -4.117038914E+02  1.462398418E+02 -1.067847078E+02  4.668127669E+02  1.250000000E+02  0.00000E+00  9.000E+00
      21     1     1     2   511   502 -9.794073579E+00  1.197353409E+01  5.085688559E+00  1.628353844E+01  2.665600750E-07  0.00000E+00  9.000E+00
#rwgt            1           1 -0.45895629228549928                9       55610           0
</event>
<event>
      5   9999  3.79277E-02  6.61596E+01 -1.00000E+00  1.32474E-01
      21    -1     0     0   512   501  0.000000000E+00  0.000000000E+00  1.391621415E+03  1.391621415E+03  0.000000000E+00  0.00000E+00  9.000E+00
      21    -1     0     0   501   502  0.000000000E+00  0.000000000E+00 -4.088514714E+01  4.088514714E+01  0.000000000E+00  0.00000E+00  9.000E+00
      25     1     1     2     0     0  5.929448845E+01  1.219933166E+02  6.327187346E+02  6.590570558E+02  1.250000000E+02  0.00000E+00  9.000E+00
      25     1     1     2     0     0 -2.587606744E+01 -1.790923930E+02  5.173278903E+02  5.621359286E+02  1.250000000E+02  0.00000E+00  9.000E+00
      21     1     1     2   512   502 -3.341842101E+01  5.709907635E+01  2.006896433E+02  2.113135781E+02  3.814697266E-06  0.00000E+00  9.000E+00
#rwgt            1           1   4.7844457180731090E-002           9       55918           0
</event>
<event>
      5   9999  3.79277E-02  1.07519E+02 -1.00000E+00  1.22428E-01
      21    -1     0     0   502   501  0.000000000E+00  0.000000000E+00  6.595902534E+02  6.595902534E+02  0.000000000E+00  0.00000E+00  9.000E+00
      21    -1     0     0   501   511  0.000000000E+00  0.000000000E+00 -4.628706031E+02  4.628706031E+02  0.000000000E+00  0.00000E+00  9.000E+00
      25     1     1     2     0     0  1.491291428E+02  1.335116712E+02 -8.565629698E+00  2.361424096E+02  1.250000000E+02  0.00000E+00  9.000E+00
      25     1     1     2     0     0 -1.931657227E+02 -3.542417579E+01  5.113881939E+02  5.618814407E+02  1.250000000E+02  0.00000E+00  9.000E+00
      21     1     1     2   502   511  4.403657984E+01 -9.808749540E+01 -3.061029138E+02  3.244370062E+02  5.394796609E-06  0.00000E+00  9.000E+00
#rwgt            1           1   3.7066061000599219E-002           9       56011           0
</event>
<event>
      5   9999  3.79277E-02  3.22420E+01 -1.00000E+00  1.50897E-01
      21    -1     0     0   512   501  0.000000000E+00  0.000000000E+00  2.941567640E+03  2.941567640E+03  0.000000000E+00  0.00000E+00  9.000E+00
      21    -1     0     0   501   502  0.000000000E+00  0.000000000E+00 -2.199262709E+01  2.199262709E+01  0.000000000E+00  0.00000E+00  9.000E+00
      25     1     1     2     0     0 -1.233303333E+02  4.849572413E+01  4.519032560E+02  4.872409662E+02  1.250000000E+02  0.00000E+00  9.000E+00
      25     1     1     2     0     0  9.273693296E+01 -5.867371681E+01  2.264948810E+03  2.271048405E+03  1.250000000E+02  0.00000E+00  9.000E+00
      21     1     1     2   512   502  3.059340038E+01  1.017799268E+01  2.027229465E+02  2.052708959E+02  2.697398305E-06  0.00000E+00  9.000E+00
#rwgt            1           1   5.7250674544718071E-002           9       56136           0
</event>
<event>
      5   9999  3.79277E-02  2.48055E+01 -1.00000E+00  1.59005E-01
      21    -1     0     0   511   501  0.000000000E+00  0.000000000E+00  3.571580288E+02  3.571580288E+02  0.000000000E+00  0.00000E+00  9.000E+00
      21    -1     0     0   501   502  0.000000000E+00  0.000000000E+00 -1.926368186E+02  1.926368186E+02  0.000000000E+00  0.00000E+00  9.000E+00
      25     1     1     2     0     0  1.023848936E+02  4.819015480E+01 -1.181218244E+02  2.058706459E+02  1.250000000E+02  0.00000E+00  9.000E+00
      25     1     1     2     0     0 -1.102765100E+02 -2.467348076E+01  2.244457456E+02  2.806609735E+02  1.250000000E+02  0.00000E+00  9.000E+00
      21     1     1     2   511   502  7.891616473E+00 -2.351667403E+01  5.819728896E+01  6.326322795E+01  0.000000000E+00  0.00000E+00  9.000E+00
#rwgt            1           1   4.7217905595929990E-002           9       56213           0
</event>
<event>
      5   9999  3.79277E-02  7.72578E+00 -1.00000E+00  2.09671E-01
      21    -1     0     0   502   512  0.000000000E+00  0.000000000E+00  1.055773662E+02  1.055773662E+02  0.000000000E+00  0.00000E+00  9.000E+00
      21    -1     0     0   501   502  0.000000000E+00  0.000000000E+00 -1.003307838E+03  1.003307838E+03  0.000000000E+00  0.00000E+00  9.000E+00
      25     1     1     2     0     0  7.437560982E-01  1.550228622E+01  5.935350920E+01  1.392433593E+02  1.250000000E+02  0.00000E+00  9.000E+00
      25     1     1     2     0     0  1.728703947E+00 -2.282174949E+01 -9.518839892E+02  9.603290840E+02  1.250000000E+02  0.00000E+00  9.000E+00
      21     1     1     2   501   512 -2.472460045E+00  7.319463272E+00 -5.199991964E+00  9.312761013E+00  2.230201594E-07  0.00000E+00  9.000E+00
#rwgt            1           1   5.6648166893119675E-002           9       56497           0
</event>
<event>
      5   9999  3.79277E-02  2.52547E+01 -1.00000E+00  1.58422E-01
      21    -1     0     0   502   501  0.000000000E+00  0.000000000E+00  1.451429844E+02  1.451429844E+02  0.000000000E+00  0.00000E+00  9.000E+00
      21    -1     0     0   511   502  0.000000000E+00  0.000000000E+00 -2.459758290E+02  2.459758290E+02  0.000000000E+00  0.00000E+00  9.000E+00
      25     1     1     2     0     0 -3.695717937E+01 -4.143461603E+01  6.550880420E+01  1.516544228E+02  1.250000000E+02  0.00000E+00  9.000E+00
      25     1     1     2     0     0  3.590061372E+01  1.620205977E+01 -8.982152653E+01  1.588844468E+02  1.250000000E+02  0.00000E+00  9.000E+00
      21     1     1     2   511   501  1.056565654E+00  2.523255627E+01 -7.652012231E+01  8.057994381E+01  0.000000000E+00  0.00000E+00  9.000E+00
#rwgt            1           1   4.1021496988273627E-002           9       56930           0
</event>
<event>
      5   9999  3.79277E-02  1.49600E+02 -1.00000E+00  1.16440E-01
      21    -1     0     0   512   501  0.000000000E+00  0.000000000E+00  2.569393353E+02  2.569393353E+02  0.000000000E+00  0.00000E+00  9.000E+00
      21    -1     0     0   501   502  0.000000000E+00  0.000000000E+00 -6.349977229E+02  6.349977229E+02  0.000000000E+00  0.00000E+00  9.000E+00
      25     1     1     2     0     0 -9.403953891E+01  8.161778237E+01 -3.914702147E+02  4.293935564E+02  1.250000000E+02  0.00000E+00  9.000E+00
      25     1     1     2     0     0  1.124546627E+02 -2.300800773E+02 -6.694502348E+01  2.927277392E+02  1.250000000E+02  0.00000E+00  9.000E+00
      21     1     1     2   512   502 -1.841512377E+01  1.484622949E+02  8.035685057E+01  1.698157626E+02  2.132480600E-06  0.00000E+00  9.000E+00
#rwgt            1           1   3.7890749243512045E-002           9       57095           0
</event>
<event>
      5   9999  3.79277E-02  5.63915E+01 -1.00000E+00  1.36159E-01
       1    -1     0     0   502     0  0.000000000E+00  0.000000000E+00  3.756005845E+03  3.756005845E+03  0.000000000E+00  0.00000E+00  9.000E+00
      21    -1     0     0   501   502  0.000000000E+00  0.000000000E+00 -6.204641892E+01  6.204641892E+01  0.000000000E+00  0.00000E+00  9.000E+00
      25     1     1     2     0     0  1.613512552E+02  1.487177690E+02  1.069370547E+03  1.098785497E+03  1.250000000E+02  0.00000E+00  9.000E+00
      25     1     1     2     0     0 -1.130349303E+02 -1.777959062E+02  2.722115028E+02  3.662135742E+02  1.250000000E+02  0.00000E+00  9.000E+00
       1     1     1     2   501     0 -4.831632492E+01  2.907813717E+01  2.352377377E+03  2.353053193E+03  4.315837288E-05  0.00000E+00  9.000E+00
#rwgt            1           1   4.5932696672278860E-002           9       57152           0
</event>
<event>
      5   9999  3.79277E-02  2.69963E+02 -1.00000E+00  1.07102E-01
      21    -1     0     0   502   501  0.000000000E+00  0.000000000E+00  1.005568421E+03  1.005568421E+03  0.000000000E+00  0.00000E+00  9.000E+00
      21    -1     0     0   511   502  0.000000000E+00  0.000000000E+00 -3.142255515E+02  3.142255515E+02  0.000000000E+00  0.00000E+00  9.000E+00
      25     1     1     2     0     0 -4.140346382E+02  1.096551166E+02  6.252265040E+02  7.681029277E+02  1.250000000E+02  0.00000E+00  9.000E+00
      25     1     1     2     0     0  1.550866077E+02 -1.859825328E+02 -4.830295930E+00  2.725613511E+02  1.250000000E+02  0.00000E+00  9.000E+00
      21     1     1     2   511   501  2.589480305E+02  7.632741621E+01  7.094666094E+01  2.791296933E+02  2.523185073E-06  0.00000E+00  9.000E+00
#rwgt            1           1   5.2509447746972374E-002           9       57265           0
</event>
<event>
      5   9999  3.79277E-02  2.85643E+01 -1.00000E+00  1.54534E-01
      21    -1     0     0   512   501  0.000000000E+00  0.000000000E+00  8.213565439E+02  8.213565439E+02  0.000000000E+00  0.00000E+00  9.000E+00
      21    -1     0     0   501   502  0.000000000E+00  0.000000000E+00 -1.823928040E+02  1.823928040E+02  0.000000000E+00  0.00000E+00  9.000E+00
      25     1     1     2     0     0  3.471593782E+02  2.199866604E+01  3.353744974E+02  4.991038256E+02  1.250000000E+02  0.00000E+00  9.000E+00
      25     1     1     2     0     0 -3.441459224E+02 -5.040356109E+01  2.576108729E+02  4.505166996E+02  1.250000000E+02  0.00000E+00  9.000E+00
      21     1     1     2   512   502 -3.013455867E+00  2.840489505E+01  4.597836958E+01  5.412882272E+01  9.536743164E-07  0.00000E+00  9.000E+00
#rwgt            1           1   3.9610272640853178E-002           9       57331           0
</event>
<event>
      5   9999  3.79277E-02  4.29495E+01 -1.00000E+00  1.42950E-01
      21    -1     0     0   502   511  0.000000000E+00  0.000000000E+00  9.187998110E+01  9.187998110E+01  0.000000000E+00  0.00000E+00  9.000E+00
      21    -1     0     0   501   502  0.000000000E+00  0.000000000E+00 -6.837350969E+02  6.837350969E+02  0.000000000E+00  0.00000E+00  9.000E+00
      25     1     1     2     0     0  1.123964572E+02  4.093636229E+01 -1.096085174E+02  2.048115633E+02  1.250000000E+02  0.00000E+00  9.000E+00
      25     1     1     2     0     0 -7.918532587E+01 -1.370248756E+01 -5.019970572E+02  5.235304379E+02  1.250000000E+02  0.00000E+00  9.000E+00
      21     1     1     2   501   511 -3.321113134E+01 -2.723387474E+01  1.975045875E+01  4.727307689E+01  0.000000000E+00  0.00000E+00  9.000E+00
#rwgt            1           1   4.9824970109284009E-002           9       57501           0
</event>
<event>
      5   9999  3.79277E-02  7.26147E+01 -1.00000E+00  1.30419E-01
       2    -1     0     0   502     0  0.000000000E+00  0.000000000E+00  1.073756600E+03  1.073756600E+03  0.000000000E+00  0.00000E+00  9.000E+00
      21    -1     0     0   501   502  0.000000000E+00  0.000000000E+00 -1.486550271E+02  1.486550271E+02  0.000000000E+00  0.00000E+00  9.000E+00
      25     1     1     2     0     0 -1.245726660E+02  4.652377183E+01 -4.555897944E+01  1.881048406E+02  1.250000000E+02  0.00000E+00  9.000E+00
      25     1     1     2     0     0  1.511107865E+02 -1.141153266E+02  4.068717709E+02  4.658609401E+02  1.250000000E+02  0.00000E+00  9.000E+00
       2     1     1     2   501     0 -2.653812053E+01  6.759155478E+01  5.637887815E+02  5.684458464E+02  1.078959322E-05  0.00000E+00  9.000E+00
#rwgt            1           1   4.1746821131919652E-002           9       57625           0
</event>
<event>
      5   9999  3.79277E-02  9.48449E+00 -1.00000E+00  1.98452E-01
      21    -1     0     0   502   501  0.000000000E+00  0.000000000E+00  6.648523867E+01  6.648523867E+01  0.000000000E+00  0.00000E+00  9.000E+00
      21    -1     0     0   511   502  0.000000000E+00  0.000000000E+00 -7.156408904E+02  7.156408904E+02  0.000000000E+00  0.00000E+00  9.000E+00
      25     1     1     2     0     0 -6.742874818E+01 -9.368693914E+01 -8.604846502E+01  1.906651960E+02  1.250000000E+02  0.00000E+00  9.000E+00
      25     1     1     2     0     0  7.590332095E+01  8.942817274E+01 -5.359240392E+02  5.626706745E+02  1.250000000E+02  0.00000E+00  9.000E+00
      21     1     1     2   511   501 -8.474572771E+00  4.258766400E+00 -2.718314755E+01  2.879025852E+01  4.768371582E-07  0.00000E+00  9.000E+00
#rwgt            1           1   3.7944911952284617E-002           9       57814           0
</event>
<event>
      5   9999  3.79277E-02  6.90572E+00 -1.00000E+00  2.16389E-01
      21    -1     0     0   502   512  0.000000000E+00  0.000000000E+00  2.902336200E+02  2.902336200E+02  0.000000000E+00  0.00000E+00  9.000E+00
      21    -1     0     0   501   502  0.000000000E+00  0.000000000E+00 -2.435498472E+02  2.435498472E+02  0.000000000E+00  0.00000E+00  9.000E+00
      25     1     1     2     0     0 -1.134655257E+02  5.739542214E+01  2.118477489E+02  2.768991310E+02  1.250000000E+02  0.00000E+00  9.000E+00
      25     1     1     2     0     0  1.132056619E+02 -5.049459253E+01 -1.727380539E+02  2.466346712E+02  1.250000000E+02  0.00000E+00  9.000E+00
      21     1     1     2   501   512  2.598638011E-01 -6.900829611E+00  7.574077722E+00  1.024966496E+01  8.429369702E-08  0.00000E+00  9.000E+00
#rwgt            1           1   5.4459769216996620E-002           9       58152           0
</event>
<event>
      5   9999  3.79277E-02  5.58896E+01 -1.00000E+00  1.36371E-01
      21    -1     0     0   502   501  0.000000000E+00  0.000000000E+00  9.426780346E+01  9.426780346E+01  0.000000000E+00  0.00000E+00  9.000E+00
      21    -1     0     0   511   502  0.000000000E+00  0.000000000E+00 -6.594604915E+02  6.594604915E+02  0.000000000E+00  0.00000E+00  9.000E+00
      25     1     1     2     0     0 -1.954697370E+02 -3.167909522E+00 -1.628395543E+02  2.834787014E+02  1.250000000E+02  0.00000E+00  9.000E+00
      25     1     1     2     0     0  1.395808930E+02  3.449236975E+00 -3.037618762E+02  3.569187588E+02  1.250000000E+02  0.00000E+00  9.000E+00
      21     1     1     2   511   501  5.588884400E+01 -2.813274523E-01 -9.859125757E+01  1.133308347E+02  0.000000000E+00  0.00000E+00  9.000E+00
#rwgt            1           1   4.6872501650444473E-002           9       58577           0
</event>
<event>
      5   9999  3.79277E-02  1.50928E+01 -1.00000E+00  1.77132E-01
      21    -1     0     0   512   501  0.000000000E+00  0.000000000E+00  9.748238004E+02  9.748238004E+02  0.000000000E+00  0.00000E+00  9.000E+00
      21    -1     0     0   501   502  0.000000000E+00  0.000000000E+00 -7.009818649E+01  7.009818649E+01  0.000000000E+00  0.00000E+00  9.000E+00
      25     1     1     2     0     0 -1.669565462E+02  9.203120746E+01  6.734064661E+02  7.109469038E+02  1.250000000E+02  0.00000E+00  9.000E+00
      25     1     1     2     0     0  1.688988444E+02 -7.706386588E+01  2.043350509E+02  3.030568793E+02  1.250000000E+02  0.00000E+00  9.000E+00
      21     1     1     2   512   502 -1.942298204E+00 -1.496734158E+01  2.698409689E+01  3.091820372E+01  0.000000000E+00  0.00000E+00  9.000E+00
#rwgt            1           1   3.1255476447492429E-002           9       58685           0
</event>
<event>
      5   9999  3.79277E-02  6.77728E+00 -1.00000E+00  2.17558E-01
      21    -1     0     0   511   501  0.000000000E+00  0.000000000E+00  1.598159475E+02  1.598159475E+02  0.000000000E+00  0.00000E+00  9.000E+00
      21    -1     0     0   501   502  0.000000000E+00  0.000000000E+00 -2.077367188E+02  2.077367188E+02  0.000000000E+00  0.00000E+00  9.000E+00
      25     1     1     2     0     0  5.381156839E+01  7.741110622E+00  8.667480362E+01  1.615336846E+02  1.250000000E+02  0.00000E+00  9.000E+00
      25     1     1     2     0     0 -5.601530088E+01 -1.332127161E+00 -1.410780897E+02  1.966405754E+02  1.250000000E+02  0.00000E+00  9.000E+00
      21     1     1     2   511   502  2.203732488E+00 -6.408983461E+00  6.482514815E+00  9.378406272E+00  1.192092896E-07  0.00000E+00  9.000E+00
#rwgt            1           1   4.9407215418144086E-002           9       58899           0
</event>
<event>
      5   9999  3.79277E-02  1.31952E+01 -1.00000E+00  1.82794E-01
       1    -1     0     0   502     0  0.000000000E+00  0.000000000E+00  3.323026798E+02  3.323026798E+02  0.000000000E+00  0.00000E+00  9.000E+00
      21    -1     0     0   501   502  0.000000000E+00  0.000000000E+00 -1.711904177E+03  1.711904177E+03  0.000000000E+00  0.00000E+00  9.000E+00
      25     1     1     2     0     0  1.299023094E+02  6.569473684E+01 -7.290103478E+02  7.538378444E+02  1.250000000E+02  0.00000E+00  9.000E+00
      25     1     1     2     0     0 -1.383409666E+02 -5.555059365E+01 -9.605882228E+02  9.800912331E+02  1.250000000E+02  0.00000E+00  9.000E+00
       1     1     1     2   501     0  8.438657181E+00 -1.014414320E+01  3.099970736E+02  3.102777791E+02  6.607249480E-06  0.00000E+00  9.000E+00
#rwgt            1           1   3.1942155787344301E-002           9       59243           0
</event>
<event>
      5   9999  3.79277E-02  3.71218E+01 -1.00000E+00  1.46881E-01
      21    -1     0     0   502   501  0.000000000E+00  0.000000000E+00  6.511842688E+02  6.511842688E+02  0.000000000E+00  0.00000E+00  9.000E+00
      21    -1     0     0   501   511  0.000000000E+00  0.000000000E+00 -5.106234096E+01  5.106234096E+01  0.000000000E+00  0.00000E+00  9.000E+00
      25     1     1     2     0     0 -3.497402231E+01  7.358229420E+01  4.461985521E+02  4.704845206E+02  1.250000000E+02  0.00000E+00  9.000E+00
      25     1     1     2     0     0  5.783373603E+00 -5.064912275E+01  1.311420142E+02  1.882073562E+02  1.250000000E+02  0.00000E+00  9.000E+00
      21     1     1     2   502   511  2.919064871E+01 -2.293317145E+01  2.278136153E+01  4.355473290E+01  1.066240300E-06  0.00000E+00  9.000E+00
#rwgt            1           1   4.6385663029063245E-002           9       59446           0
</event>
<event>
      5   9999  3.79277E-02  4.43671E+01 -1.00000E+00  1.42103E-01
      21    -1     0     0   502   501  0.000000000E+00  0.000000000E+00  9.954759874E+02  9.954759874E+02  0.000000000E+00  0.00000E+00  9.000E+00
      21    -1     0     0   501   512  0.000000000E+00  0.000000000E+00 -1.760728663E+02  1.760728663E+02  0.000000000E+00  0.00000E+00  9.000E+00
      25     1     1     2     0     0  8.465146669E+01  2.636110111E+02  6.341875474E+02  7.031895059E+02  1.250000000E+02  0.00000E+00  9.000E+00
      25     1     1     2     0     0 -1.063978784E+02 -2.249388937E+02  2.602774159E+02  3.811657745E+02  1.250000000E+02  0.00000E+00  9.000E+00
      21     1     1     2   502   512  2.174641174E+01 -3.867211739E+01 -7.506184214E+01  8.719357334E+01  9.536743164E-07  0.00000E+00  9.000E+00
#rwgt            1           1   2.2203359929894931E-002           9       59666           0
</event>
<event>
      5   9999  3.79277E-02  2.22753E+01 -1.00000E+00  1.62599E-01
      21    -1     0     0   511   501  0.000000000E+00  0.000000000E+00  1.353288793E+02  1.353288793E+02  0.000000000E+00  0.00000E+00  9.000E+00
      21    -1     0     0   501   502  0.000000000E+00  0.000000000E+00 -4.105826342E+02  4.105826342E+02  0.000000000E+00  0.00000E+00  9.000E+00
      25     1     1     2     0     0 -6.959655788E+01  2.089680421E+01 -2.946985855E+02  3.282569323E+02  1.250000000E+02  0.00000E+00  9.000E+00
      25     1     1     2     0     0  9.160880323E+01 -2.431013356E+01 -3.332976416E+01  1.603715330E+02  1.250000000E+02  0.00000E+00  9.000E+00
      21     1     1     2   511   502 -2.201224536E+01  3.413329345E+00  5.277459479E+01  5.728304826E+01  9.536743164E-07  0.00000E+00  9.000E+00
#rwgt            1           1   4.9356250869057143E-002           9       59783           0
</event>
<event>
      5   9999  3.79277E-02  2.15077E+01 -1.00000E+00  1.63806E-01
      21    -1     0     0   502   501  0.000000000E+00  0.000000000E+00  1.806352536E+02  1.806352536E+02  0.000000000E+00  0.00000E+00  9.000E+00
      -1    -1     0     0     0   502  0.000000000E+00  0.000000000E+00 -4.656905769E+02  4.656905769E+02  0.000000000E+00  0.00000E+00  9.000E+00
      25     1     1     2     0     0 -1.181278234E+02 -9.173296292E+00  8.125323217E+01  1.904348177E+02  1.250000000E+02  0.00000E+00  9.000E+00
      25     1     1     2     0     0  1.141708432E+02 -1.196727533E+01 -1.181242878E+02  2.067765569E+02  1.250000000E+02  0.00000E+00  9.000E+00
      -1     1     1     2     0   501  3.956980238E+00  2.114057163E+01 -2.481842676E+02  2.491144560E+02  0.000000000E+00  0.00000E+00  9.000E+00
#rwgt            1           1   4.7839412183335275E-002           9       59897           0
</event>
<event>
      5   9999  3.79277E-02  9.60096E+01 -1.00000E+00  1.24629E-01
      21    -1     0     0   502   501  0.000000000E+00  0.000000000E+00  5.126551438E+01  5.126551438E+01  0.000000000E+00  0.00000E+00  9.000E+00
       1    -1     0     0   501     0  0.000000000E+00  0.000000000E+00 -1.384019776E+03  1.384019776E+03  0.000000000E+00  0.00000E+00  9.000E+00
      25     1     1     2     0     0  1.161201715E+02  1.655148841E+02 -6.496413649E+02  6.917643920E+02  1.250000000E+02  0.00000E+00  9.000E+00
      25     1     1     2     0     0 -1.349035076E+02 -7.136059461E+01 -4.745710583E+02  5.139396659E+02  1.250000000E+02  0.00000E+00  9.000E+00
       1     1     1     2   502     0  1.878333608E+01 -9.415428945E+01 -2.085418390E+02  2.295812330E+02  2.697398305E-06  0.00000E+00  9.000E+00
#rwgt            1           1   6.3945369724217965E-002           9       60172           0
</event>
<event>
      5   9999  3.79277E-02  4.96156E+01 -1.00000E+00  1.39267E-01
      21    -1     0     0   502   501  0.000000000E+00  0.000000000E+00  1.678843674E+02  1.678843674E+02  0.000000000E+00  0.00000E+00  9.000E+00
      21    -1     0     0   501   511  0.000000000E+00  0.000000000E+00 -4.729303769E+02  4.729303769E+02  0.000000000E+00  0.00000E+00  9.000E+00
      25     1     1     2     0     0 -4.553005694E+01 -1.317024405E+02 -1.775865758E+02  2.580319958E+02  1.250000000E+02  0.00000E+00  9.000E+00
      25     1     1     2     0     0  2.001993112E+01  1.742576156E+02  3.020617091E+01  2.174946597E+02  1.250000000E+02  0.00000E+00  9.000E+00
      21     1     1     2   502   511  2.551012582E+01 -4.255517506E+01 -1.576656046E+02  1.652880888E+02  2.697398305E-06  0.00000E+00  9.000E+00
#rwgt            1           1   3.4163967823003065E-002           9       60249           0
</event>
<event>
      5   9999  3.79277E-02  1.63963E+01 -1.00000E+00  1.73818E-01
       2    -1     0     0   502     0  0.000000000E+00  0.000000000E+00  1.461806977E+02  1.461806977E+02  0.000000000E+00  0.00000E+00  9.000E+00
      21    -1     0     0   501   502  0.000000000E+00  0.000000000E+00 -3.512640531E+02  3.512640531E+02  0.000000000E+00  0.00000E+00  9.000E+00
      25     1     1     2     0     0 -8.385838329E+01 -7.177455151E+01  2.466519994E+01  1.685739801E+02  1.250000000E+02  0.00000E+00  9.000E+00
      25     1     1     2     0     0  8.368009669E+01  5.537921648E+01 -2.535492176E+02  2.999690350E+02  1.250000000E+02  0.00000E+00  9.000E+00
       2     1     1     2   501     0  1.782866039E-01  1.639533503E+01  2.380066228E+01  2.890173561E+01  3.371747881E-07  0.00000E+00  9.000E+00
#rwgt            1           1   4.2570830058350620E-002           9       60337           0
</event>
<event>
      5   9999  3.79277E-02  4.17125E+01 -1.00000E+00  1.43720E-01
      21    -1     0     0   502   501  0.000000000E+00  0.000000000E+00  2.941354939E+02  2.941354939E+02  0.000000000E+00  0.00000E+00  9.000E+00
      21    -1     0     0   511   502  0.000000000E+00  0.000000000E+00 -1.737982043E+02  1.737982043E+02  0.000000000E+00  0.00000E+00  9.000E+00
      25     1     1     2     0     0  2.910775168E+01  1.439045568E+02  1.318571301E+02  2.335959876E+02  1.250000000E+02  0.00000E+00  9.000E+00
      25     1     1     2     0     0 -5.030186817E+01 -1.079776873E+02  3.025955156E+01  1.753000267E+02  1.250000000E+02  0.00000E+00  9.000E+00
      21     1     1     2   511   501  2.119411649E+01 -3.592686951E+01 -4.177939205E+01  5.903768395E+01  1.066240300E-06  0.00000E+00  9.000E+00
#rwgt            1           1   4.9013664860522138E-002           9       60598           0
</event>
<event>
      5   9999  3.79277E-02  9.81008E+01 -1.00000E+00  1.24204E-01
      21    -1     0     0   502   501  0.000000000E+00  0.000000000E+00  3.744917026E+01  3.744917026E+01  0.000000000E+00  0.00000E+00  9.000E+00
      21    -1     0     0   512   502  0.000000000E+00  0.000000000E+00 -1.462854159E+03  1.462854159E+03  0.000000000E+00  0.00000E+00  9.000E+00
      25     1     1     2     0     0  1.058711507E+02 -7.550965231E+00 -2.317608788E+02  2.839081235E+02  1.250000000E+02  0.00000E+00  9.000E+00
      25     1     1     2     0     0 -1.911107477E+01 -3.823609134E+01 -7.921297630E+02  8.030702293E+02  1.250000000E+02  0.00000E+00  9.000E+00
      21     1     1     2   512   501 -8.676007596E+01  4.578705657E+01 -4.015143469E+02  4.133249764E+02  5.394796609E-06  0.00000E+00  9.000E+00
#rwgt            1           1   3.7127675165932530E-002           9       60756           0
</event>
<event>
      5   9999  3.79277E-02  2.68615E+02 -1.00000E+00  1.07175E-01
      21    -1     0     0   502   501  0.000000000E+00  0.000000000E+00  1.393012474E+03  1.393012474E+03  0.000000000E+00  0.00000E+00  9.000E+00
       3    -1     0     0   501     0  0.000000000E+00  0.000000000E+00 -4.549966853E+02  4.549966853E+02  0.000000000E+00  0.00000E+00  9.000E+00
      25     1     1     2     0     0 -2.109842195E+02 -2.218886110E+02 -3.183122443E+01  3.322455770E+02  1.250000000E+02  0.00000E+00  9.000E+00
      25     1     1     2     0     0  1.977800332E+02 -4.640196885E+01  1.161530171E+03  1.185768706E+03  1.250000000E+02  0.00000E+00  9.000E+00
       3     1     1     2   502     0  1.320418630E+01  2.682905798E+02 -1.916831580E+02  3.299948769E+02  6.607249480E-06  0.00000E+00  9.000E+00
#rwgt            2          14   3.4692057039912919E-005           9       60861           0
</event>
<event>
      5   9999  3.79277E-02  5.53394E+01 -1.00000E+00  1.36607E-01
      21    -1     0     0   502   501  0.000000000E+00  0.000000000E+00  1.338419640E+02  1.338419640E+02  0.000000000E+00  0.00000E+00  9.000E+00
      21    -1     0     0   501   511  0.000000000E+00  0.000000000E+00 -1.754232455E+03  1.754232455E+03  0.000000000E+00  0.00000E+00  9.000E+00
      25     1     1     2     0     0 -1.293888839E+02 -1.010055832E+02 -2.186294686E+01  2.074767446E+02  1.250000000E+02  0.00000E+00  9.000E+00
      25     1     1     2     0     0  1.504713118E+02  1.521718328E+02 -3.394080827E+02  4.202626904E+02  1.250000000E+02  0.00000E+00  9.000E+00
      21     1     1     2   502   511 -2.108242790E+01 -5.116624952E+01 -1.259119461E+03  1.260334984E+03  2.157918644E-05  0.00000E+00  9.000E+00
#rwgt            1           1   3.5534882996505195E-002           9       60940           0
</event>
<event>
      5   9999  3.79277E-02  5.74240E+01 -1.00000E+00  1.35730E-01
      21    -1     0     0   502   501  0.000000000E+00  0.000000000E+00  5.457289384E+01  5.457289384E+01  0.000000000E+00  0.00000E+00  9.000E+00
       1    -1     0     0   501     0  0.000000000E+00  0.000000000E+00 -2.062403590E+03  2.062403590E+03  0.000000000E+00  0.00000E+00  9.000E+00
      25     1     1     2     0     0 -3.230672274E+01  1.493950054E+02 -3.243429898E+02  3.797182732E+02  1.250000000E+02  0.00000E+00  9.000E+00
      25     1     1     2     0     0  2.543871036E+01 -9.238315322E+01 -2.092442199E+02  2.618967707E+02  1.250000000E+02  0.00000E+00  9.000E+00
       1     1     1     2   502     0  6.868012381E+00 -5.701185213E+01 -1.474243486E+03  1.475361439E+03  2.157918644E-05  0.00000E+00  9.000E+00
#rwgt            1           1   3.6796700831387863E-002           9       61061           0
</event>
<event>
      5   9999 -3.79277E-02  1.33245E+02 -1.00000E+00  1.18469E-01
      21    -1     0     0   502   501  0.000000000E+00  0.000000000E+00  2.692039707E+02  2.692039707E+02  0.000000000E+00  0.00000E+00  9.000E+00
      21    -1     0     0   501   511  0.000000000E+00  0.000000000E+00 -5.452925311E+02  5.452925311E+02  0.000000000E+00  0.00000E+00  9.000E+00
      25     1     1     2     0     0 -2.166920177E+02  2.697621746E+02 -9.989867384E+01  3.812240895E+02  1.250000000E+02  0.00000E+00  9.000E+00
      25     1     1     2     0     0  1.071354880E+02 -1.939234006E+02 -7.271825959E+01  2.645699215E+02  1.250000000E+02  0.00000E+00  9.000E+00
      21     1     1     2   502   511  1.095565297E+02 -7.583877401E+01 -1.034716270E+02  1.687024909E+02  2.336015456E-06  0.00000E+00  9.000E+00
#rwgt            1           1  -7.2016505155996433E-002           9       61129           0
</event>
<event>
      5   9999  3.79277E-02  3.64061E+01 -1.00000E+00  1.47422E-01
      21    -1     0     0   502   512  0.000000000E+00  0.000000000E+00  9.839037982E+01  9.839037982E+01  0.000000000E+00  0.00000E+00  9.000E+00
      21    -1     0     0   501   502  0.000000000E+00  0.000000000E+00 -1.171909713E+03  1.171909713E+03  0.000000000E+00  0.00000E+00  9.000E+00
      25     1     1     2     0     0 -2.019888115E+02 -1.721766497E+02 -4.233521804E+02  5.150692646E+02  1.250000000E+02  0.00000E+00  9.000E+00
      25     1     1     2     0     0  2.369469173E+02  1.620113879E+02 -6.469022145E+02  7.186786532E+02  1.250000000E+02  0.00000E+00  9.000E+00
      21     1     1     2   501   512 -3.495810574E+01  1.016526185E+01 -3.264938693E+00  3.655217545E+01  6.835070217E-07  0.00000E+00  9.000E+00
#rwgt            1           1   3.0618491396920380E-002           9       61211           0
</event>
<event>
      5   9999  3.79277E-02  4.99007E+01 -1.00000E+00  1.39125E-01
      21    -1     0     0   502   501  0.000000000E+00  0.000000000E+00  2.259981569E+02  2.259981569E+02  0.000000000E+00  0.00000E+00  9.000E+00
      21    -1     0     0   501   511  0.000000000E+00  0.000000000E+00 -7.012959015E+02  7.012959015E+02  0.000000000E+00  0.00000E+00  9.000E+00
      25     1     1     2     0     0 -2.109998695E+02 -3.910201410E+01 -8.788105642E+01  2.634349872E+02  1.250000000E+02  0.00000E+00  9.000E+00
      25     1     1     2     0     0  2.257036451E+02  8.678718967E+01  1.036813690E+00  2.722135682E+02  1.250000000E+02  0.00000E+00  9.000E+00
      21     1     1     2   502   511 -1.470377567E+01 -4.768517557E+01 -3.884535019E+02  3.916455031E+02  5.394796609E-06  0.00000E+00  9.000E+00
#rwgt            1           1   8.5974881033326692E-002           9       61629           0
</event>
<event>
      5   9999  3.79277E-02  3.42557E+02 -1.00000E+00  1.03753E-01
      21    -1     0     0   502   501  0.000000000E+00  0.000000000E+00  5.600725224E+02  5.600725224E+02  0.000000000E+00  0.00000E+00  9.000E+00
      21    -1     0     0   501   512  0.000000000E+00  0.000000000E+00 -7.262750471E+02  7.262750471E+02  0.000000000E+00  0.00000E+00  9.000E+00
      25     1     1     2     0     0  2.475424590E+02  1.035621872E+02  1.231792708E+02  3.206252148E+02  1.250000000E+02  0.00000E+00  9.000E+00
      25     1     1     2     0     0  1.320438026E+01 -3.257247930E+02  1.735012427E+02  3.898700779E+02  1.250000000E+02  0.00000E+00  9.000E+00
      21     1     1     2   502   512 -2.607468392E+02  2.221626058E+02 -4.628830382E+02  5.758522767E+02  0.000000000E+00  0.00000E+00  9.000E+00
#rwgt            1           1   3.4258807782141028E-002           9       61755           0
</event>
<event>
      5   9999 -3.79277E-02  7.49945E+01 -1.00000E+00  1.29723E-01
      21    -1     0     0   502   501  0.000000000E+00  0.000000000E+00  1.322141393E+03  1.322141393E+03  0.000000000E+00  0.00000E+00  9.000E+00
      21    -1     0     0   501   511  0.000000000E+00  0.000000000E+00 -1.744013314E+03  1.744013314E+03  0.000000000E+00  0.00000E+00  9.000E+00
      25     1     1     2     0     0 -6.352699149E+01  1.846240247E+02  3.523190772E+02  4.217528201E+02  1.250000000E+02  0.00000E+00  9.000E+00
      25     1     1     2     0     0 -9.113981556E+00 -1.659837290E+02  9.227018154E+02  9.458526857E+02  1.250000000E+02  0.00000E+00  9.000E+00
      21     1     1     2   502   511  7.264097305E+01 -1.864029560E+01 -1.696892813E+03  1.698549202E+03  0.000000000E+00  0.00000E+00  9.000E+00
#rwgt            1           1 -0.10779037883454722                9       61812           0
</event>
<event>
      5   9999  3.79277E-02  2.53361E+01 -1.00000E+00  1.58318E-01
      21    -1     0     0   502   501  0.000000000E+00  0.000000000E+00  1.986193744E+02  1.986193744E+02  0.000000000E+00  0.00000E+00  9.000E+00
      21    -1     0     0   512   502  0.000000000E+00  0.000000000E+00 -4.266564850E+02  4.266564850E+02  0.000000000E+00  0.00000E+00  9.000E+00
      25     1     1     2     0     0 -1.342844470E+02 -7.286494544E+01  1.050860306E+02  2.236284570E+02  1.250000000E+02  0.00000E+00  9.000E+00
      25     1     1     2     0     0  1.219592064E+02  9.500098524E+01 -3.011282171E+02  3.608357499E+02  1.250000000E+02  0.00000E+00  9.000E+00
      21     1     1     2   512   501  1.232524060E+01 -2.213603980E+01 -3.199492411E+01  4.081165254E+01  3.371747881E-07  0.00000E+00  9.000E+00
#rwgt            1           1  0.14051184259668004                9       61949           0
</event>
<event>
      5   9999  3.79277E-02  3.27735E+01 -1.00000E+00  1.50420E-01
       1    -1     0     0   502     0  0.000000000E+00  0.000000000E+00  1.232475135E+03  1.232475135E+03  0.000000000E+00  0.00000E+00  9.000E+00
      21    -1     0     0   501   502  0.000000000E+00  0.000000000E+00 -3.777441842E+02  3.777441842E+02  0.000000000E+00  0.00000E+00  9.000E+00
      25     1     1     2     0     0  4.508371501E+01  2.227943812E+02 -1.992875356E+02  3.271244404E+02  1.250000000E+02  0.00000E+00  9.000E+00
      25     1     1     2     0     0 -7.641542212E+01 -2.324081308E+02  5.085907696E+01  2.794002536E+02  1.250000000E+02  0.00000E+00  9.000E+00
       1     1     1     2   501     0  3.133170712E+01  9.613749634E+00  1.003159410E+03  1.003694626E+03  1.525878906E-05  0.00000E+00  9.000E+00
#rwgt            1           1   3.4830088678263545E-002           9       62121           0
</event>
<event>
      5   9999  3.79277E-02  7.79012E+01 -1.00000E+00  1.28911E-01
      21    -1     0     0   502   501  0.000000000E+00  0.000000000E+00  1.540277103E+02  1.540277103E+02  0.000000000E+00  0.00000E+00  9.000E+00
       2    -1     0     0   501     0  0.000000000E+00  0.000000000E+00 -2.643111367E+03  2.643111367E+03  0.000000000E+00  0.00000E+00  9.000E+00
      25     1     1     2     0     0 -3.515936054E+01  1.257404735E+01  8.049741087E+01  1.532942284E+02  1.250000000E+02  0.00000E+00  9.000E+00
      25     1     1     2     0     0  1.086372645E+02 -3.845065576E+01 -1.614698363E+02  2.344739137E+02  1.250000000E+02  0.00000E+00  9.000E+00
       2     1     1     2   502     0 -7.347790392E+01  2.587660840E+01 -2.408111231E+03  2.409370935E+03  4.315837288E-05  0.00000E+00  9.000E+00
#rwgt            1           1   3.9554656579804733E-002           9       62303           0
</event>
<event>
      5   9999  3.79277E-02  6.76384E+00 -1.00000E+00  2.17682E-01
      21    -1     0     0   502   511  0.000000000E+00  0.000000000E+00  1.692855522E+02  1.692855522E+02  0.000000000E+00  0.00000E+00  9.000E+00
      21    -1     0     0   501   502  0.000000000E+00  0.000000000E+00 -3.743564250E+02  3.743564250E+02  0.000000000E+00  0.00000E+00  9.000E+00
      25     1     1     2     0     0  4.439560297E+01  1.249972009E+02  7.949107066E+01  1.988444118E+02  1.250000000E+02  0.00000E+00  9.000E+00
      25     1     1     2     0     0 -4.097004336E+01 -1.308294467E+02 -2.820187194E+02  3.375713949E+02  1.250000000E+02  0.00000E+00  9.000E+00
      21     1     1     2   501   511 -3.425559617E+00  5.832245865E+00 -2.543224088E+00  7.226170444E+00  1.429269172E-07  0.00000E+00  9.000E+00
#rwgt            1           1   4.8675097915844054E-002           9       62450           0
</event>
<event>
      5   9999  3.79277E-02  1.03645E+01 -1.00000E+00  1.93977E-01
      21    -1     0     0   502   501  0.000000000E+00  0.000000000E+00  1.099458834E+02  1.099458834E+02  0.000000000E+00  0.00000E+00  9.000E+00
      21    -1     0     0   512   502  0.000000000E+00  0.000000000E+00 -9.358967871E+02  9.358967871E+02  0.000000000E+00  0.00000E+00  9.000E+00
      25     1     1     2     0     0  8.674414677E+01  1.042167403E+02  5.708521441E+00  1.845081656E+02  1.250000000E+02  0.00000E+00  9.000E+00
      25     1     1     2     0     0 -8.949060806E+01 -9.422278655E+01 -5.364226658E+02  5.659158761E+02  1.250000000E+02  0.00000E+00  9.000E+00
      21     1     1     2   512   501  2.746461281E+00 -9.993953745E+00 -2.952367593E+02  2.954186288E+02  3.814697266E-06  0.00000E+00  9.000E+00
#rwgt            1           1   5.5533038606476959E-002           9       62861           0
</event>
<event>
      5   9999  3.79277E-02  2.76499E+01 -1.00000E+00  1.55542E-01
      21    -1     0     0   502   511  0.000000000E+00  0.000000000E+00  1.922746291E+03  1.922746291E+03  0.000000000E+00  0.00000E+00  9.000E+00
      21    -1     0     0   501   502  0.000000000E+00  0.000000000E+00 -2.567960468E+01  2.567960468E+01  0.000000000E+00  0.00000E+00  9.000E+00
      25     1     1     2     0     0 -4.485289287E+00  1.270892312E+02  1.115721643E+03  1.129881222E+03  1.250000000E+02  0.00000E+00  9.000E+00
      25     1     1     2     0     0  3.070667987E+01 -1.183166799E+02  4.042469915E+02  4.404342937E+02  1.250000000E+02  0.00000E+00  9.000E+00
      21     1     1     2   501   511 -2.622139058E+01 -8.772551247E+00  3.770980515E+02  3.781103799E+02  5.394796609E-06  0.00000E+00  9.000E+00
#rwgt            1           1   4.8028560284761754E-002           9       63120           0
</event>
<event>
      5   9999  3.79277E-02  6.06403E+00 -1.00000E+00  2.24758E-01
      21    -1     0     0   512   501  0.000000000E+00  0.000000000E+00  3.618042433E+02  3.618042433E+02  0.000000000E+00  0.00000E+00  9.000E+00
      21    -1     0     0   501   502  0.000000000E+00  0.000000000E+00 -1.613913546E+02  1.613913546E+02  0.000000000E+00  0.00000E+00  9.000E+00
      25     1     1     2     0     0  6.702504418E+00  1.796184707E+02  5.164225330E+01  2.249436394E+02  1.250000000E+02  0.00000E+00  9.000E+00
      25     1     1     2     0     0 -1.026462589E+01 -1.845259874E+02  9.229380955E+01  2.414505122E+02  1.250000000E+02  0.00000E+00  9.000E+00
      21     1     1     2   512   502  3.562121476E+00  4.907516713E+00  5.647682584E+01  5.680144617E+01  9.536743164E-07  0.00000E+00  9.000E+00
#rwgt            1           1   3.6858959393203078E-002           9       63418           0
</event>
<event>
      5   9999  3.79277E-02  5.64587E+01 -1.00000E+00  1.36131E-01
      21    -1     0     0   502   501  0.000000000E+00  0.000000000E+00  1.068291795E+03  1.068291795E+03  0.000000000E+00  0.00000E+00  9.000E+00
      21    -1     0     0   511   502  0.000000000E+00  0.000000000E+00 -1.085238928E+02  1.085238928E+02  0.000000000E+00  0.00000E+00  9.000E+00
      25     1     1     2     0     0  1.343651123E+02  3.759216834E+01  5.484768794E+01  1.951932975E+02  1.250000000E+02  0.00000E+00  9.000E+00
      25     1     1     2     0     0 -1.712844529E+02  5.122509104E+00  9.003297184E+02  9.249774082E+02  1.250000000E+02  0.00000E+00  9.000E+00
      21     1     1     2   511   501  3.691934059E+01 -4.271467744E+01  4.590496117E+00  5.664498241E+01  5.900558792E-07  0.00000E+00  9.000E+00
#rwgt            2          11   2.5024652161680519E-003           9       64022           0
</event>
<event>
      5   9999  3.79277E-02  5.03038E+01 -1.00000E+00  1.38926E-01
      21    -1     0     0   502   501  0.000000000E+00  0.000000000E+00  1.502814513E+02  1.502814513E+02  0.000000000E+00  0.00000E+00  9.000E+00
       1    -1     0     0   501     0  0.000000000E+00  0.000000000E+00 -9.433227483E+02  9.433227483E+02  0.000000000E+00  0.00000E+00  9.000E+00
      25     1     1     2     0     0  7.099844855E+01  4.720215645E+01  7.077071749E+01  1.670398687E+02  1.250000000E+02  0.00000E+00  9.000E+00
      25     1     1     2     0     0 -1.014906117E+02 -8.721096920E+01 -2.458110825E+02  3.065194703E+02  1.250000000E+02  0.00000E+00  9.000E+00
       1     1     1     2   502     0  3.049216315E+01  4.000881275E+01 -6.180009320E+02  6.200448606E+02  7.629394531E-06  0.00000E+00  9.000E+00
#rwgt            1           1   3.0611585480746283E-002           9       64282           0
</event>
<event>
      5   9999  3.79277E-02  1.41147E+01 -1.00000E+00  1.79909E-01
      21    -1     0     0   502   511  0.000000000E+00  0.000000000E+00  7.218915947E+02  7.218915947E+02  0.000000000E+00  0.00000E+00  9.000E+00
      21    -1     0     0   501   502  0.000000000E+00  0.000000000E+00 -1.956621743E+02  1.956621743E+02  0.000000000E+00  0.00000E+00  9.000E+00
      25     1     1     2     0     0 -1.131712957E+02  3.888483235E+01  4.972772226E+02  5.265257908E+02  1.250000000E+02  0.00000E+00  9.000E+00
      25     1     1     2     0     0  9.910971576E+01 -4.010866108E+01 -1.433266563E+02  2.181718837E+02  1.250000000E+02  0.00000E+00  9.000E+00
      21     1     1     2   501   511  1.406157993E+01  1.223828736E+00  1.722788542E+02  1.728560944E+02  1.907348633E-06  0.00000E+00  9.000E+00
#rwgt            1           1   3.3874076378275254E-002           9       64528           0
</event>
<event>
      5   9999  3.79277E-02  9.33017E+00 -1.00000E+00  1.99304E-01
      21    -1     0     0   502   512  0.000000000E+00  0.000000000E+00  5.043788762E+02  5.043788762E+02  0.000000000E+00  0.00000E+00  9.000E+00
      21    -1     0     0   501   502  0.000000000E+00  0.000000000E+00 -1.018044475E+02  1.018044475E+02  0.000000000E+00  0.00000E+00  9.000E+00
      25     1     1     2     0     0  1.001450262E+02 -1.376677513E+02  1.995740420E+02  2.905791360E+02  1.250000000E+02  0.00000E+00  9.000E+00
      25     1     1     2     0     0 -9.847387446E+01  1.284884663E+02  1.307387112E+02  2.427426632E+02  1.250000000E+02  0.00000E+00  9.000E+00
      21     1     1     2   501   512 -1.671151705E+00  9.179285034E+00  7.226167548E+01  7.286152458E+01  9.536743164E-07  0.00000E+00  9.000E+00
#rwgt            1           1   3.3819805286840421E-002           9       64820           0
</event>
<event>
      5   9999 -3.79277E-02  2.71494E+01 -1.00000E+00  1.56114E-01
      21    -1     0     0   502   501  0.000000000E+00  0.000000000E+00  1.157614701E+03  1.157614701E+03  0.000000000E+00  0.00000E+00  9.000E+00
      21    -1     0     0   511   502  0.000000000E+00  0.000000000E+00 -1.223796029E+02  1.223796029E+02  0.000000000E+00  0.00000E+00  9.000E+00
      25     1     1     2     0     0  1.178680884E+02 -1.432185864E+02  8.120328901E+02  8.422748152E+02  1.250000000E+02  0.00000E+00  9.000E+00
      25     1     1     2     0     0 -9.260043935E+01  1.332869839E+02  2.960283616E+02  3.599972948E+02  1.250000000E+02  0.00000E+00  9.000E+00
      21     1     1     2   511   501 -2.526764904E+01  9.931602485E+00 -7.282615346E+01  7.772219402E+01  2.697398305E-06  0.00000E+00  9.000E+00
#rwgt            1           1 -0.32079533496821239                9       65032           0
</event>
<event>
      5   9999  3.79277E-02  6.95890E+01 -1.00000E+00  1.31350E-01
      21    -1     0     0   502   501  0.000000000E+00  0.000000000E+00  2.463507314E+02  2.463507314E+02  0.000000000E+00  0.00000E+00  9.000E+00
      21    -1     0     0   501   512  0.000000000E+00  0.000000000E+00 -2.915107609E+02  2.915107609E+02  0.000000000E+00  0.00000E+00  9.000E+00
      25     1     1     2     0     0 -1.070520206E+02  1.273725717E+02 -1.974742060E+01  2.090427414E+02  1.250000000E+02  0.00000E+00  9.000E+00
      25     1     1     2     0     0  9.388390516E+01 -1.957043692E+02  1.012060323E+01  2.506826966E+02  1.250000000E+02  0.00000E+00  9.000E+00
      21     1     1     2   502   512  1.316811542E+01  6.833179750E+01 -3.553321205E+01  7.813605424E+01  1.168007728E-06  0.00000E+00  9.000E+00
#rwgt            1           1   4.4948902557506047E-002           9       65197           0
</event>
<event>
      5   9999  3.79277E-02  1.19381E+01 -1.00000E+00  1.87264E-01
      21    -1     0     0   511   501  0.000000000E+00  0.000000000E+00  3.059018990E+02  3.059018990E+02  0.000000000E+00  0.00000E+00  9.000E+00
      21    -1     0     0   501   502  0.000000000E+00  0.000000000E+00 -3.701810618E+02  3.701810618E+02  0.000000000E+00  0.00000E+00  9.000E+00
      25     1     1     2     0     0  2.855051323E+02 -2.274640152E+01  3.759571349E+01  3.147523106E+02  1.250000000E+02  0.00000E+00  9.000E+00
      25     1     1     2     0     0 -2.914416931E+02  3.310379368E+01 -1.191123414E+02  3.403628527E+02  1.250000000E+02  0.00000E+00  9.000E+00
      21     1     1     2   511   502  5.936560715E+00 -1.035739216E+01  1.723746515E+01  2.096779746E+01  3.371747881E-07  0.00000E+00  9.000E+00
#rwgt            1           1  0.11925523835951686                9       65328           0
</event>
<event>
      5   9999  3.79277E-02  1.26914E+02 -1.00000E+00  1.19345E-01
      21    -1     0     0   502   501  0.000000000E+00  0.000000000E+00  7.615089143E+02  7.615089143E+02  0.000000000E+00  0.00000E+00  9.000E+00
      21    -1     0     0   501   512  0.000000000E+00  0.000000000E+00 -3.508617354E+02  3.508617354E+02  0.000000000E+00  0.00000E+00  9.000E+00
      25     1     1     2     0     0  2.957382825E+02 -6.696297851E+01  2.681910844E+02  4.236704262E+02  1.250000000E+02  0.00000E+00  9.000E+00
      25     1     1     2     0     0 -2.738483164E+02  1.919754350E+02  3.138943245E+02  4.753967974E+02  1.250000000E+02  0.00000E+00  9.000E+00
      21     1     1     2   502   512 -2.188996617E+01 -1.250124565E+02 -1.714382300E+02  2.133034261E+02  1.907348633E-06  0.00000E+00  9.000E+00
#rwgt            1           1   4.2830071796451721E-002           9       65715           0
</event>
<event>
      5   9999  3.79277E-02  6.01680E+01 -1.00000E+00  1.34639E-01
      21    -1     0     0   502   501  0.000000000E+00  0.000000000E+00  2.161595532E+02  2.161595532E+02  0.000000000E+00  0.00000E+00  9.000E+00
      21    -1     0     0   511   502  0.000000000E+00  0.000000000E+00 -5.871860891E+02  5.871860891E+02  0.000000000E+00  0.00000E+00  9.000E+00
      25     1     1     2     0     0 -5.611738139E+01  3.640378720E+01 -1.339114321E+02  1.950170963E+02  1.250000000E+02  0.00000E+00  9.000E+00
      25     1     1     2     0     0  8.987429619E+01 -8.620999215E+01  1.407455721E+02  2.257074831E+02  1.250000000E+02  0.00000E+00  9.000E+00
      21     1     1     2   511   501 -3.375691480E+01  4.980620495E+01 -3.778606759E+02  3.826210629E+02  5.394796609E-06  0.00000E+00  9.000E+00
#rwgt            1           1   3.8644126386724077E-002           9       65813           0
</event>
<event>
      5   9999 -3.79277E-02  6.45394E+01 -1.00000E+00  1.33032E-01
      21    -1     0     0   502   501  0.000000000E+00  0.000000000E+00  1.772301938E+02  1.772301938E+02  0.000000000E+00  0.00000E+00  9.000E+00
      21    -1     0     0   512   502  0.000000000E+00  0.000000000E+00 -6.571821843E+02  6.571821843E+02  0.000000000E+00  0.00000E+00  9.000E+00
      25     1     1     2     0     0 -4.877516260E+01  2.453218315E+02 -1.470884815E+02  3.159459430E+02  1.250000000E+02  0.00000E+00  9.000E+00
      25     1     1     2     0     0  9.715259324E+00 -2.966994144E+02 -2.254809191E+02  3.931813495E+02  1.250000000E+02  0.00000E+00  9.000E+00
      21     1     1     2   512   501  3.905990327E+01  5.137758286E+01 -1.073825899E+02  1.252850856E+02  1.907348633E-06  0.00000E+00  9.000E+00
#rwgt            1           1  -8.6758256179466836E-002           9       65901           0
</event>
<event>
      5   9999  3.79277E-02  1.11290E+01 -1.00000E+00  1.90536E-01
      21    -1     0     0   502   501  0.000000000E+00  0.000000000E+00  1.155385999E+02  1.155385999E+02  0.000000000E+00  0.00000E+00  9.000E+00
      21    -1     0     0   511   502  0.000000000E+00  0.000000000E+00 -3.756775988E+02  3.756775988E+02  0.000000000E+00  0.00000E+00  9.000E+00
      25     1     1     2     0     0 -1.127448122E+02  7.294220359E+01 -2.172913859E+02  2.843809138E+02  1.250000000E+02  0.00000E+00  9.000E+00
      25     1     1     2     0     0  1.118019037E+02 -6.185325093E+01 -1.805145517E+01  1.796561865E+02  1.250000000E+02  0.00000E+00  9.000E+00
      21     1     1     2   511   501  9.429084731E-01 -1.108895267E+01 -2.479615786E+01  2.717909844E+01  4.768371582E-07  0.00000E+00  9.000E+00
#rwgt            1           1   6.0250762884850199E-002           9       66067           0
</event>
<event>
      5   9999  3.79277E-02  2.14309E+01 -1.00000E+00  1.63930E-01
      21    -1     0     0   502   501  0.000000000E+00  0.000000000E+00  1.429840810E+02  1.429840810E+02  0.000000000E+00  0.00000E+00  9.000E+00
      21    -1     0     0   512   502  0.000000000E+00  0.000000000E+00 -4.274276920E+02  4.274276920E+02  0.000000000E+00  0.00000E+00  9.000E+00
      25     1     1     2     0     0 -9.937203575E+01 -7.935148520E+00  7.058823147E+01  1.747726137E+02  1.250000000E+02  0.00000E+00  9.000E+00
      25     1     1     2     0     0  7.869468212E+01  2.302093125E+00 -2.681121930E+02  3.061164822E+02  1.250000000E+02  0.00000E+00  9.000E+00
      21     1     1     2   512   501  2.067735363E+01  5.633055396E+00 -8.691964939E+01  8.952267710E+01  1.348699152E-06  0.00000E+00  9.000E+00
#rwgt            1           1   4.0048869001759982E-002           9       66367           0
</event>
<event>
      5   9999  3.79277E-02  2.33171E+01 -1.00000E+00  1.61052E-01
      21    -1     0     0   502   511  0.000000000E+00  0.000000000E+00  2.226173605E+02  2.226173605E+02  0.000000000E+00  0.00000E+00  9.000E+00
      21    -1     0     0   501   502  0.000000000E+00  0.000000000E+00 -3.551441346E+02  3.551441346E+02  0.000000000E+00  0.00000E+00  9.000E+00
      25     1     1     2     0     0 -1.764935653E+02 -1.303433682E+01 -2.359665483E+02  3.203515014E+02  1.250000000E+02  0.00000E+00  9.000E+00
      25     1     1     2     0     0  1.593790721E+02  2.887035679E+01  6.919724128E+01  2.159825093E+02  1.250000000E+02  0.00000E+00  9.000E+00
      21     1     1     2   501   511  1.711449319E+01 -1.583601996E+01  3.424253293E+01  4.142748444E+01  0.000000000E+00  0.00000E+00  9.000E+00
#rwgt            1           1   2.2563310246150103E-002           9       66564           0
</event>
<event>
      5   9999 -3.79277E-02  2.02021E+01 -1.00000E+00  1.66010E-01
      21    -1     0     0   502   501  0.000000000E+00  0.000000000E+00  1.465080596E+02  1.465080596E+02  0.000000000E+00  0.00000E+00  9.000E+00
      21    -1     0     0   501   512  0.000000000E+00  0.000000000E+00 -6.288151413E+02  6.288151413E+02  0.000000000E+00  0.00000E+00  9.000E+00
      25     1     1     2     0     0 -2.437564058E+02  2.966087818E+01 -1.327469220E+02  3.058491431E+02  1.250000000E+02  0.00000E+00  9.000E+00
      25     1     1     2     0     0  2.638000371E+02 -2.713580692E+01 -3.259619798E+02  4.384096531E+02  1.250000000E+02  0.00000E+00  9.000E+00
      21     1     1     2   502   512 -2.004363136E+01 -2.525071261E+00 -2.359817996E+01  3.106440471E+01  3.371747881E-07  0.00000E+00  9.000E+00
#rwgt            1           1 -0.23831656108335061                9       66693           0
</event>
<event>
      5   9999  3.79277E-02  1.88910E+01 -1.00000E+00  1.68440E-01
      21    -1     0     0   502   501  0.000000000E+00  0.000000000E+00  8.892021612E+01  8.892021612E+01  0.000000000E+00  0.00000E+00  9.000E+00
      21    -1     0     0   511   502  0.000000000E+00  0.000000000E+00 -3.906555349E+02  3.906555349E+02  0.000000000E+00  0.00000E+00  9.000E+00
      25     1     1     2     0     0  1.129358232E+02 -2.909381185E+01 -2.142246089E+02  2.740768744E+02  1.250000000E+02  0.00000E+00  9.000E+00
      25     1     1     2     0     0 -1.073029069E+02  1.106219327E+01 -6.867687004E+01  1.788233722E+02  1.250000000E+02  0.00000E+00  9.000E+00
      21     1     1     2   511   501 -5.632916253E+00  1.803161859E+01 -1.883383987E+01  2.667550447E+01  3.371747881E-07  0.00000E+00  9.000E+00
#rwgt            1           1   4.7726902402316009E-002           9       66925           0
</event>
<event>
      5   9999  3.79277E-02  1.28099E+02 -1.00000E+00  1.19177E-01
      21    -1     0     0   512   501  0.000000000E+00  0.000000000E+00  3.014796504E+02  3.014796504E+02  0.000000000E+00  0.00000E+00  9.000E+00
      21    -1     0     0   501   502  0.000000000E+00  0.000000000E+00 -1.343353996E+03  1.343353996E+03  0.000000000E+00  0.00000E+00  9.000E+00
      25     1     1     2     0     0  1.803472370E+02  2.979316662E+02 -2.507895426E+02  4.469997743E+02  1.250000000E+02  0.00000E+00  9.000E+00
      25     1     1     2     0     0 -2.724721808E+02 -2.089247260E+02 -9.357761350E+02  1.004585788E+03  1.250000000E+02  0.00000E+00  9.000E+00
      21     1     1     2   512   502  9.212494380E+01 -8.900694018E+01  1.446913317E+02  1.932480845E+02  0.000000000E+00  0.00000E+00  9.000E+00
#rwgt            1           1   3.5068206450562092E-002           9       67146           0
</event>
<event>
      5   9999  3.79277E-02  1.92887E+01 -1.00000E+00  1.67677E-01
      21    -1     0     0   502   501  0.000000000E+00  0.000000000E+00  3.335543770E+02  3.335543770E+02  0.000000000E+00  0.00000E+00  9.000E+00
       3    -1     0     0   501     0  0.000000000E+00  0.000000000E+00 -4.221006170E+02  4.221006170E+02  0.000000000E+00  0.00000E+00  9.000E+00
      25     1     1     2     0     0 -5.066233933E+01 -9.204642651E+01 -4.795611548E+01  1.701881496E+02  1.250000000E+02  0.00000E+00  9.000E+00
      25     1     1     2     0     0  3.140392565E+01  9.312666594E+01  2.488886581E+02  2.953461471E+02  1.250000000E+02  0.00000E+00  9.000E+00
       3     1     1     2   502     0  1.925841368E+01 -1.080239436E+00 -2.894787827E+02  2.901206973E+02  3.814697266E-06  0.00000E+00  9.000E+00
#rwgt            1           1   1.1411915347087440E-002           9       67346           0
</event>
<event>
      5   9999  3.79277E-02  1.30731E+02 -1.00000E+00  1.18810E-01
      21    -1     0     0   502   501  0.000000000E+00  0.000000000E+00  4.280185478E+02  4.280185478E+02  0.000000000E+00  0.00000E+00  9.000E+00
      21    -1     0     0   501   511  0.000000000E+00  0.000000000E+00 -5.097511654E+02  5.097511654E+02  0.000000000E+00  0.00000E+00  9.000E+00
      25     1     1     2     0     0  1.635440771E+02  3.435804702E+02  5.220416950E+01  4.039114754E+02  1.250000000E+02  0.00000E+00  9.000E+00
      25     1     1     2     0     0 -9.624927344E+01 -2.315002282E+02  7.262255868E+01  2.894051041E+02  1.250000000E+02  0.00000E+00  9.000E+00
      21     1     1     2   502   511 -6.729480366E+01 -1.120802420E+02 -2.065593458E+02  2.444531337E+02  2.697398305E-06  0.00000E+00  9.000E+00
#rwgt            1           1   2.3309843356818381E-002           9       67523           0
</event>
<event>
      5   9999  3.79277E-02  7.10279E+01 -1.00000E+00  1.30901E-01
      21    -1     0     0   502   501  0.000000000E+00  0.000000000E+00  2.552944979E+02  2.552944979E+02  0.000000000E+00  0.00000E+00  9.000E+00
       1    -1     0     0   501     0  0.000000000E+00  0.000000000E+00 -1.611166939E+03  1.611166939E+03  0.000000000E+00  0.00000E+00  9.000E+00
      25     1     1     2     0     0 -6.548332921E+01 -1.406375887E+02  9.110154884E+01  2.190696007E+02  1.250000000E+02  0.00000E+00  9.000E+00
      25     1     1     2     0     0  5.569584791E+01  2.109878606E+02 -5.992123065E+01  2.585216793E+02  1.250000000E+02  0.00000E+00  9.000E+00
       1     1     1     2   502     0  9.787481296E+00 -7.035027184E+01 -1.387052760E+03  1.388870157E+03  1.525878906E-05  0.00000E+00  9.000E+00
#rwgt            1           1   4.3035349915305755E-002           9       68001           0
</event>
<event>
      5   9999  3.79277E-02  4.27723E+01 -1.00000E+00  1.43058E-01
      21    -1     0     0   511   501  0.000000000E+00  0.000000000E+00  8.152517332E+01  8.152517332E+01  0.000000000E+00  0.00000E+00  9.000E+00
      21    -1     0     0   501   502  0.000000000E+00  0.000000000E+00 -6.545046041E+02  6.545046041E+02  0.000000000E+00  0.00000E+00  9.000E+00
      25     1     1     2     0     0 -1.149738235E+02  3.828919215E+01 -1.043282873E+02  2.029641196E+02  1.250000000E+02  0.00000E+00  9.000E+00
      25     1     1     2     0     0  1.475214665E+02 -1.053808198E+01 -4.422857918E+02  4.828202108E+02  1.250000000E+02  0.00000E+00  9.000E+00
      21     1     1     2   511   502 -3.254764306E+01 -2.775111017E+01 -2.636535171E+01  5.024544710E+01  4.768371582E-07  0.00000E+00  9.000E+00
#rwgt            1           1   4.0073073999506242E-002           9       68257           0
</event>
<event>
      5   9999  3.79277E-02  5.22921E+01 -1.00000E+00  1.37974E-01
      21    -1     0     0   502   501  0.000000000E+00  0.000000000E+00  7.108757191E+01  7.108757191E+01  0.000000000E+00  0.00000E+00  9.000E+00
       1    -1     0     0   501     0  0.000000000E+00  0.000000000E+00 -3.874594384E+03  3.874594384E+03  0.000000000E+00  0.00000E+00  9.000E+00
      25     1     1     2     0     0 -1.065345184E+02  1.858740621E+02 -6.923336601E+02  7.354248210E+02  1.250000000E+02  0.00000E+00  9.000E+00
      25     1     1     2     0     0  6.085327798E+01 -2.113237691E+02 -2.751645871E+02  3.737665138E+02  1.250000000E+02  0.00000E+00  9.000E+00
       1     1     1     2   502     0  4.568124040E+01  2.544970702E+01 -2.836008565E+03  2.836490622E+03  3.051757812E-05  0.00000E+00  9.000E+00
#rwgt            1           1   3.2790890617773988E-002           9       68339           0
</event>
<event>
      5   9999  3.79277E-02  6.26068E+01 -1.00000E+00  1.33724E-01
       2    -1     0     0   502     0  0.000000000E+00  0.000000000E+00  7.109632254E+02  7.109632254E+02  0.000000000E+00  0.00000E+00  9.000E+00
      21    -1     0     0   501   502  0.000000000E+00  0.000000000E+00 -8.027280042E+01  8.027280042E+01  0.000000000E+00  0.00000E+00  9.000E+00
      25     1     1     2     0     0  1.056206703E+02  1.038741139E+02  3.564900230E+02  4.057778876E+02  1.250000000E+02  0.00000E+00  9.000E+00
      25     1     1     2     0     0 -1.023774798E+02 -4.135132635E+01  8.708874919E+01  1.881502878E+02  1.250000000E+02  0.00000E+00  9.000E+00
       2     1     1     2   501     0 -3.243190426E+00 -6.252278754E+01  1.871116528E+02  1.973078505E+02  2.697398305E-06  0.00000E+00  9.000E+00
#rwgt            1           1   4.7598471088388473E-002           9       68446           0
</event>
<event>
      5   9999  3.79277E-02  9.74080E+01 -1.00000E+00  1.24343E-01
      21    -1     0     0   511   501  0.000000000E+00  0.000000000E+00  6.802578497E+02  6.802578497E+02  0.000000000E+00  0.00000E+00  9.000E+00
      21    -1     0     0   501   502  0.000000000E+00  0.000000000E+00 -7.431534764E+01  7.431534764E+01  0.000000000E+00  0.00000E+00  9.000E+00
      25     1     1     2     0     0  1.031897225E+02  9.028763069E+01  2.228042403E+02  2.899425884E+02  1.250000000E+02  0.00000E+00  9.000E+00
      25     1     1     2     0     0 -7.356355707E+00 -1.077315771E+02  2.310706613E+02  2.840402422E+02  1.250000000E+02  0.00000E+00  9.000E+00
      21     1     1     2   511   502 -9.583336675E+01  1.744394639E+01  1.520676005E+02  1.805903668E+02  3.303624740E-06  0.00000E+00  9.000E+00
#rwgt            2          11   2.9268634567682647E-003           9       68531           0
</event>
<event>
      5   9999  3.79277E-02  1.41008E+02 -1.00000E+00  1.17468E-01
      21    -1     0     0   502   501  0.000000000E+00  0.000000000E+00  1.163154396E+02  1.163154396E+02  0.000000000E+00  0.00000E+00  9.000E+00
      21    -1     0     0   512   502  0.000000000E+00  0.000000000E+00 -1.094905897E+03  1.094905897E+03  0.000000000E+00  0.00000E+00  9.000E+00
      25     1     1     2     0     0 -1.360912060E+02  1.446793156E+02 -2.380934973E+02  3.343148728E+02  1.250000000E+02  0.00000E+00  9.000E+00
      25     1     1     2     0     0  2.575157135E+02 -7.298913401E+01 -3.302053892E+02  4.430602165E+02  1.250000000E+02  0.00000E+00  9.000E+00
      21     1     1     2   512   501 -1.214245075E+02 -7.169018158E+01 -4.102915712E+02  4.338462476E+02  5.394796609E-06  0.00000E+00  9.000E+00
#rwgt            1           1   3.4757582880270609E-002           9       68581           0
</event>
<event>
      5   9999  3.79277E-02  4.18802E+01 -1.00000E+00  1.43614E-01
      21    -1     0     0   502   501  0.000000000E+00  0.000000000E+00  4.049169677E+01  4.049169677E+01  0.000000000E+00  0.00000E+00  9.000E+00
      21    -1     0     0   511   502  0.000000000E+00  0.000000000E+00 -1.123287895E+03  1.123287895E+03  0.000000000E+00  0.00000E+00  9.000E+00
      25     1     1     2     0     0  1.150489835E+02 -2.862108246E+01 -3.594904370E+02  3.986399495E+02  1.250000000E+02  0.00000E+00  9.000E+00
      25     1     1     2     0     0 -1.531622152E+02  4.598006945E+01 -5.344150180E+02  5.716618252E+02  1.250000000E+02  0.00000E+00  9.000E+00
      21     1     1     2   511   501  3.811323165E+01 -1.735898699E+01 -1.888907435E+02  1.934778175E+02  0.000000000E+00  0.00000E+00  9.000E+00
#rwgt            1           1   4.0069775408516632E-002           9       68789           0
</event>
<event>
      5   9999  3.79277E-02  1.52069E+02 -1.00000E+00  1.16158E-01
      21    -1     0     0   502   501  0.000000000E+00  0.000000000E+00  5.500629688E+02  5.500629688E+02  0.000000000E+00  0.00000E+00  9.000E+00
      21    -1     0     0   501   512  0.000000000E+00  0.000000000E+00 -2.027825978E+02  2.027825978E+02  0.000000000E+00  0.00000E+00  9.000E+00
      25     1     1     2     0     0 -2.260865386E+02  7.141375531E+01  1.768359350E+02  3.211090084E+02  1.250000000E+02  0.00000E+00  9.000E+00
      25     1     1     2     0     0  1.483442767E+02  5.928148658E+01  1.905954602E+02  2.783378317E+02  1.250000000E+02  0.00000E+00  9.000E+00
      21     1     1     2   502   512  7.774226182E+01 -1.306952419E+02 -2.015102424E+01  1.533987265E+02  3.662655710E-06  0.00000E+00  9.000E+00
#rwgt            1           1   4.4254366551457439E-002           9       68950           0
</event>
<event>
      5   9999  3.79277E-02  1.56969E+02 -1.00000E+00  1.15617E-01
      21    -1     0     0   502   501  0.000000000E+00  0.000000000E+00  8.205258156E+02  8.205258156E+02  0.000000000E+00  0.00000E+00  9.000E+00
      21    -1     0     0   501   511  0.000000000E+00  0.000000000E+00 -1.502328873E+02  1.502328873E+02  0.000000000E+00  0.00000E+00  9.000E+00
      25     1     1     2     0     0  7.001689508E+01  1.216678662E+02  5.775988038E+01  1.966383458E+02  1.250000000E+02  0.00000E+00  9.000E+00
      25     1     1     2     0     0 -1.169269165E+02  2.812794266E+01  5.906980849E+02  6.156397587E+02  1.250000000E+02  0.00000E+00  9.000E+00
      21     1     1     2   502   511  4.691002138E+01 -1.497958089E+02  2.183496296E+01  1.584805984E+02  1.784161275E-06  0.00000E+00  9.000E+00
#rwgt            1           1   4.4773389202060941E-002           9       68990           0
</event>
<event>
      5   9999  3.79277E-02  7.65940E+01 -1.00000E+00  1.29271E-01
      21    -1     0     0   502   501  0.000000000E+00  0.000000000E+00  1.067166101E+03  1.067166101E+03  0.000000000E+00  0.00000E+00  9.000E+00
      21    -1     0     0   501   512  0.000000000E+00  0.000000000E+00 -1.372709559E+02  1.372709559E+02  0.000000000E+00  0.00000E+00  9.000E+00
      25     1     1     2     0     0 -2.319324503E+02  3.170674952E+01  5.198031595E+02  5.836251400E+02  1.250000000E+02  0.00000E+00  9.000E+00
      25     1     1     2     0     0  1.974937382E+02  3.670822808E+01  4.682583144E+02  5.246352253E+02  1.250000000E+02  0.00000E+00  9.000E+00
      21     1     1     2   502   512  3.443871212E+01 -6.841497760E+01 -5.816632928E+01  9.617669111E+01  2.431401974E-06  0.00000E+00  9.000E+00
#rwgt            1           1   4.1878766724886128E-002           9       69065           0
</event>
<event>
      5   9999  3.79277E-02  5.10813E+01 -1.00000E+00  1.38547E-01
      21    -1     0     0   502   511  0.000000000E+00  0.000000000E+00  1.005684774E+03  1.005684774E+03  0.000000000E+00  0.00000E+00  9.000E+00
      21    -1     0     0   501   502  0.000000000E+00  0.000000000E+00 -5.097773607E+01  5.097773607E+01  0.000000000E+00  0.00000E+00  9.000E+00
      25     1     1     2     0     0  1.031718803E+02 -4.918650440E+01  3.884475005E+02  4.237690524E+02  1.250000000E+02  0.00000E+00  9.000E+00
      25     1     1     2     0     0 -1.171693246E+02  9.831253563E+01  2.833375909E+02  3.453971565E+02  1.250000000E+02  0.00000E+00  9.000E+00
      21     1     1     2   501   511  1.399744433E+01 -4.912603123E+01  2.829219468E+02  2.874963015E+02  5.394796609E-06  0.00000E+00  9.000E+00
#rwgt            1           1   4.2593095097897278E-002           9       69151           0
</event>
<event>
      5   9999  3.79277E-02  5.77540E+01 -1.00000E+00  1.35595E-01
      21    -1     0     0   502   512  0.000000000E+00  0.000000000E+00  1.341030737E+02  1.341030737E+02  0.000000000E+00  0.00000E+00  9.000E+00
      21    -1     0     0   501   502  0.000000000E+00  0.000000000E+00 -5.087921084E+02  5.087921084E+02  0.000000000E+00  0.00000E+00  9.000E+00
      25     1     1     2     0     0 -3.300156699E+01  8.645123714E+01 -3.724008329E+02  4.035719269E+02  1.250000000E+02  0.00000E+00  9.000E+00
      25     1     1     2     0     0  9.059113503E+01 -9.080584043E+01  1.302154068E+01  1.795745386E+02  1.250000000E+02  0.00000E+00  9.000E+00
      21     1     1     2   501   512 -5.758956803E+01  4.354603295E+00 -1.530974253E+01  5.974871657E+01  7.725644944E-07  0.00000E+00  9.000E+00
#rwgt            2          11   3.0992354667658565E-003           9       69256           0
</event>
<event>
      5   9999  3.79277E-02  5.14307E+01 -1.00000E+00  1.38380E-01
      21    -1     0     0   502   501  0.000000000E+00  0.000000000E+00  1.272251236E+02  1.272251236E+02  0.000000000E+00  0.00000E+00  9.000E+00
      21    -1     0     0   501   511  0.000000000E+00  0.000000000E+00 -1.309013331E+03  1.309013331E+03  0.000000000E+00  0.00000E+00  9.000E+00
      25     1     1     2     0     0 -1.512431786E+02  1.153025588E+02 -7.728853729E+01  2.403491151E+02  1.250000000E+02  0.00000E+00  9.000E+00
      25     1     1     2     0     0  1.205397443E+02 -7.404221352E+01 -1.529817842E+02  2.429825213E+02  1.250000000E+02  0.00000E+00  9.000E+00
      21     1     1     2   502   511  3.070343427E+01 -4.126034528E+01 -9.515178858E+02  9.529068181E+02  1.868812365E-05  0.00000E+00  9.000E+00
#rwgt            1           1   3.2459302528459397E-002           9       69306           0
</event>
<event>
      5   9999  3.79277E-02  1.04780E+01 -1.00000E+00  1.93442E-01
      -2    -1     0     0     0   501  0.000000000E+00  0.000000000E+00  7.447727503E+02  7.447727503E+02  0.000000000E+00  0.00000E+00  9.000E+00
      21    -1     0     0   501   502  0.000000000E+00  0.000000000E+00 -7.170166170E+01  7.170166170E+01  0.000000000E+00  0.00000E+00  9.000E+00
      25     1     1     2     0     0 -9.115267015E+01  7.101240797E+01  9.774391259E+01  1.962917314E+02  1.250000000E+02  0.00000E+00  9.000E+00
      25     1     1     2     0     0  9.616256985E+01 -8.021512333E+01  3.283935373E+02  3.730268371E+02  1.250000000E+02  0.00000E+00  9.000E+00
      -2     1     1     2     0   502 -5.009899705E+00  9.202715362E+00  2.469336386E+02  2.471558435E+02  4.672030912E-06  0.00000E+00  9.000E+00
#rwgt            1           1   3.4489075681157659E-002           9       69402           0
</event>
<event>
      5   9999  3.79277E-02  1.07840E+01 -1.00000E+00  1.92043E-01
      21    -1     0     0   502   501  0.000000000E+00  0.000000000E+00  2.655393771E+03  2.655393771E+03  0.000000000E+00  0.00000E+00  9.000E+00
      21    -1     0     0   501   511  0.000000000E+00  0.000000000E+00 -4.468265546E+01  4.468265546E+01  0.000000000E+00  0.00000E+00  9.000E+00
      25     1     1     2     0     0  1.185363092E+02  3.885981636E+01  9.920502539E+02  1.007645597E+03  1.250000000E+02  0.00000E+00  9.000E+00
      25     1     1     2     0     0 -1.113087542E+02 -3.085625121E+01  1.650274941E+03  1.659028067E+03  1.250000000E+02  0.00000E+00  9.000E+00
      21     1     1     2   502   511 -7.227555009E+00 -8.003565151E+00 -3.161407886E+01  3.340276319E+01  1.907348633E-06  0.00000E+00  9.000E+00
#rwgt            1           1   4.8776424917414372E-002           9       69696           0
</event>
<event>
      5   9999  3.79277E-02  1.93276E+02 -1.00000E+00  1.12191E-01
      -1    -1     0     0     0   501  0.000000000E+00  0.000000000E+00  2.788900051E+02  2.788900051E+02  0.000000000E+00  0.00000E+00  9.000E+00
      21    -1     0     0   501   502  0.000000000E+00  0.000000000E+00 -9.182278397E+02  9.182278397E+02  0.000000000E+00  0.00000E+00  9.000E+00
      25     1     1     2     0     0 -6.591033516E+01 -2.492007592E+01 -5.529206636E+01  1.537770954E+02  1.250000000E+02  0.00000E+00  9.000E+00
      25     1     1     2     0     0 -1.248982651E+02 -5.863276946E+00 -7.610158476E+02  7.812836073E+02  1.250000000E+02  0.00000E+00  9.000E+00
      -1     1     1     2     0   502  1.908086002E+02  3.078335287E+01  1.769700795E+02  2.620571422E+02  4.264961200E-06  0.00000E+00  9.000E+00
#rwgt            1           1   4.6363682122456902E-002           9       69953           0
</event>
<event>
      5   9999  3.79277E-02  4.35327E+01 -1.00000E+00  1.42597E-01
      21    -1     0     0   502   501  0.000000000E+00  0.000000000E+00  4.787019318E+01  4.787019318E+01  0.000000000E+00  0.00000E+00  9.000E+00
      21    -1     0     0   511   502  0.000000000E+00  0.000000000E+00 -2.064662376E+03  2.064662376E+03  0.000000000E+00  0.00000E+00  9.000E+00
      25     1     1     2     0     0 -1.546888215E+02  6.881135024E+01 -4.714661355E+02  5.163031574E+02  1.250000000E+02  0.00000E+00  9.000E+00
      25     1     1     2     0     0  1.700097641E+02 -2.806382131E+01 -4.276247500E+02  4.776806724E+02  1.250000000E+02  0.00000E+00  9.000E+00
      21     1     1     2   511   501 -1.532094254E+01 -4.074752893E+01 -1.117701297E+03  1.118548739E+03  0.000000000E+00  0.00000E+00  9.000E+00
#rwgt            1           1   3.6719279632693606E-002           9       70066           0
</event>
<event>
      5   9999  3.79277E-02  2.05396E+01 -1.00000E+00  1.65421E-01
      21    -1     0     0   502   501  0.000000000E+00  0.000000000E+00  4.450560873E+01  4.450560873E+01  0.000000000E+00  0.00000E+00  9.000E+00
      21    -1     0     0   501   512  0.000000000E+00  0.000000000E+00 -2.950679692E+03  2.950679692E+03  0.000000000E+00  0.00000E+00  9.000E+00
      25     1     1     2     0     0 -3.237629819E+02  7.344584879E+01 -1.286971647E+03  1.334967333E+03  1.250000000E+02  0.00000E+00  9.000E+00
      25     1     1     2     0     0  3.148481694E+02 -5.494180839E+01 -1.465291874E+03  1.504942939E+03  1.250000000E+02  0.00000E+00  9.000E+00
      21     1     1     2   502   512  8.914812505E+00 -1.850404040E+01 -1.539105617E+02  1.552750283E+02  1.907348633E-06  0.00000E+00  9.000E+00
#rwgt            1           1   5.7608517793749196E-002           9       70213           0
</event>
<event>
      5   9999  3.79277E-02  6.99497E+01 -1.00000E+00  1.31236E-01
      21    -1     0     0   502   511  0.000000000E+00  0.000000000E+00  3.301718254E+02  3.301718254E+02  0.000000000E+00  0.00000E+00  9.000E+00
      21    -1     0     0   501   502  0.000000000E+00  0.000000000E+00 -7.392880184E+02  7.392880184E+02  0.000000000E+00  0.00000E+00  9.000E+00
      25     1     1     2     0     0 -7.689152237E+01  1.005598404E+02 -3.090641022E+02  3.566093198E+02  1.250000000E+02  0.00000E+00  9.000E+00
      25     1     1     2     0     0  1.463775787E+02 -1.086000833E+02 -3.716446797E+02  4.323946596E+02  1.250000000E+02  0.00000E+00  9.000E+00
      21     1     1     2   501   511 -6.948605632E+01  8.040242892E+00  2.715925890E+02  2.804558645E+02  3.814697266E-06  0.00000E+00  9.000E+00
#rwgt            1           1   3.6831566652753188E-002           9       70328           0
</event>
<event>
      5   9999  3.79277E-02  5.62031E+01 -1.00000E+00  1.36238E-01
      21    -1     0     0   502   512  0.000000000E+00  0.000000000E+00  1.503162965E+03  1.503162965E+03  0.000000000E+00  0.00000E+00  9.000E+00
      21    -1     0     0   501   502  0.000000000E+00  0.000000000E+00 -1.202349915E+02  1.202349915E+02  0.000000000E+00  0.00000E+00  9.000E+00
      25     1     1     2     0     0 -5.013860862E+01 -1.936566312E+02  3.081047019E+01  2.378887470E+02  1.250000000E+02  0.00000E+00  9.000E+00
      25     1     1     2     0     0  2.947089570E+00  1.631321504E+02  6.636071719E+02  6.947087609E+02  1.250000000E+02  0.00000E+00  9.000E+00
      21     1     1     2   501   512  4.719151905E+01  3.052448080E+01  6.885103309E+02  6.908004482E+02  7.629394531E-06  0.00000E+00  9.000E+00
#rwgt            1           1   4.2043082865307085E-002           9       70401           0
</event>
<event>
      5   9999  3.79277E-02  5.37822E+01 -1.00000E+00  1.37292E-01
      21    -1     0     0   502   501  0.000000000E+00  0.000000000E+00  5.480124241E+02  5.480124241E+02  0.000000000E+00  0.00000E+00  9.000E+00
      21    -1     0     0   501   511  0.000000000E+00  0.000000000E+00 -1.258714395E+02  1.258714395E+02  0.000000000E+00  0.00000E+00  9.000E+00
      25     1     1     2     0     0  2.607924119E+01 -5.350376587E+00  4.486133471E+02  4.664629552E+02  1.250000000E+02  0.00000E+00  9.000E+00
      25     1     1     2     0     0  2.760749050E+01  8.552748478E+00 -6.247510709E+01  1.427006028E+02  1.250000000E+02  0.00000E+00  9.000E+00
      21     1     1     2   502   511 -5.368673169E+01 -3.202371891E+00  3.600274459E+01  6.472030565E+01  6.743495762E-07  0.00000E+00  9.000E+00
#rwgt            1           1   4.4032756851934370E-002           9       70536           0
</event>
<event>
      5   9999  3.79277E-02  4.46071E+00 -1.00000E+00  2.52792E-01
      21    -1     0     0   502   512  0.000000000E+00  0.000000000E+00  1.815829348E+02  1.815829348E+02  0.000000000E+00  0.00000E+00  9.000E+00
      21    -1     0     0   501   502  0.000000000E+00  0.000000000E+00 -2.214884862E+02  2.214884862E+02  0.000000000E+00  0.00000E+00  9.000E+00
      25     1     1     2     0     0 -6.357051060E+01 -6.809322137E+01 -1.400173559E+02  2.095417776E+02  1.250000000E+02  0.00000E+00  9.000E+00
      25     1     1     2     0     0  6.795091485E+01  6.893581243E+01  8.870506077E+01  1.812817169E+02  1.250000000E+02  0.00000E+00  9.000E+00
      21     1     1     2   501   512 -4.380404249E+00 -8.425910691E-01  1.140674372E+01  1.224792649E+01  1.685873940E-07  0.00000E+00  9.000E+00
#rwgt            2          11   1.1694172894656486E-003           9       70659           0
</event>
<event>
      5   9999  3.79277E-02  3.67080E+01 -1.00000E+00  1.47192E-01
      21    -1     0     0   502   511  0.000000000E+00  0.000000000E+00  1.200146952E+02  1.200146952E+02  0.000000000E+00  0.00000E+00  9.000E+00
      21    -1     0     0   501   502  0.000000000E+00  0.000000000E+00 -8.198937080E+02  8.198937080E+02  0.000000000E+00  0.00000E+00  9.000E+00
      25     1     1     2     0     0  5.385068768E+01  2.339932887E+02 -2.829890589E+02  3.916127720E+02  1.250000000E+02  0.00000E+00  9.000E+00
      25     1     1     2     0     0 -1.875150709E+01 -2.232450860E+02 -4.367773335E+02  5.065465689E+02  1.250000000E+02  0.00000E+00  9.000E+00
      21     1     1     2   501   511 -3.509918060E+01 -1.074820266E+01  1.988737961E+01  4.174906235E+01  1.011524364E-06  0.00000E+00  9.000E+00
#rwgt            1           1   2.9158969727319219E-002           9       70784           0
</event>
<event>
      5   9999  3.79277E-02  3.08201E+02 -1.00000E+00  1.05213E-01
      21    -1     0     0   502   501  0.000000000E+00  0.000000000E+00  1.353990001E+03  1.353990001E+03  0.000000000E+00  0.00000E+00  9.000E+00
      21    -1     0     0   512   502  0.000000000E+00  0.000000000E+00 -1.676772933E+02  1.676772933E+02  0.000000000E+00  0.00000E+00  9.000E+00
      25     1     1     2     0     0 -2.907014908E+02 -6.197457022E+01  1.537636768E+02  3.572344782E+02  1.250000000E+02  0.00000E+00  9.000E+00
      25     1     1     2     0     0 -1.694444452E+01  8.046736924E+01  6.795262162E+02  6.958038446E+02  1.250000000E+02  0.00000E+00  9.000E+00
      21     1     1     2   512   501  3.076459353E+02 -1.849279902E+01  3.530228144E+02  4.686289712E+02  3.814697266E-06  0.00000E+00  9.000E+00
#rwgt            2          11   1.1451510807270440E-003           9       70950           0
</event>
<event>
      5   9999  3.79277E-02  9.50041E+01 -1.00000E+00  1.24837E-01
      21    -1     0     0   502   501  0.000000000E+00  0.000000000E+00  3.090663521E+02  3.090663521E+02  0.000000000E+00  0.00000E+00  9.000E+00
      21    -1     0     0   511   502  0.000000000E+00  0.000000000E+00 -7.783655993E+02  7.783655993E+02  0.000000000E+00  0.00000E+00  9.000E+00
      25     1     1     2     0     0  7.911421927E+01 -2.665987308E+02 -1.701255220E+02  3.491441481E+02  1.250000000E+02  0.00000E+00  9.000E+00
      25     1     1     2     0     0 -1.729124161E+02  2.816874494E+02  6.727983278E+01  3.597194722E+02  1.250000000E+02  0.00000E+00  9.000E+00
      21     1     1     2   511   501  9.379819682E+01 -1.508871868E+01 -3.664535579E+02  3.785683310E+02  0.000000000E+00  0.00000E+00  9.000E+00
#rwgt            1           1   3.0602865699643916E-002           9       71075           0
</event>
<event>
      5   9999  3.79277E-02  1.87833E+02 -1.00000E+00  1.12649E-01
       2    -1     0     0   502     0  0.000000000E+00  0.000000000E+00  1.392424007E+03  1.392424007E+03  0.000000000E+00  0.00000E+00  9.000E+00
      21    -1     0     0   501   502  0.000000000E+00  0.000000000E+00 -1.997220589E+02  1.997220589E+02  0.000000000E+00  0.00000E+00  9.000E+00
      25     1     1     2     0     0  2.563563727E+02 -1.006559457E+02  7.837278374E+02  8.400622193E+02  1.250000000E+02  0.00000E+00  9.000E+00
      25     1     1     2     0     0 -8.001061226E+01  1.653355659E+02 -7.375470117E+01  2.340989179E+02  1.250000000E+02  0.00000E+00  9.000E+00
       2     1     1     2   501     0 -1.763457604E+02 -6.467962022E+01  4.827288123E+02  5.179849290E+02  1.078959322E-05  0.00000E+00  9.000E+00
#rwgt            2          18   4.5337124929677929E-004           9       71225           0
</event>
<event>
      5   9999  3.79277E-02  5.61661E+01 -1.00000E+00  1.36254E-01
      21    -1     0     0   502   501  0.000000000E+00  0.000000000E+00  7.600082192E+02  7.600082192E+02  0.000000000E+00  0.00000E+00  9.000E+00
      -1    -1     0     0     0   502  0.000000000E+00  0.000000000E+00 -3.878508879E+02  3.878508879E+02  0.000000000E+00  0.00000E+00  9.000E+00
      25     1     1     2     0     0 -2.741251953E+02  3.315977426E+01  2.487318472E+02  3.920927507E+02  1.250000000E+02  0.00000E+00  9.000E+00
      25     1     1     2     0     0  2.447584750E+02 -8.103697222E+01  3.896627768E+02  4.836690827E+02  1.250000000E+02  0.00000E+00  9.000E+00
      -1     1     1     2     0   501  2.936672027E+01  4.787719796E+01 -2.662372927E+02  2.720972737E+02  7.629394531E-06  0.00000E+00  9.000E+00
#rwgt            1           1   1.4244951036715832E-002           9       71289           0
</event>
<event>
      5   9999  3.79277E-02  1.33939E+02 -1.00000E+00  1.18377E-01
      21    -1     0     0   502   501  0.000000000E+00  0.000000000E+00  4.043601972E+02  4.043601972E+02  0.000000000E+00  0.00000E+00  9.000E+00
      -1    -1     0     0     0   502  0.000000000E+00  0.000000000E+00 -4.035659189E+02  4.035659189E+02  0.000000000E+00  0.00000E+00  9.000E+00
      25     1     1     2     0     0 -2.140165632E+02 -4.091748735E+01  1.456377109E+02  2.903664459E+02  1.250000000E+02  0.00000E+00  9.000E+00
      25     1     1     2     0     0  3.403323452E+02 -3.623022619E+00 -9.697678981E+01  3.753248316E+02  1.250000000E+02  0.00000E+00  9.000E+00
      -1     1     1     2     0   501 -1.263157820E+02  4.454050997E+01 -4.786664274E+01  1.422348385E+02  9.536743164E-07  0.00000E+00  9.000E+00
#rwgt            1           1   3.5291541479094461E-002           9       71369           0
</event>
<event>
      5   9999  3.79277E-02  4.55735E+01 -1.00000E+00  1.41412E-01
      21    -1     0     0   502   501  0.000000000E+00  0.000000000E+00  1.083720235E+02  1.083720235E+02  0.000000000E+00  0.00000E+00  9.000E+00
      21    -1     0     0   501   511  0.000000000E+00  0.000000000E+00 -4.466355347E+02  4.466355347E+02  0.000000000E+00  0.00000E+00  9.000E+00
      25     1     1     2     0     0 -3.457422582E+01  9.171729622E+00  3.816478687E+01  1.355029471E+02  1.250000000E+02  0.00000E+00  9.000E+00
      25     1     1     2     0     0  5.073619728E+00 -4.390874976E+01 -3.237610931E+02  3.498570642E+02  1.250000000E+02  0.00000E+00  9.000E+00
      21     1     1     2   502   511  2.950060609E+01  3.473702013E+01 -5.266720486E+01  6.964754694E+01  6.743495762E-07  0.00000E+00  9.000E+00
#rwgt            1           1   4.5187468441658760E-002           9       71451           0
</event>
<event>
      5   9999  3.79277E-02  2.84817E+01 -1.00000E+00  1.54623E-01
      21    -1     0     0   502   512  0.000000000E+00  0.000000000E+00  2.587207922E+03  2.587207922E+03  0.000000000E+00  0.00000E+00  9.000E+00
      21    -1     0     0   501   502  0.000000000E+00  0.000000000E+00 -2.138351991E+01  2.138351991E+01  0.000000000E+00  0.00000E+00  9.000E+00
      25     1     1     2     0     0 -6.036167089E+01 -8.924310882E+01  4.061840154E+02  4.384270956E+02  1.250000000E+02  0.00000E+00  9.000E+00
      25     1     1     2     0     0  7.471979250E+01  1.138408548E+02  1.896711728E+03  1.905697554E+03  1.250000000E+02  0.00000E+00  9.000E+00
      21     1     1     2   501   512 -1.435812160E+01 -2.459774596E+01  2.629286584E+02  2.644667922E+02  0.000000000E+00  0.00000E+00  9.000E+00
#rwgt            1           1   8.3822503733623141E-002           9       71574           0
</event>
<event>
      5   9999  3.79277E-02  1.26464E+01 -1.00000E+00  1.84664E-01
      21    -1     0     0   502   511  0.000000000E+00  0.000000000E+00  3.483540100E+02  3.483540100E+02  0.000000000E+00  0.00000E+00  9.000E+00
      21    -1     0     0   501   502  0.000000000E+00  0.000000000E+00 -1.888664164E+02  1.888664164E+02  0.000000000E+00  0.00000E+00  9.000E+00
      25     1     1     2     0     0  9.946902820E+01 -1.192615045E+02  1.278218609E+02  2.368138977E+02  1.250000000E+02  0.00000E+00  9.000E+00
      25     1     1     2     0     0 -9.519988005E+01  1.311655482E+02 -5.570815107E+01  2.121221730E+02  1.250000000E+02  0.00000E+00  9.000E+00
      21     1     1     2   501   511 -4.269148155E+00 -1.190404372E+01  8.737388381E+01  8.828435567E+01  1.651812370E-06  0.00000E+00  9.000E+00
#rwgt            1           1   3.8243650810745607E-002           9       71714           0
</event>
<event>
      5   9999  3.79277E-02  4.40320E+01 -1.00000E+00  1.42300E-01
      21    -1     0     0   502   501  0.000000000E+00  0.000000000E+00  7.713773926E+02  7.713773926E+02  0.000000000E+00  0.00000E+00  9.000E+00
      21    -1     0     0   501   512  0.000000000E+00  0.000000000E+00 -1.838931291E+02  1.838931291E+02  0.000000000E+00  0.00000E+00  9.000E+00
      25     1     1     2     0     0  1.846799336E+02  1.067362949E+02  4.480116795E+02  5.117018463E+02  1.250000000E+02  0.00000E+00  9.000E+00
      25     1     1     2     0     0 -1.708491591E+02 -6.493285094E+01  2.443915190E+02  3.297846644E+02  1.250000000E+02  0.00000E+00  9.000E+00
      21     1     1     2   502   512 -1.383077448E+01 -4.180344394E+01 -1.049189350E+02  1.137840111E+02  1.348699152E-06  0.00000E+00  9.000E+00
#rwgt            1           1  0.12438960776812256                9       71969           0
</event>
<event>
      5   9999  3.79277E-02  5.13003E+01 -1.00000E+00  1.38442E-01
      21    -1     0     0   502   501  0.000000000E+00  0.000000000E+00  5.953659286E+02  5.953659286E+02  0.000000000E+00  0.00000E+00  9.000E+00
       1    -1     0     0   501     0  0.000000000E+00  0.000000000E+00 -3.657606272E+02  3.657606272E+02  0.000000000E+00  0.00000E+00  9.000E+00
      25     1     1     2     0     0 -2.487676472E+01 -2.110772217E+02 -1.314932094E+02  2.794421426E+02  1.250000000E+02  0.00000E+00  9.000E+00
      25     1     1     2     0     0  2.888779936E+01  2.622204288E+02  4.745630304E+02  5.571616714E+02  1.250000000E+02  0.00000E+00  9.000E+00
       1     1     1     2   502     0 -4.011034641E+00 -5.114320709E+01 -1.134645195E+02  1.245227418E+02  0.000000000E+00  0.00000E+00  9.000E+00
#rwgt            1           1   3.1058840358289822E-002           9       72131           0
</event>
<event>
      5   9999  3.79277E-02  4.22870E+01 -1.00000E+00  1.43358E-01
      21    -1     0     0   502   511  0.000000000E+00  0.000000000E+00  7.709432571E+02  7.709432571E+02  0.000000000E+00  0.00000E+00  9.000E+00
      21    -1     0     0   501   502  0.000000000E+00  0.000000000E+00 -1.138025047E+02  1.138025047E+02  0.000000000E+00  0.00000E+00  9.000E+00
      25     1     1     2     0     0 -1.492218674E+02 -5.844447742E+01  5.194964942E+02  5.578391615E+02  1.250000000E+02  0.00000E+00  9.000E+00
      25     1     1     2     0     0  1.335886841E+02  9.773564606E+01  2.788902934E+01  2.092868629E+02  1.250000000E+02  0.00000E+00  9.000E+00
      21     1     1     2   501   511  1.563318330E+01 -3.929116864E+01  1.097552289E+02  1.176197374E+02  1.348699152E-06  0.00000E+00  9.000E+00
#rwgt            1           1   4.5886806862201278E-002           9       72450           0
</event>
<event>
      5   9999  3.79277E-02  3.42870E+01 -1.00000E+00  1.49117E-01
      21    -1     0     0   502   501  0.000000000E+00  0.000000000E+00  3.130678938E+02  3.130678938E+02  0.000000000E+00  0.00000E+00  9.000E+00
       2    -1     0     0   501     0  0.000000000E+00  0.000000000E+00 -2.872777162E+03  2.872777162E+03  0.000000000E+00  0.00000E+00  9.000E+00
      25     1     1     2     0     0  2.441439162E+02 -6.686406446E+00 -2.795897949E+01  2.757855406E+02  1.250000000E+02  0.00000E+00  9.000E+00
      25     1     1     2     0     0 -2.135513913E+02  2.216855856E+01  1.074208781E+02  2.706656364E+02  1.250000000E+02  0.00000E+00  9.000E+00
       2     1     1     2   502     0 -3.059252493E+01 -1.548215211E+01 -2.639171167E+03  2.639393879E+03  3.051757812E-05  0.00000E+00  9.000E+00
#rwgt            1           1   3.6466707299175553E-002           9       72617           0
</event>
<event>
      5   9999  3.79277E-02  6.06790E+01 -1.00000E+00  1.34443E-01
      21    -1     0     0   502   501  0.000000000E+00  0.000000000E+00  8.727284944E+01  8.727284944E+01  0.000000000E+00  0.00000E+00  9.000E+00
       1    -1     0     0   501     0  0.000000000E+00  0.000000000E+00 -8.020072481E+02  8.020072481E+02  0.000000000E+00  0.00000E+00  9.000E+00
      25     1     1     2     0     0 -1.438068508E+02 -2.010052531E+01 -1.610463071E+02  2.502905401E+02  1.250000000E+02  0.00000E+00  9.000E+00
      25     1     1     2     0     0  1.884424316E+02  6.120538189E+01 -3.141322636E+02  3.918682532E+02  1.250000000E+02  0.00000E+00  9.000E+00
       1     1     1     2   502     0 -4.463558083E+01 -4.110485658E+01 -2.395558280E+02  2.471213043E+02  0.000000000E+00  0.00000E+00  9.000E+00
#rwgt            1           1   6.4343208656902504E-002           9       72852           0
</event>
<event>
      5   9999  3.79277E-02  1.08178E+02 -1.00000E+00  1.22312E-01
      21    -1     0     0   511   501  0.000000000E+00  0.000000000E+00  4.439573890E+02  4.439573890E+02  0.000000000E+00  0.00000E+00  9.000E+00
      21    -1     0     0   501   502  0.000000000E+00  0.000000000E+00 -1.614375718E+02  1.614375718E+02  0.000000000E+00  0.00000E+00  9.000E+00
      25     1     1     2     0     0 -1.853887985E+02 -2.819908046E+01  1.512668109E+01  2.258716698E+02  1.250000000E+02  0.00000E+00  9.000E+00
      25     1     1     2     0     0  8.114443103E+01 -7.077537758E-01  2.087016161E+02  2.564493794E+02  1.250000000E+02  0.00000E+00  9.000E+00
      21     1     1     2   511   502  1.042443674E+02  2.890683424E+01  5.869152000E+01  1.230739116E+02  1.784161275E-06  0.00000E+00  9.000E+00
#rwgt            1           1   4.6573950604100321E-002           9       72962           0
</event>
<event>
      5   9999  3.79277E-02  1.12642E+01 -1.00000E+00  1.89965E-01
      21    -1     0     0   502   512  0.000000000E+00  0.000000000E+00  2.210468456E+03  2.210468456E+03  0.000000000E+00  0.00000E+00  9.000E+00
      21    -1     0     0   501   502  0.000000000E+00  0.000000000E+00 -1.525595842E+02  1.525595842E+02  0.000000000E+00  0.00000E+00  9.000E+00
      25     1     1     2     0     0 -3.168739992E-01 -1.592649620E+02 -8.591941123E+00  2.026431593E+02  1.250000000E+02  0.00000E+00  9.000E+00
      25     1     1     2     0     0  4.487137992E-01  1.480015414E+02  1.530174960E+02  2.468684096E+02  1.250000000E+02  0.00000E+00  9.000E+00
      21     1     1     2   501   512 -1.318398000E-01  1.126342067E+01  1.913483317E+03  1.913516471E+03  0.000000000E+00  0.00000E+00  9.000E+00
#rwgt            1           1   4.6816538229612112E-002           9       73085           0
</event>
<event>
      5   9999  3.79277E-02  3.29347E+01 -1.00000E+00  1.50277E-01
      21    -1     0     0   502   501  0.000000000E+00  0.000000000E+00  9.935629313E+02  9.935629313E+02  0.000000000E+00  0.00000E+00  9.000E+00
      21    -1     0     0   501   511  0.000000000E+00  0.000000000E+00 -6.249402059E+01  6.249402059E+01  0.000000000E+00  0.00000E+00  9.000E+00
      25     1     1     2     0     0 -1.116890278E+02  1.335319576E+02  5.315885594E+02  5.731636931E+02  1.250000000E+02  0.00000E+00  9.000E+00
      25     1     1     2     0     0  8.067284756E+01 -1.446085999E+02  3.992710070E+02  4.499578786E+02  1.250000000E+02  0.00000E+00  9.000E+00
      21     1     1     2   502   511  3.101618026E+01  1.107664231E+01  2.093443506E-01  3.293538019E+01  5.939998452E-07  0.00000E+00  9.000E+00
#rwgt            1           1   4.2972586294608130E-002           9       73394           0
</event>
<event>
      5   9999  3.79277E-02  1.98442E+01 -1.00000E+00  1.66650E-01
       2    -1     0     0   502     0  0.000000000E+00  0.000000000E+00  6.894919966E+02  6.894919966E+02  0.000000000E+00  0.00000E+00  9.000E+00
      21    -1     0     0   501   502  0.000000000E+00  0.000000000E+00 -6.749315553E+01  6.749315553E+01  0.000000000E+00  0.00000E+00  9.000E+00
      25     1     1     2     0     0 -8.352385040E+01 -9.783834588E+01  3.927708103E+02  4.317898620E+02  1.250000000E+02  0.00000E+00  9.000E+00
      25     1     1     2     0     0  6.473361736E+01  1.042195593E+02  1.156250317E+02  2.098721176E+02  1.250000000E+02  0.00000E+00  9.000E+00
       2     1     1     2   501     0  1.879023304E+01 -6.381213447E+00  1.136029990E+02  1.153231726E+02  1.348699152E-06  0.00000E+00  9.000E+00
#rwgt            1           1   4.0850571098850028E-002           9       73601           0
</event>
<event>
      5   9999  3.79277E-02  5.60068E+01 -1.00000E+00  1.36321E-01
      21    -1     0     0   502   501  0.000000000E+00  0.000000000E+00  5.447165840E+02  5.447165840E+02  0.000000000E+00  0.00000E+00  9.000E+00
       2    -1     0     0   501     0  0.000000000E+00  0.000000000E+00 -2.464090809E+02  2.464090809E+02  0.000000000E+00  0.00000E+00  9.000E+00
      25     1     1     2     0     0  1.533944663E+02  3.891416219E+00  3.095664907E+02  3.674253905E+02  1.250000000E+02  0.00000E+00  9.000E+00
      25     1     1     2     0     0 -1.228681717E+02  4.306497849E+01  1.614348617E+02  2.421515942E+02  1.250000000E+02  0.00000E+00  9.000E+00
       2     1     1     2   502     0 -3.052629463E+01 -4.695639471E+01 -1.726938494E+02  1.815486802E+02  1.907348633E-06  0.00000E+00  9.000E+00
#rwgt            1           1   1.5635185844028052E-002           9       73750           0
</event>
<event>
      5   9999  3.79277E-02  3.44798E+01 -1.00000E+00  1.48957E-01
      21    -1     0     0   511   501  0.000000000E+00  0.000000000E+00  4.475179721E+01  4.475179721E+01  0.000000000E+00  0.00000E+00  9.000E+00
      21    -1     0     0   501   502  0.000000000E+00  0.000000000E+00 -1.090448208E+03  1.090448208E+03  0.000000000E+00  0.00000E+00  9.000E+00
      25     1     1     2     0     0  7.908269681E+01  2.623390945E+01 -1.610478505E+02  2.202355582E+02  1.250000000E+02  0.00000E+00  9.000E+00
      25     1     1     2     0     0 -1.029327829E+02 -1.333562888E+00 -8.527620171E+02  8.680005726E+02  1.250000000E+02  0.00000E+00  9.000E+00
      21     1     1     2   511   502  2.385008612E+01 -2.490034656E+01 -3.188654324E+01  4.696387449E+01  6.743495762E-07  0.00000E+00  9.000E+00
#rwgt            1           1   4.7232659213141175E-002           9       73992           0
</event>
<event>
      5   9999 -3.79277E-02  1.23050E+01 -1.00000E+00  1.85889E-01
      21    -1     0     0   502   501  0.000000000E+00  0.000000000E+00  2.981214949E+01  2.981214949E+01  0.000000000E+00  0.00000E+00  9.000E+00
      21    -1     0     0   501   512  0.000000000E+00  0.000000000E+00 -1.108376087E+03  1.108376087E+03  0.000000000E+00  0.00000E+00  9.000E+00
      25     1     1     2     0     0 -3.428865964E+01 -1.824655943E+01 -7.861879140E+02  7.970100910E+02  1.250000000E+02  0.00000E+00  9.000E+00
      25     1     1     2     0     0  2.204507309E+01  1.701878986E+01 -1.456811476E+02  1.939680933E+02  1.250000000E+02  0.00000E+00  9.000E+00
      21     1     1     2   502   512  1.224358655E+01  1.227769566E+00 -1.466948763E+02  1.472100525E+02  1.907348633E-06  0.00000E+00  9.000E+00
#rwgt            1           1  -2.6474118801659837E-002           9       74113           0
</event>
<event>
      5   9999  3.79277E-02  3.29257E+01 -1.00000E+00  1.50285E-01
      21    -1     0     0   511   501  0.000000000E+00  0.000000000E+00  5.076641925E+02  5.076641925E+02  0.000000000E+00  0.00000E+00  9.000E+00
      21    -1     0     0   501   502  0.000000000E+00  0.000000000E+00 -1.813007968E+02  1.813007968E+02  0.000000000E+00  0.00000E+00  9.000E+00
      25     1     1     2     0     0  3.230195179E+00 -2.534173582E+02  1.400527994E+02  3.153895658E+02  1.250000000E+02  0.00000E+00  9.000E+00
      25     1     1     2     0     0 -1.515783799E+01  2.227280516E+02  8.907850396E+01  2.709197758E+02  1.250000000E+02  0.00000E+00  9.000E+00
      21     1     1     2   511   502  1.192764281E+01  3.068930661E+01  9.723209239E+01  1.026556477E+02  1.348699152E-06  0.00000E+00  9.000E+00
#rwgt            1           1   4.0630147126234341E-002           9       74509           0
</event>
<event>
      5   9999  3.79277E-02  4.33064E+01 -1.00000E+00  1.42733E-01
      21    -1     0     0   502   501  0.000000000E+00  0.000000000E+00  2.389422632E+03  2.389422632E+03  0.000000000E+00  0.00000E+00  9.000E+00
      21    -1     0     0   501   512  0.000000000E+00  0.000000000E+00 -2.101928310E+01  2.101928310E+01  0.000000000E+00  0.00000E+00  9.000E+00
      25     1     1     2     0     0 -5.297780394E+01  7.057521763E+01  1.894942072E+03  1.901109666E+03  1.250000000E+02  0.00000E+00  9.000E+00
      25     1     1     2     0     0  9.686272652E+00 -7.170933856E+01  3.673437382E+02  3.947182224E+02  1.250000000E+02  0.00000E+00  9.000E+00
      21     1     1     2   502   512  4.329153129E+01  1.134120934E+00  1.061175394E+02  1.146140265E+02  3.568322551E-06  0.00000E+00  9.000E+00
#rwgt            1           1   2.2383337084990417E-002           9       74642           0
</event>
<event>
      5   9999  3.79277E-02  2.25193E+01 -1.00000E+00  1.62227E-01
      21    -1     0     0   502   511  0.000000000E+00  0.000000000E+00  5.698358629E+02  5.698358629E+02  0.000000000E+00  0.00000E+00  9.000E+00
      21    -1     0     0   501   502  0.000000000E+00  0.000000000E+00 -1.529268213E+02  1.529268213E+02  0.000000000E+00  0.00000E+00  9.000E+00
      25     1     1     2     0     0  9.493416397E+00 -9.371709292E+01  2.041590369E+02  2.572526595E+02  1.250000000E+02  0.00000E+00  9.000E+00
      25     1     1     2     0     0 -2.596750119E+01  1.090704017E+02 -6.995840707E+01  1.819061362E+02  1.250000000E+02  0.00000E+00  9.000E+00
      21     1     1     2   501   511  1.647408479E+01 -1.535330881E+01  2.827084117E+02  2.836038886E+02  3.814697266E-06  0.00000E+00  9.000E+00
#rwgt            1           1   2.2436255383117099E-002           9       74745           0
</event>
<event>
      5   9999  3.79277E-02  4.35451E+01 -1.00000E+00  1.42589E-01
      21    -1     0     0   512   501  0.000000000E+00  0.000000000E+00  1.825708812E+02  1.825708812E+02  0.000000000E+00  0.00000E+00  9.000E+00
      21    -1     0     0   501   502  0.000000000E+00  0.000000000E+00 -4.723181361E+02  4.723181361E+02  0.000000000E+00  0.00000E+00  9.000E+00
      25     1     1     2     0     0  1.651086030E+02 -5.297375325E+01 -2.985530429E+02  3.671865857E+02  1.250000000E+02  0.00000E+00  9.000E+00
      25     1     1     2     0     0 -1.729110560E+02  9.581415826E+01 -2.115957703E+01  2.348431687E+02  1.250000000E+02  0.00000E+00  9.000E+00
      21     1     1     2   512   502  7.802453007E+00 -4.284040501E+01  2.996536500E+01  5.285926290E+01  1.305872339E-06  0.00000E+00  9.000E+00
#rwgt            1           1  0.21931758670798565                9       74880           0
</event>
<event>
      5   9999  3.79277E-02  8.34480E+01 -1.00000E+00  1.27469E-01
      21    -1     0     0   502   501  0.000000000E+00  0.000000000E+00  3.575057430E+02  3.575057430E+02  0.000000000E+00  0.00000E+00  9.000E+00
      21    -1     0     0   501   511  0.000000000E+00  0.000000000E+00 -1.628663310E+02  1.628663310E+02  0.000000000E+00  0.00000E+00  9.000E+00
      25     1     1     2     0     0 -4.227465149E+01 -9.203348260E-01  2.178321699E+02  2.546838185E+02  1.250000000E+02  0.00000E+00  9.000E+00
      25     1     1     2     0     0  1.118016809E+02  4.706746996E+01  1.312977981E+01  1.746778570E+02  1.250000000E+02  0.00000E+00  9.000E+00
      21     1     1     2   502   511 -6.952702945E+01 -4.614713513E+01 -3.632253764E+01  9.101039856E+01  1.907348633E-06  0.00000E+00  9.000E+00
#rwgt            1           1   4.4327443537661007E-002           9       75075           0
</event>
<event>
      5   9999  3.79277E-02  8.05790E+02 -1.00000E+00  9.33003E-02
      21    -1     0     0   502   501  0.000000000E+00  0.000000000E+00  1.100615167E+03  1.100615167E+03  0.000000000E+00  0.00000E+00  9.000E+00
       2    -1     0     0   501     0  0.000000000E+00  0.000000000E+00 -1.073035310E+03  1.073035310E+03  0.000000000E+00  0.00000E+00  9.000E+00
      25     1     1     2     0     0  6.038722996E+02 -4.905355990E+01 -3.184532863E+02  6.957769050E+02  1.250000000E+02  0.00000E+00  9.000E+00
      25     1     1     2     0     0 -2.989922896E+01  6.146087603E+02  1.035137087E+02  6.363788023E+02  1.250000000E+02  0.00000E+00  9.000E+00
       2     1     1     2   502     0 -5.739730706E+02 -5.655552004E+02  2.425194345E+02  8.414947692E+02  9.344061824E-06  0.00000E+00  9.000E+00
#rwgt            2          13   5.0834875600268182E-005           9       75209           0
</event>
<event>
      5   9999  3.79277E-02  9.09721E+01 -1.00000E+00  1.25705E-01
      21    -1     0     0   502   501  0.000000000E+00  0.000000000E+00  2.695412337E+01  2.695412337E+01  0.000000000E+00  0.00000E+00  9.000E+00
       2    -1     0     0   501     0  0.000000000E+00  0.000000000E+00 -4.145393975E+03  4.145393975E+03  0.000000000E+00  0.00000E+00  9.000E+00
      25     1     1     2     0     0 -1.316315631E+02 -1.082336179E+02 -1.231574468E+03  1.249576750E+03  1.250000000E+02  0.00000E+00  9.000E+00
      25     1     1     2     0     0  7.122715719E+01  4.020985487E+01 -3.081254373E+02  3.424272557E+02  1.250000000E+02  0.00000E+00  9.000E+00
       2     1     1     2   502     0  6.040440590E+01  6.802376299E+01 -2.578739946E+03  2.580344093E+03  3.051757812E-05  0.00000E+00  9.000E+00
#rwgt            1           1   5.5315776906162545E-002           9       75288           0
</event>
<event>
      5   9999  3.79277E-02  1.28900E+02 -1.00000E+00  1.19064E-01
      21    -1     0     0   502   501  0.000000000E+00  0.000000000E+00  2.108727568E+02  2.108727568E+02  0.000000000E+00  0.00000E+00  9.000E+00
      21    -1     0     0   501   511  0.000000000E+00  0.000000000E+00 -5.601491611E+02  5.601491611E+02  0.000000000E+00  0.00000E+00  9.000E+00
      25     1     1     2     0     0  2.050797763E+02  1.490682994E+02  1.415001089E+01  2.830270223E+02  1.250000000E+02  0.00000E+00  9.000E+00
      25     1     1     2     0     0 -8.225545293E+01 -1.099612647E+02 -2.744472468E+02  3.313664596E+02  1.250000000E+02  0.00000E+00  9.000E+00
      21     1     1     2   502   511 -1.228243233E+02 -3.910703475E+01 -8.897916839E+01  1.566284360E+02  4.156969970E-06  0.00000E+00  9.000E+00
#rwgt            1           1   3.4465844960156589E-002           9       75350           0
</event>
<event>
      5   9999  3.79277E-02  2.04427E+02 -1.00000E+00  1.11303E-01
      21    -1     0     0   502   501  0.000000000E+00  0.000000000E+00  2.747854314E+02  2.747854314E+02  0.000000000E+00  0.00000E+00  9.000E+00
      21    -1     0     0   501   512  0.000000000E+00  0.000000000E+00 -1.035300901E+03  1.035300901E+03  0.000000000E+00  0.00000E+00  9.000E+00
      25     1     1     2     0     0 -3.160667781E+01 -2.160245843E+01  1.857879244E+02  2.271735045E+02  1.250000000E+02  0.00000E+00  9.000E+00
      25     1     1     2     0     0 -6.581293500E+01  2.013236123E+02 -7.846582142E+02  8.222992475E+02  1.250000000E+02  0.00000E+00  9.000E+00
      21     1     1     2   502   512  9.741961281E+01 -1.797211539E+02 -1.616451793E+02  2.606135801E+02  3.814697266E-06  0.00000E+00  9.000E+00
#rwgt            1           1   3.7638520494590093E-002           9       75425           0
</event>
<event>
      5   9999  3.79277E-02  5.18992E+01 -1.00000E+00  1.38158E-01
      21    -1     0     0   502   501  0.000000000E+00  0.000000000E+00  6.183604975E+01  6.183604975E+01  0.000000000E+00  0.00000E+00  9.000E+00
       1    -1     0     0   501     0  0.000000000E+00  0.000000000E+00 -2.453271439E+03  2.453271439E+03  0.000000000E+00  0.00000E+00  9.000E+00
      25     1     1     2     0     0 -1.083205307E+02 -1.747296147E+02 -2.966811528E+02  3.819796881E+02  1.250000000E+02  0.00000E+00  9.000E+00
      25     1     1     2     0     0  1.339437759E+02  1.295967525E+02 -6.538542577E+02  6.912934570E+02  1.250000000E+02  0.00000E+00  9.000E+00
       1     1     1     2   502     0 -2.562324521E+01  4.513286219E+01 -1.440899978E+03  1.441834343E+03  1.525878906E-05  0.00000E+00  9.000E+00
#rwgt            1           1   4.5276598404833369E-002           9       75522           0
</event>
<event>
      5   9999  3.79277E-02  7.06428E+01 -1.00000E+00  1.31020E-01
      21    -1     0     0   502   501  0.000000000E+00  0.000000000E+00  1.973638629E+02  1.973638629E+02  0.000000000E+00  0.00000E+00  9.000E+00
      21    -1     0     0   511   502  0.000000000E+00  0.000000000E+00 -6.151688986E+02  6.151688986E+02  0.000000000E+00  0.00000E+00  9.000E+00
      25     1     1     2     0     0 -1.737467130E+02 -4.897329954E+01  3.126800797E+01  2.217859163E+02  1.250000000E+02  0.00000E+00  9.000E+00
      25     1     1     2     0     0  1.803334601E+02 -2.136175765E+01 -1.137697604E+02  2.480827279E+02  1.250000000E+02  0.00000E+00  9.000E+00
      21     1     1     2   511   501 -6.586747080E+00  7.033505720E+01 -3.353032833E+02  3.426641173E+02  3.814697266E-06  0.00000E+00  9.000E+00
#rwgt            1           1   3.8350293462315665E-002           9       75592           0
</event>
<event>
      5   9999  3.79277E-02  1.59286E+01 -1.00000E+00  1.74961E-01
      21    -1     0     0   502   501  0.000000000E+00  0.000000000E+00  2.932224834E+03  2.932224834E+03  0.000000000E+00  0.00000E+00  9.000E+00
      21    -1     0     0   512   502  0.000000000E+00  0.000000000E+00 -1.083756315E+02  1.083756315E+02  0.000000000E+00  0.00000E+00  9.000E+00
      25     1     1     2     0     0  2.089393096E+02 -5.402293012E+01  9.224022293E+02  9.555234088E+02  1.250000000E+02  0.00000E+00  9.000E+00
      25     1     1     2     0     0 -2.238316111E+02  4.837144677E+01  1.983960122E+03  2.001040518E+03  1.250000000E+02  0.00000E+00  9.000E+00
      21     1     1     2   512   501  1.489230148E+01  5.651483345E+00 -8.251314966E+01  8.403653833E+01  3.438521648E-06  0.00000E+00  9.000E+00
#rwgt            1           1   4.9457249458121709E-002           9       75654           0
</event>
<event>
      5   9999  3.79277E-02  4.42999E+00 -1.00000E+00  2.53442E-01
      21    -1     0     0   502   501  0.000000000E+00  0.000000000E+00  1.063838686E+02  1.063838686E+02  0.000000000E+00  0.00000E+00  9.000E+00
      21    -1     0     0   501   511  0.000000000E+00  0.000000000E+00 -4.039394016E+02  4.039394016E+02  0.000000000E+00  0.00000E+00  9.000E+00
      25     1     1     2     0     0 -1.345145812E+02  6.503178096E+01 -7.814639092E+01  2.098932193E+02  1.250000000E+02  0.00000E+00  9.000E+00
      25     1     1     2     0     0  1.389362695E+02 -6.530285016E+01 -2.034779067E+02  2.838943601E+02  1.250000000E+02  0.00000E+00  9.000E+00
      21     1     1     2   502   511 -4.421688286E+00  2.710691905E-01 -1.593123548E+01  1.653569078E+01  2.384185791E-07  0.00000E+00  9.000E+00
#rwgt            1           1   3.7509288245034418E-002           9       75865           0
</event>
<event>
      5   9999  3.79277E-02  5.55156E+01 -1.00000E+00  1.36531E-01
      21    -1     0     0   502   512  0.000000000E+00  0.000000000E+00  2.442781085E+02  2.442781085E+02  0.000000000E+00  0.00000E+00  9.000E+00
      21    -1     0     0   501   502  0.000000000E+00  0.000000000E+00 -2.097770105E+03  2.097770105E+03  0.000000000E+00  0.00000E+00  9.000E+00
      25     1     1     2     0     0 -1.925664759E+02 -6.516581577E+01 -9.570251554E+02  9.863318809E+02  1.250000000E+02  0.00000E+00  9.000E+00
      25     1     1     2     0     0  1.875167847E+02  9.880402254E+00 -1.111229570E+03  1.133894318E+03  1.250000000E+02  0.00000E+00  9.000E+00
      21     1     1     2   501   512  5.049691277E+00  5.528541351E+01  2.147627291E+02  2.218220146E+02  7.629394531E-06  0.00000E+00  9.000E+00
#rwgt            1           1   9.3236631479964971E-002           9       76516           0
</event>
<event>
      5   9999  3.79277E-02  6.23667E+01 -1.00000E+00  1.33812E-01
      21    -1     0     0   502   501  0.000000000E+00  0.000000000E+00  7.706524686E+02  7.706524686E+02  0.000000000E+00  0.00000E+00  9.000E+00
      21    -1     0     0   511   502  0.000000000E+00  0.000000000E+00 -1.060214869E+02  1.060214869E+02  0.000000000E+00  0.00000E+00  9.000E+00
      25     1     1     2     0     0  1.565248721E+02 -4.256331720E+01  4.420474760E+02  4.871782452E+02  1.250000000E+02  0.00000E+00  9.000E+00
      25     1     1     2     0     0 -2.174003320E+02  5.611979838E+01  1.724552541E+02  3.094804530E+02  1.250000000E+02  0.00000E+00  9.000E+00
      21     1     1     2   511   501  6.087545988E+01 -1.355648118E+01  5.012825149E+01  8.001525726E+01  0.000000000E+00  0.00000E+00  9.000E+00
#rwgt            1           1   4.2175853728774512E-002           9       76637           0
</event>
<event>
      5   9999  3.79277E-02  6.61357E+01 -1.00000E+00  1.32482E-01
      21    -1     0     0   502   512  0.000000000E+00  0.000000000E+00  7.946673476E+01  7.946673476E+01  0.000000000E+00  0.00000E+00  9.000E+00
      21    -1     0     0   501   502  0.000000000E+00  0.000000000E+00 -4.597614019E+02  4.597614019E+02  0.000000000E+00  0.00000E+00  9.000E+00
      25     1     1     2     0     0  9.503069536E+01 -7.180798925E+01 -1.396132010E+02  2.220451897E+02  1.250000000E+02  0.00000E+00  9.000E+00
      25     1     1     2     0     0 -3.216601105E+01  5.126642437E+01 -1.806522296E+02  2.278664666E+02  1.250000000E+02  0.00000E+00  9.000E+00
      21     1     1     2   501   512 -6.286468432E+01  2.054156488E+01 -6.002923654E+01  8.931648035E+01  0.000000000E+00  0.00000E+00  9.000E+00
#rwgt            1           1   3.0311023479297088E-002           9       76843           0
</event>
<event>
      5   9999  3.79277E-02  1.24198E+02 -1.00000E+00  1.19738E-01
      21    -1     0     0   502   501  0.000000000E+00  0.000000000E+00  6.802954564E+02  6.802954564E+02  0.000000000E+00  0.00000E+00  9.000E+00
      21    -1     0     0   511   502  0.000000000E+00  0.000000000E+00 -9.429530342E+02  9.429530342E+02  0.000000000E+00  0.00000E+00  9.000E+00
      25     1     1     2     0     0 -3.683846255E+02 -1.465917855E+02  4.520032955E+02  6.141077780E+02  1.250000000E+02  0.00000E+00  9.000E+00
      25     1     1     2     0     0  2.454598330E+02  1.643301144E+02 -4.010497145E+01  3.232465388E+02  1.250000000E+02  0.00000E+00  9.000E+00
      21     1     1     2   511   501  1.229247925E+02 -1.773832892E+01 -6.745559018E+02  6.858941738E+02  0.000000000E+00  0.00000E+00  9.000E+00
#rwgt            1           1   3.4158970419907383E-002           9       76907           0
</event>
<event>
      5   9999  3.79277E-02  1.74881E+01 -1.00000E+00  1.71326E-01
      21    -1     0     0   502   501  0.000000000E+00  0.000000000E+00  2.651770073E+01  2.651770073E+01  0.000000000E+00  0.00000E+00  9.000E+00
      21    -1     0     0   512   502  0.000000000E+00  0.000000000E+00 -2.216146881E+03  2.216146881E+03  0.000000000E+00  0.00000E+00  9.000E+00
      25     1     1     2     0     0 -1.474649521E+02 -6.275272175E+01 -5.932566210E+02  6.271062387E+02  1.250000000E+02  0.00000E+00  9.000E+00
      25     1     1     2     0     0  1.611913799E+02  7.358876678E+01 -1.244469191E+03  1.263220699E+03  1.250000000E+02  0.00000E+00  9.000E+00
      21     1     1     2   512   501 -1.372642780E+01 -1.083604503E+01 -3.519033681E+02  3.523376437E+02  6.607249480E-06  0.00000E+00  9.000E+00
#rwgt            1           1  0.14904851823607776                9       77011           0
</event>
<event>
      5   9999  3.79277E-02  8.52674E+00 -1.00000E+00  2.04114E-01
      21    -1     0     0   502   501  0.000000000E+00  0.000000000E+00  3.389695303E+02  3.389695303E+02  0.000000000E+00  0.00000E+00  9.000E+00
      21    -1     0     0   501   511  0.000000000E+00  0.000000000E+00 -1.552962942E+02  1.552962942E+02  0.000000000E+00  0.00000E+00  9.000E+00
      25     1     1     2     0     0  7.969507226E+00  1.368629783E+02  2.197963204E+02  2.876289456E+02  1.250000000E+02  0.00000E+00  9.000E+00
      25     1     1     2     0     0 -7.685328060E+00 -1.453849840E+02 -2.638467513E+01  1.936930792E+02  1.250000000E+02  0.00000E+00  9.000E+00
      21     1     1     2   502   511 -2.841791662E-01  8.522005661E+00 -9.738409172E+00  1.294379973E+01  2.064765462E-07  0.00000E+00  9.000E+00
#rwgt            1           1   2.7042233889241624E-002           9       77332           0
</event>
<event>
      5   9999  3.79277E-02  3.80352E+01 -1.00000E+00  1.46210E-01
       2    -1     0     0   502     0  0.000000000E+00  0.000000000E+00  3.770154313E+03  3.770154313E+03  0.000000000E+00  0.00000E+00  9.000E+00
      21    -1     0     0   501   502  0.000000000E+00  0.000000000E+00 -4.234322279E+01  4.234322279E+01  0.000000000E+00  0.00000E+00  9.000E+00
      25     1     1     2     0     0 -4.999163760E+01  1.607602180E+02  5.288816163E+02  5.689321362E+02  1.250000000E+02  0.00000E+00  9.000E+00
      25     1     1     2     0     0  1.219106622E+01 -1.565423945E+02  4.316668586E+02  4.760414059E+02  1.250000000E+02  0.00000E+00  9.000E+00
       2     1     1     2   501     0  3.780057138E+01 -4.217823522E+00  2.767262616E+03  2.767523994E+03  3.051757812E-05  0.00000E+00  9.000E+00
#rwgt            1           1   4.6813722469118066E-002           9       77597           0
</event>
<event>
      5   9999  3.79277E-02  9.73295E+01 -1.00000E+00  1.24359E-01
      21    -1     0     0   502   501  0.000000000E+00  0.000000000E+00  1.025880821E+03  1.025880821E+03  0.000000000E+00  0.00000E+00  9.000E+00
      21    -1     0     0   501   511  0.000000000E+00  0.000000000E+00 -6.305841090E+02  6.305841090E+02  0.000000000E+00  0.00000E+00  9.000E+00
      25     1     1     2     0     0  1.303380483E+02  4.594937889E+01  7.163236504E+02  7.401647954E+02  1.250000000E+02  0.00000E+00  9.000E+00
      25     1     1     2     0     0 -2.237159480E+02 -7.340109253E+01  2.328418151E+02  3.539447084E+02  1.250000000E+02  0.00000E+00  9.000E+00
      21     1     1     2   502   511  9.337789966E+01  2.745171364E+01 -5.538687537E+02  5.623554259E+02  7.629394531E-06  0.00000E+00  9.000E+00
#rwgt            1           1   3.6136072250489322E-002           9       77850           0
</event>
<event>
      5   9999  3.79277E-02  1.48615E+02 -1.00000E+00  1.16554E-01
      21    -1     0     0   502   501  0.000000000E+00  0.000000000E+00  1.211192094E+03  1.211192094E+03  0.000000000E+00  0.00000E+00  9.000E+00
      21    -1     0     0   501   512  0.000000000E+00  0.000000000E+00 -6.910803806E+01  6.910803806E+01  0.000000000E+00  0.00000E+00  9.000E+00
      25     1     1     2     0     0 -8.382406158E+01  5.138947781E+01  1.286299320E+02  2.045434211E+02  1.250000000E+02  0.00000E+00  9.000E+00
      25     1     1     2     0     0  1.100392934E+02  9.489468864E+01  7.411934087E+02  7.655758076E+02  1.250000000E+02  0.00000E+00  9.000E+00
      21     1     1     2   502   512 -2.621523186E+01 -1.462841665E+02  2.722607153E+02  3.101809034E+02  3.814697266E-06  0.00000E+00  9.000E+00
#rwgt            1           1   3.4009830279399217E-002           9       78025           0
</event>
<event>
      5   9999  3.79277E-02  1.07684E+02 -1.00000E+00  1.22399E-01
      21    -1     0     0   502   511  0.000000000E+00  0.000000000E+00  3.746369356E+02  3.746369356E+02  0.000000000E+00  0.00000E+00  9.000E+00
      21    -1     0     0   501   502  0.000000000E+00  0.000000000E+00 -1.891482627E+03  1.891482627E+03  0.000000000E+00  0.00000E+00  9.000E+00
      25     1     1     2     0     0  1.490645014E+02 -2.302068871E+02 -1.108349174E+03  1.148598419E+03  1.250000000E+02  0.00000E+00  9.000E+00
      25     1     1     2     0     0 -7.069418560E+01  1.563557761E+02 -7.395376243E+02  7.694060660E+02  1.250000000E+02  0.00000E+00  9.000E+00
      21     1     1     2   501   511 -7.837031581E+01  7.385111099E+01  3.310411068E+02  3.481150778E+02  1.009274029E-05  0.00000E+00  9.000E+00
#rwgt            1           1   3.2097634223367033E-002           9       78099           0
</event>
<event>
      5   9999  3.79277E-02  5.81194E+01 -1.00000E+00  1.35447E-01
      21    -1     0     0   502   501  0.000000000E+00  0.000000000E+00  1.094540286E+02  1.094540286E+02  0.000000000E+00  0.00000E+00  9.000E+00
      21    -1     0     0   501   512  0.000000000E+00  0.000000000E+00 -8.494249449E+02  8.494249449E+02  0.000000000E+00  0.00000E+00  9.000E+00
      25     1     1     2     0     0  1.005328130E+02 -1.818134643E+02 -1.640423665E+02  2.927420030E+02  1.250000000E+02  0.00000E+00  9.000E+00
      25     1     1     2     0     0 -1.584470770E+02  1.866924951E+02 -4.481114349E+02  5.257265658E+02  1.250000000E+02  0.00000E+00  9.000E+00
      21     1     1     2   502   512  5.791426397E+01 -4.879030823E+00 -1.278171148E+02  1.404104047E+02  1.907348633E-06  0.00000E+00  9.000E+00
#rwgt            1           1   3.8472923191879005E-002           9       78194           0
</event>
<event>
      5   9999  3.79277E-02  5.60599E+01 -1.00000E+00  1.36299E-01
      21    -1     0     0   511   501  0.000000000E+00  0.000000000E+00  1.138483180E+03  1.138483180E+03  0.000000000E+00  0.00000E+00  9.000E+00
      21    -1     0     0   501   502  0.000000000E+00  0.000000000E+00 -5.737047889E+01  5.737047889E+01  0.000000000E+00  0.00000E+00  9.000E+00
      25     1     1     2     0     0  1.296576174E+01 -1.211225553E+02  3.274027508E+02  3.710206809E+02  1.250000000E+02  0.00000E+00  9.000E+00
      25     1     1     2     0     0 -1.641595182E+01  1.770761424E+02  3.159814995E+02  3.835293362E+02  1.250000000E+02  0.00000E+00  9.000E+00
      21     1     1     2   511   502  3.450190079E+00 -5.595358705E+01  4.377284512E+02  4.413036423E+02  0.000000000E+00  0.00000E+00  9.000E+00
#rwgt            1           1   7.4926342594767867E-002           9       78292           0
</event>
<event>
      5   9999  3.79277E-02  4.85345E+01 -1.00000E+00  1.39817E-01
      21    -1     0     0   512   501  0.000000000E+00  0.000000000E+00  7.398539375E+01  7.398539375E+01  0.000000000E+00  0.00000E+00  9.000E+00
      21    -1     0     0   501   502  0.000000000E+00  0.000000000E+00 -6.014534563E+02  6.014534563E+02  0.000000000E+00  0.00000E+00  9.000E+00
      25     1     1     2     0     0  1.174001228E+02 -3.669724687E+01 -2.390731607E+02  2.964969695E+02  1.250000000E+02  0.00000E+00  9.000E+00
      25     1     1     2     0     0 -1.490567860E+02 -9.212028745E-02 -2.516144109E+02  3.180451944E+02  1.250000000E+02  0.00000E+00  9.000E+00
      21     1     1     2   512   502  3.165666319E+01  3.678936716E+01 -3.678049092E+01  6.089668606E+01  4.768371582E-07  0.00000E+00  9.000E+00
#rwgt            1           1   4.2188243056719990E-002           9       78389           0
</event>
<event>
      5   9999  3.79277E-02  7.87478E+01 -1.00000E+00  1.28682E-01
      21    -1     0     0   502   501  0.000000000E+00  0.000000000E+00  1.546432034E+03  1.546432034E+03  0.000000000E+00  0.00000E+00  9.000E+00
      21    -1     0     0   501   511  0.000000000E+00  0.000000000E+00 -8.823670854E+01  8.823670854E+01  0.000000000E+00  0.00000E+00  9.000E+00
      25     1     1     2     0     0  2.919503571E+00 -1.443847709E+02  1.029281229E+03  1.046852585E+03  1.250000000E+02  0.00000E+00  9.000E+00
      25     1     1     2     0     0  5.276826029E+01  8.870626320E+01  4.712904093E+02  4.983903493E+02  1.250000000E+02  0.00000E+00  9.000E+00
      21     1     1     2   502   511 -5.568776386E+01  5.567850774E+01 -4.237631314E+01  8.942580826E+01  3.234066955E-06  0.00000E+00  9.000E+00
#rwgt            1           1   2.3068450497084409E-002           9       78692           0
</event>
<event>
      5   9999  3.79277E-02  7.14419E+01 -1.00000E+00  1.30774E-01
      21    -1     0     0   502   501  0.000000000E+00  0.000000000E+00  1.278569432E+02  1.278569432E+02  0.000000000E+00  0.00000E+00  9.000E+00
      21    -1     0     0   512   502  0.000000000E+00  0.000000000E+00 -7.032488644E+02  7.032488644E+02  0.000000000E+00  0.00000E+00  9.000E+00
      25     1     1     2     0     0 -1.463306892E+02 -1.750495701E+02 -3.987684803E+02  4.761263734E+02  1.250000000E+02  0.00000E+00  9.000E+00
      25     1     1     2     0     0  1.462187422E+02  1.036077281E+02 -7.550997801E+01  2.311736115E+02  1.250000000E+02  0.00000E+00  9.000E+00
      21     1     1     2   512   501  1.119470172E-01  7.144184200E+01 -1.011134630E+02  1.238058226E+02  1.348699152E-06  0.00000E+00  9.000E+00
#rwgt            1           1   2.5704269097010742E-002           9       78776           0
</event>
<event>
      5   9999  3.79277E-02  1.47863E+01 -1.00000E+00  1.77973E-01
      21    -1     0     0   502   511  0.000000000E+00  0.000000000E+00  3.741101158E+02  3.741101158E+02  0.000000000E+00  0.00000E+00  9.000E+00
      21    -1     0     0   501   502  0.000000000E+00  0.000000000E+00 -1.544689153E+02  1.544689153E+02  0.000000000E+00  0.00000E+00  9.000E+00
      25     1     1     2     0     0 -1.510833442E+02 -5.498719694E+00 -1.852161046E+01  1.970392419E+02  1.250000000E+02  0.00000E+00  9.000E+00
      25     1     1     2     0     0  1.416536108E+02 -5.890480440E+00  1.476999202E+02  2.398764466E+02  1.250000000E+02  0.00000E+00  9.000E+00
      21     1     1     2   501   511  9.429733316E+00  1.138920013E+01  9.046289075E+01  9.166334248E+01  0.000000000E+00  0.00000E+00  9.000E+00
#rwgt            1           1   2.6349942887413741E-002           9       78917           0
</event>
<event>
      5   9999  3.79277E-02  2.24177E+01 -1.00000E+00  1.62381E-01
       1    -1     0     0   502     0  0.000000000E+00  0.000000000E+00  2.901657142E+03  2.901657142E+03  0.000000000E+00  0.00000E+00  9.000E+00
      21    -1     0     0   501   502  0.000000000E+00  0.000000000E+00 -1.973360519E+02  1.973360519E+02  0.000000000E+00  0.00000E+00  9.000E+00
      25     1     1     2     0     0 -2.062567254E+02  3.496863754E+02  7.209544451E+02  8.367931105E+02  1.250000000E+02  0.00000E+00  9.000E+00
      25     1     1     2     0     0  2.282737908E+02 -3.454672408E+02  1.962946782E+02  4.749875143E+02  1.250000000E+02  0.00000E+00  9.000E+00
       1     1     1     2   501     0 -2.201706548E+01 -4.219134573E+00  1.787071967E+03  1.787212569E+03  2.157918644E-05  0.00000E+00  9.000E+00
#rwgt            1           1  0.13968826985146174                9       79103           0
</event>
<event>
      5   9999  3.79277E-02  2.34490E+02 -1.00000E+00  1.09189E-01
      21    -1     0     0   502   501  0.000000000E+00  0.000000000E+00  2.580427111E+02  2.580427111E+02  0.000000000E+00  0.00000E+00  9.000E+00
      21    -1     0     0   501   511  0.000000000E+00  0.000000000E+00 -8.472201670E+02  8.472201670E+02  0.000000000E+00  0.00000E+00  9.000E+00
      25     1     1     2     0     0  1.773865224E+02  1.629730541E+02 -9.686922765E+00  2.715603638E+02  1.250000000E+02  0.00000E+00  9.000E+00
      25     1     1     2     0     0 -1.497526179E+01 -3.321122304E+02 -4.203474516E+02  5.503087971E+02  1.250000000E+02  0.00000E+00  9.000E+00
      21     1     1     2   502   511 -1.624112606E+02  1.691391763E+02 -1.591430815E+02  2.833937172E+02  4.264961200E-06  0.00000E+00  9.000E+00
#rwgt            1           1   4.2365044434760357E-002           9       79411           0
</event>
<event>
      5   9999  3.79277E-02  7.20562E+01 -1.00000E+00  1.30587E-01
      21    -1     0     0   502   501  0.000000000E+00  0.000000000E+00  4.055343588E+02  4.055343588E+02  0.000000000E+00  0.00000E+00  9.000E+00
      21    -1     0     0   501   512  0.000000000E+00  0.000000000E+00 -1.956878959E+02  1.956878959E+02  0.000000000E+00  0.00000E+00  9.000E+00
      25     1     1     2     0     0 -1.194817382E+00  3.260845445E+01  1.136362559E+01  1.296875895E+02  1.250000000E+02  0.00000E+00  9.000E+00
      25     1     1     2     0     0  5.595902716E+01 -7.943764045E+01  3.045858864E+02  3.432773131E+02  1.250000000E+02  0.00000E+00  9.000E+00
      21     1     1     2   502   512 -5.476420978E+01  4.682918600E+01 -1.061030491E+02  1.282573521E+02  3.015782986E-06  0.00000E+00  9.000E+00
#rwgt            1           1   3.8015995339482814E-002           9       79531           0
</event>
<event>
      5   9999 -3.79277E-02  2.03105E+01 -1.00000E+00  1.65819E-01
      21    -1     0     0   502   511  0.000000000E+00  0.000000000E+00  9.421384763E+01  9.421384763E+01  0.000000000E+00  0.00000E+00  9.000E+00
      21    -1     0     0   501   502  0.000000000E+00  0.000000000E+00 -9.444128096E+02  9.444128096E+02  0.000000000E+00  0.00000E+00  9.000E+00
      25     1     1     2     0     0 -1.605649661E+02  2.102593444E+02 -4.794270652E+02  5.616630761E+02  1.250000000E+02  0.00000E+00  9.000E+00
      25     1     1     2     0     0  1.405116215E+02 -2.070378246E+02 -3.440963933E+02  4.434360207E+02  1.250000000E+02  0.00000E+00  9.000E+00
      21     1     1     2   501   511  2.005334461E+01 -3.221519776E+00 -2.667550344E+01  3.352756036E+01  3.371747881E-07  0.00000E+00  9.000E+00
#rwgt            1           1 -0.18955259080126863                9       79611           0
</event>
<event>
      5   9999  3.79277E-02  1.22525E+02 -1.00000E+00  1.19986E-01
      21    -1     0     0   502   501  0.000000000E+00  0.000000000E+00  1.929461954E+02  1.929461954E+02  0.000000000E+00  0.00000E+00  9.000E+00
      21    -1     0     0   512   502  0.000000000E+00  0.000000000E+00 -6.959140522E+02  6.959140522E+02  0.000000000E+00  0.00000E+00  9.000E+00
      25     1     1     2     0     0  2.537767988E+02 -1.462176154E+02 -2.127168516E+02  3.829565428E+02  1.250000000E+02  0.00000E+00  9.000E+00
      25     1     1     2     0     0 -1.523566845E+02  2.149657765E+02 -1.970800612E+02  3.519778329E+02  1.250000000E+02  0.00000E+00  9.000E+00
      21     1     1     2   512   501 -1.014201143E+02 -6.874816103E+01 -9.317094410E+01  1.539258720E+02  0.000000000E+00  0.00000E+00  9.000E+00
#rwgt            1           1   4.1407846467671330E-002           9       79826           0
</event>
<event>
      5   9999 -3.79277E-02  6.54584E+01 -1.00000E+00  1.32713E-01
      21    -1     0     0   502   501  0.000000000E+00  0.000000000E+00  8.848156217E+02  8.848156217E+02  0.000000000E+00  0.00000E+00  9.000E+00
      21    -1     0     0   501   511  0.000000000E+00  0.000000000E+00 -9.678656118E+01  9.678656118E+01  0.000000000E+00  0.00000E+00  9.000E+00
      25     1     1     2     0     0  9.216786628E+01  1.117386494E+02  8.669933019E+01  2.100528867E+02  1.250000000E+02  0.00000E+00  9.000E+00
      25     1     1     2     0     0 -5.777624192E+01 -1.674344075E+02  6.586407255E+02  6.934010241E+02  1.250000000E+02  0.00000E+00  9.000E+00
      21     1     1     2   502   511 -3.439162437E+01  5.569575811E+01  4.268900481E+01  7.814827209E+01  1.651812370E-06  0.00000E+00  9.000E+00
#rwgt            1           1  -1.9113953563701776E-002           9       79891           0
</event>
<event>
      5   9999  3.79277E-02  2.73745E+01 -1.00000E+00  1.55855E-01
      21    -1     0     0   502   501  0.000000000E+00  0.000000000E+00  6.763031911E+01  6.763031911E+01  0.000000000E+00  0.00000E+00  9.000E+00
      21    -1     0     0   501   512  0.000000000E+00  0.000000000E+00 -9.917340082E+02  9.917340082E+02  0.000000000E+00  0.00000E+00  9.000E+00
      25     1     1     2     0     0  1.544377902E+02 -2.609632620E+01 -7.649703300E+02  7.907823057E+02  1.250000000E+02  0.00000E+00  9.000E+00
      25     1     1     2     0     0 -1.273021899E+02  2.970533244E+01 -1.082090195E+02  2.107663309E+02  1.250000000E+02  0.00000E+00  9.000E+00
      21     1     1     2   502   512 -2.713560034E+01 -3.609006238E+00 -5.092433961E+01  5.781569075E+01  9.536743164E-07  0.00000E+00  9.000E+00
#rwgt            1           1   4.1748454426284450E-002           9       79965           0
</event>
<event>
      5   9999  3.79277E-02  8.41264E+01 -1.00000E+00  1.27301E-01
       2    -1     0     0   502     0  0.000000000E+00  0.000000000E+00  9.098435719E+02  9.098435719E+02  0.000000000E+00  0.00000E+00  9.000E+00
      21    -1     0     0   501   502  0.000000000E+00  0.000000000E+00 -3.225123292E+02  3.225123292E+02  0.000000000E+00  0.00000E+00  9.000E+00
      25     1     1     2     0     0 -4.163843950E+01  1.533520493E+02  3.935963457E+01  2.059727931E+02  1.250000000E+02  0.00000E+00  9.000E+00
      25     1     1     2     0     0  2.716970192E+01 -2.362248533E+02 -1.605023598E+02  3.129319119E+02  1.250000000E+02  0.00000E+00  9.000E+00
       2     1     1     2   501     0  1.446873758E+01  8.287280394E+01  7.084739679E+02  7.134511961E+02  1.078959322E-05  0.00000E+00  9.000E+00
#rwgt            1           1   4.6787805409221533E-002           9       80132           0
</event>
<event>
      5   9999  3.79277E-02  7.68242E+01 -1.00000E+00  1.29207E-01
      21    -1     0     0   502   501  0.000000000E+00  0.000000000E+00  5.811208305E+02  5.811208305E+02  0.000000000E+00  0.00000E+00  9.000E+00
      -5    -1     0     0     0   502  0.000000000E+00  0.000000000E+00 -3.521551011E+02  3.521551011E+02  0.000000000E+00  0.00000E+00  9.000E+00
      25     1     1     2     0     0 -3.130347789E+01 -8.727479677E+01  2.308823926E+01  1.573367874E+02  1.250000000E+02  0.00000E+00  9.000E+00
      25     1     1     2     0     0  1.018361605E+02  5.682642360E+01  4.703925344E+02  5.004937387E+02  1.250000000E+02  0.00000E+00  9.000E+00
      -5     1     1     2     0   501 -7.053268260E+01  3.044837317E+01 -2.645150443E+02  2.754454055E+02  5.394796609E-06  0.00000E+00  9.000E+00
#rwgt            1           1   2.7232896880279855E-002           9       80242           0
</event>
<event>
      5   9999  3.79277E-02  1.40133E+02 -1.00000E+00  1.17577E-01
      21    -1     0     0   502   501  0.000000000E+00  0.000000000E+00  6.662306761E+02  6.662306761E+02  0.000000000E+00  0.00000E+00  9.000E+00
      21    -1     0     0   501   511  0.000000000E+00  0.000000000E+00 -1.123247142E+02  1.123247142E+02  0.000000000E+00  0.00000E+00  9.000E+00
      25     1     1     2     0     0 -1.304006027E+02 -5.189927741E+01  2.418577983E+02  3.062973176E+02  1.250000000E+02  0.00000E+00  9.000E+00
      25     1     1     2     0     0  1.446554347E+02 -8.750663091E+01  2.215829375E+02  3.054612961E+02  1.250000000E+02  0.00000E+00  9.000E+00
      21     1     1     2   502   511 -1.425483201E+01  1.394059083E+02  9.046522616E+01  1.667967765E+02  1.348699152E-06  0.00000E+00  9.000E+00
#rwgt            1           1   3.7478011357227954E-002           9       80347           0
</event>
<event>
      5   9999  3.79277E-02  1.27164E+01 -1.00000E+00  1.84418E-01
      21    -1     0     0   502   501  0.000000000E+00  0.000000000E+00  6.374428286E+02  6.374428286E+02  0.000000000E+00  0.00000E+00  9.000E+00
       1    -1     0     0   501     0  0.000000000E+00  0.000000000E+00 -3.355627749E+02  3.355627749E+02  0.000000000E+00  0.00000E+00  9.000E+00
      25     1     1     2     0     0  8.567558306E+01  3.473123467E+01  5.181591277E+02  5.409810032E+02  1.250000000E+02  0.00000E+00  9.000E+00
      25     1     1     2     0     0 -7.589035972E+01 -2.660981949E+01  5.645399888E+01  1.589952301E+02  1.250000000E+02  0.00000E+00  9.000E+00
       1     1     1     2   502     0 -9.785223332E+00 -8.121415187E+00 -2.727330729E+02  2.730293703E+02  5.394796609E-06  0.00000E+00  9.000E+00
#rwgt            1           1   3.4178683234017099E-002           9       80431           0
</event>
<event>
      5   9999  3.79277E-02  1.10636E+02 -1.00000E+00  1.21885E-01
      21    -1     0     0   502   501  0.000000000E+00  0.000000000E+00  2.957534512E+02  2.957534512E+02  0.000000000E+00  0.00000E+00  9.000E+00
      21    -1     0     0   511   502  0.000000000E+00  0.000000000E+00 -4.835168731E+02  4.835168731E+02  0.000000000E+00  0.00000E+00  9.000E+00
      25     1     1     2     0     0 -1.780176556E+02 -1.880953168E+02 -1.418093703E+02  3.206322370E+02  1.250000000E+02  0.00000E+00  9.000E+00
      25     1     1     2     0     0  1.341752789E+02  2.896735891E+02 -1.254831658E+01  3.430688764E+02  1.250000000E+02  0.00000E+00  9.000E+00
      21     1     1     2   511   501  4.384237666E+01 -1.015782722E+02 -3.340573504E+01  1.155692109E+02  9.536743164E-07  0.00000E+00  9.000E+00
#rwgt            1           1   2.9902728681773870E-002           9       80635           0
</event>
<event>
      5   9999  3.79277E-02  1.50926E+02 -1.00000E+00  1.16288E-01
      21    -1     0     0   512   501  0.000000000E+00  0.000000000E+00  8.504582257E+02  8.504582257E+02  0.000000000E+00  0.00000E+00  9.000E+00
      21    -1     0     0   501   502  0.000000000E+00  0.000000000E+00 -2.248486900E+02  2.248486900E+02  0.000000000E+00  0.00000E+00  9.000E+00
      25     1     1     2     0     0  1.623913521E+02  3.021692871E+02  1.552747994E+02  3.967524324E+02  1.250000000E+02  0.00000E+00  9.000E+00
      25     1     1     2     0     0 -2.644566003E+01 -2.366150692E+02  1.149426559E+02  2.924429484E+02  1.250000000E+02  0.00000E+00  9.000E+00
      21     1     1     2   512   502 -1.359456920E+02 -6.555421782E+01  3.553920804E+02  3.861115350E+02  5.394796609E-06  0.00000E+00  9.000E+00
#rwgt            1           1   2.7527518194718364E-002           9       80717           0
</event>
<event>
      5   9999  3.79277E-02  2.37723E+01 -1.00000E+00  1.60406E-01
      21    -1     0     0   502   511  0.000000000E+00  0.000000000E+00  3.556125510E+02  3.556125510E+02  0.000000000E+00  0.00000E+00  9.000E+00
      21    -1     0     0   501   502  0.000000000E+00  0.000000000E+00 -8.691834793E+01  8.691834793E+01  0.000000000E+00  0.00000E+00  9.000E+00
      25     1     1     2     0     0 -2.001671856E+01 -2.004839852E+01  1.664034935E+01  1.292459227E+02  1.250000000E+02  0.00000E+00  9.000E+00
      25     1     1     2     0     0  4.167074113E+01  2.985792075E+01  1.251097538E+02  1.841341810E+02  1.250000000E+02  0.00000E+00  9.000E+00
      21     1     1     2   501   511 -2.165402257E+01 -9.809522230E+00  1.269440999E+02  1.291507953E+02  1.348699152E-06  0.00000E+00  9.000E+00
#rwgt            1           1   3.2267553682706729E-002           9       80807           0
</event>
<event>
      5   9999  3.79277E-02  1.47368E+01 -1.00000E+00  1.78111E-01
      21    -1     0     0   502   501  0.000000000E+00  0.000000000E+00  8.244255146E+01  8.244255146E+01  0.000000000E+00  0.00000E+00  9.000E+00
       2    -1     0     0   501     0  0.000000000E+00  0.000000000E+00 -1.295275545E+03  1.295275545E+03  0.000000000E+00  0.00000E+00  9.000E+00
      25     1     1     2     0     0 -2.534288121E+01  1.437944703E+02 -2.310257102E+02  3.005278525E+02  1.250000000E+02  0.00000E+00  9.000E+00
      25     1     1     2     0     0  3.663433687E+01 -1.343247632E+02 -1.361445704E+02  2.313991372E+02  1.250000000E+02  0.00000E+00  9.000E+00
       2     1     1     2   502     0 -1.129145566E+01 -9.469707033E+00 -8.456627131E+02  8.457911070E+02  1.078959322E-05  0.00000E+00  9.000E+00
#rwgt            1           1   8.8337137920779393E-002           9       80937           0
</event>
<event>
      5   9999 -3.79277E-02  5.19429E+01 -1.00000E+00  1.38137E-01
      21    -1     0     0   502   501  0.000000000E+00  0.000000000E+00  1.008237834E+03  1.008237834E+03  0.000000000E+00  0.00000E+00  9.000E+00
      21    -1     0     0   501   511  0.000000000E+00  0.000000000E+00 -3.585596955E+02  3.585596955E+02  0.000000000E+00  0.00000E+00  9.000E+00
      25     1     1     2     0     0 -2.256371231E+02  1.604468042E+02  9.291752630E+01  3.176695689E+02  1.250000000E+02  0.00000E+00  9.000E+00
      25     1     1     2     0     0  2.753584330E+02 -1.454182384E+02  7.645506716E+02  8.349439862E+02  1.250000000E+02  0.00000E+00  9.000E+00
      21     1     1     2   502   511 -4.972130990E+01 -1.502856584E+01 -2.077900590E+02  2.141839748E+02  2.697398305E-06  0.00000E+00  9.000E+00
#rwgt            1           1  -1.1181598420571443E-002           9       81140           0
</event>
<event>
      5   9999  3.79277E-02  9.79626E+01 -1.00000E+00  1.24231E-01
      21    -1     0     0   502   501  0.000000000E+00  0.000000000E+00  1.998949608E+02  1.998949608E+02  0.000000000E+00  0.00000E+00  9.000E+00
      21    -1     0     0   501   512  0.000000000E+00  0.000000000E+00 -9.058541989E+02  9.058541989E+02  0.000000000E+00  0.00000E+00  9.000E+00
      25     1     1     2     0     0  1.298094703E+02 -1.170759970E+02  5.218045038E+01  2.211449458E+02  1.250000000E+02  0.00000E+00  9.000E+00
      25     1     1     2     0     0 -2.025978522E+02  1.826391105E+02 -3.326271498E+02  4.479606626E+02  1.250000000E+02  0.00000E+00  9.000E+00
      21     1     1     2   502   512  7.278838197E+01 -6.556311356E+01 -4.255125386E+02  4.366435513E+02  0.000000000E+00  0.00000E+00  9.000E+00
#rwgt            1           1   3.8826599733048771E-002           9       81333           0
</event>
<event>
      5   9999  3.79277E-02  7.60612E+01 -1.00000E+00  1.29420E-01
      21    -1     0     0   502   501  0.000000000E+00  0.000000000E+00  5.238868609E+01  5.238868609E+01  0.000000000E+00  0.00000E+00  9.000E+00
      21    -1     0     0   501   511  0.000000000E+00  0.000000000E+00 -1.279756989E+03  1.279756989E+03  0.000000000E+00  0.00000E+00  9.000E+00
      25     1     1     2     0     0  1.028291081E+02 -7.822648081E+01 -6.765431257E+02  7.000205773E+02  1.250000000E+02  0.00000E+00  9.000E+00
      25     1     1     2     0     0 -1.308413105E+02  7.511420002E+00 -1.865867906E+02  2.600298067E+02  1.250000000E+02  0.00000E+00  9.000E+00
      21     1     1     2   502   511  2.801220235E+01  7.071506081E+01 -3.642383863E+02  3.720952907E+02  0.000000000E+00  0.00000E+00  9.000E+00
#rwgt            1           1   4.0732201064145580E-002           9       81420           0
</event>
<event>
      5   9999  3.79277E-02  9.13943E+00 -1.00000E+00  2.00386E-01
      21    -1     0     0   502   501  0.000000000E+00  0.000000000E+00  1.404322908E+02  1.404322908E+02  0.000000000E+00  0.00000E+00  9.000E+00
      21    -1     0     0   512   502  0.000000000E+00  0.000000000E+00 -5.758147076E+02  5.758147076E+02  0.000000000E+00  0.00000E+00  9.000E+00
      25     1     1     2     0     0  1.215450125E+02  9.118812320E+01  1.221299145E+01  1.971360470E+02  1.250000000E+02  0.00000E+00  9.000E+00
      25     1     1     2     0     0 -1.143809939E+02 -8.551309521E+01 -2.168081698E+02  2.881428183E+02  1.250000000E+02  0.00000E+00  9.000E+00
      21     1     1     2   512   501 -7.164018587E+00 -5.675027986E+00 -2.307872384E+02  2.309681331E+02  3.814697266E-06  0.00000E+00  9.000E+00
#rwgt            1           1   3.9407914836875634E-002           9       81534           0
</event>
<event>
      5   9999  3.79277E-02  4.23077E+01 -1.00000E+00  1.43345E-01
      21    -1     0     0   502   511  0.000000000E+00  0.000000000E+00  3.924586152E+02  3.924586152E+02  0.000000000E+00  0.00000E+00  9.000E+00
      21    -1     0     0   501   502  0.000000000E+00  0.000000000E+00 -2.635773951E+02  2.635773951E+02  0.000000000E+00  0.00000E+00  9.000E+00
      25     1     1     2     0     0  1.538420730E+02  1.326405052E+02  3.445650685E+01  2.409836880E+02  1.250000000E+02  0.00000E+00  9.000E+00
      25     1     1     2     0     0 -1.856370471E+02 -1.047294819E+02 -6.055317698E+01  2.544033508E+02  1.250000000E+02  0.00000E+00  9.000E+00
      21     1     1     2   501   511  3.179497411E+01 -2.791102328E+01  1.549778902E+02  1.606489715E+02  1.907348633E-06  0.00000E+00  9.000E+00
#rwgt            1           1   6.7869116310564845E-002           9       81772           0
</event>
<event>
      5   9999  3.79277E-02  1.24601E+02  7.55638E-03  1.19679E-01
       2    -1     0     0   501     0  0.000000000E+00  0.000000000E+00  1.657140210E+03  1.657140210E+03  0.000000000E+00  0.00000E+00  9.000E+00
      -2    -1     0     0     0   502  0.000000000E+00  0.000000000E+00 -9.612665553E+01  9.612665553E+01  0.000000000E+00  0.00000E+00  9.000E+00
      25     1     1     2     0     0  2.078215917E+02  1.783772714E+02  6.078079623E+02  6.782800188E+02  1.250000000E+02  0.00000E+00  9.000E+00
      25     1     1     2     0     0 -2.261739563E+02 -5.513488398E+01  2.601041145E+02  3.707744116E+02  1.250000000E+02  0.00000E+00  9.000E+00
      21     1     1     2   501   502  1.835236453E+01 -1.232423875E+02  6.931014772E+02  7.042124346E+02  7.629394531E-06  0.00000E+00  9.000E+00
#rwgt            3           7   3.5149843543754113E-005           9       81979           0
</event>
<event>
      5   9999  3.79277E-02  8.54354E+01 -1.00000E+00  1.26983E-01
       2    -1     0     0   502     0  0.000000000E+00  0.000000000E+00  8.944126380E+02  8.944126380E+02  0.000000000E+00  0.00000E+00  9.000E+00
      21    -1     0     0   501   502  0.000000000E+00  0.000000000E+00 -7.943727346E+01  7.943727346E+01  0.000000000E+00  0.00000E+00  9.000E+00
      25     1     1     2     0     0  2.550084705E+01  9.587445406E+01  3.521830098E+02  3.866523976E+02  1.250000000E+02  0.00000E+00  9.000E+00
      25     1     1     2     0     0  4.395018773E+01 -1.456315214E+02  1.127652443E+02  2.268945996E+02  1.250000000E+02  0.00000E+00  9.000E+00
       2     1     1     2   501     0 -6.945103478E+01  4.975706732E+01  3.500271105E+02  3.603029143E+02  0.000000000E+00  0.00000E+00  9.000E+00
#rwgt            1           1   3.1815219709236953E-002           9       81998           0
</event>
<event>
      5   9999  3.79277E-02  3.77566E+01 -1.00000E+00  1.46412E-01
      21    -1     0     0   502   501  0.000000000E+00  0.000000000E+00  5.705379350E+02  5.705379350E+02  0.000000000E+00  0.00000E+00  9.000E+00
      21    -1     0     0   511   502  0.000000000E+00  0.000000000E+00 -7.511887655E+01  7.511887655E+01  0.000000000E+00  0.00000E+00  9.000E+00
      25     1     1     2     0     0  1.138324909E+02  1.463275361E+01  2.415534424E+02  2.952033519E+02  1.250000000E+02  0.00000E+00  9.000E+00
      25     1     1     2     0     0 -1.369552477E+02 -4.448070796E+01  2.470606403E+02  3.120885023E+02  1.250000000E+02  0.00000E+00  9.000E+00
      21     1     1     2   511   501  2.312275683E+01  2.984795435E+01  6.804975828E+00  3.836495742E+01  2.920019320E-07  0.00000E+00  9.000E+00
#rwgt            1           1   2.5905406486166460E-002           9       82051           0
</event>
<event>
      5   9999  3.79277E-02  3.91029E+01 -1.00000E+00  1.45454E-01
      21    -1     0     0   502   501  0.000000000E+00  0.000000000E+00  2.841469952E+01  2.841469952E+01  0.000000000E+00  0.00000E+00  9.000E+00
      21    -1     0     0   501   512  0.000000000E+00  0.000000000E+00 -1.770048303E+03  1.770048303E+03  0.000000000E+00  0.00000E+00  9.000E+00
      25     1     1     2     0     0 -2.227779091E+01 -1.403386947E+02 -7.035972622E+02  7.286050759E+02  1.250000000E+02  0.00000E+00  9.000E+00
      25     1     1     2     0     0  1.301628502E+01  1.783289309E+02 -8.309448438E+02  8.591070741E+02  1.250000000E+02  0.00000E+00  9.000E+00
      21     1     1     2   502   512  9.261505888E+00 -3.799023628E+01 -2.070914976E+02  2.107508527E+02  0.000000000E+00  0.00000E+00  9.000E+00
#rwgt            1           1   4.4653859392764922E-002           9       82205           0
</event>
<event>
      5   9999  3.79277E-02  6.03011E+01 -1.00000E+00  1.34587E-01
      21    -1     0     0   502   511  0.000000000E+00  0.000000000E+00  8.755223394E+02  8.755223394E+02  0.000000000E+00  0.00000E+00  9.000E+00
      21    -1     0     0   501   502  0.000000000E+00  0.000000000E+00 -3.684135494E+02  3.684135494E+02  0.000000000E+00  0.00000E+00  9.000E+00
      25     1     1     2     0     0 -3.560536789E+01 -8.895399718E+01 -8.717402069E+01  1.800135154E+02  1.250000000E+02  0.00000E+00  9.000E+00
      25     1     1     2     0     0  9.248738903E+01  1.089705220E+02 -1.950967370E+02  2.722429587E+02  1.250000000E+02  0.00000E+00  9.000E+00
      21     1     1     2   501   511 -5.688202114E+01 -2.001652479E+01  7.893795476E+02  7.916794148E+02  1.078959322E-05  0.00000E+00  9.000E+00
#rwgt            1           1   3.6667997865784716E-002           9       82294           0
</event>
<event>
      5   9999  3.79277E-02  7.36953E+01 -1.00000E+00  1.30099E-01
      21    -1     0     0   512   501  0.000000000E+00  0.000000000E+00  6.736535625E+01  6.736535625E+01  0.000000000E+00  0.00000E+00  9.000E+00
      21    -1     0     0   501   502  0.000000000E+00  0.000000000E+00 -6.385717075E+02  6.385717075E+02  0.000000000E+00  0.00000E+00  9.000E+00
      25     1     1     2     0     0  1.017142791E+02 -4.083790022E+01 -1.298713292E+02  2.109622972E+02  1.250000000E+02  0.00000E+00  9.000E+00
      25     1     1     2     0     0 -2.933438763E+01  2.697597923E+01 -3.693340480E+02  3.919449563E+02  1.250000000E+02  0.00000E+00  9.000E+00
      21     1     1     2   512   502 -7.237989149E+01  1.386192100E+01 -7.200097404E+01  1.030298103E+02  0.000000000E+00  0.00000E+00  9.000E+00
#rwgt            1           1   4.8966806847523206E-002           9       82388           0
</event>
<event>
      5   9999  3.79277E-02  1.77900E+01 -1.00000E+00  1.70677E-01
      21    -1     0     0   502   501  0.000000000E+00  0.000000000E+00  3.002910838E+02  3.002910838E+02  0.000000000E+00  0.00000E+00  9.000E+00
      21    -1     0     0   501   511  0.000000000E+00  0.000000000E+00 -1.129135724E+02  1.129135724E+02  0.000000000E+00  0.00000E+00  9.000E+00
      25     1     1     2     0     0  8.424929154E+01  4.599887074E+01  1.807185740E+02  2.397874939E+02  1.250000000E+02  0.00000E+00  9.000E+00
      25     1     1     2     0     0 -6.952421731E+01 -5.598172865E+01 -2.044273426E+00  1.536123361E+02  1.250000000E+02  0.00000E+00  9.000E+00
      21     1     1     2   502   511 -1.472507423E+01  9.982857915E+00  8.703210821E+00  1.980482623E+01  3.153981341E-07  0.00000E+00  9.000E+00
#rwgt            1           1   4.6653760699830710E-002           9       82507           0
</event>
<event>
      5   9999  3.79277E-02  3.68306E+01 -1.00000E+00  1.47099E-01
      21    -1     0     0   502   501  0.000000000E+00  0.000000000E+00  1.215130859E+03  1.215130859E+03  0.000000000E+00  0.00000E+00  9.000E+00
      21    -1     0     0   501   512  0.000000000E+00  0.000000000E+00 -2.749653541E+01  2.749653541E+01  0.000000000E+00  0.00000E+00  9.000E+00
      25     1     1     2     0     0 -7.539266863E+01 -1.997001382E+01  3.830405819E+02  4.103997360E+02  1.250000000E+02  0.00000E+00  9.000E+00
      25     1     1     2     0     0  4.703281960E+01  4.346928412E+01  7.664198356E+02  7.791829241E+02  1.250000000E+02  0.00000E+00  9.000E+00
      21     1     1     2   502   512  2.835984902E+01 -2.349927030E+01  3.817390638E+01  5.304473461E+01  1.261592536E-06  0.00000E+00  9.000E+00
#rwgt            1           1   3.3740279240613867E-002           9       82647           0
</event>
<event>
      5   9999  3.79277E-02  5.25856E+01 -1.00000E+00  1.37838E-01
      21    -1     0     0   502   501  0.000000000E+00  0.000000000E+00  3.139656719E+02  3.139656719E+02  0.000000000E+00  0.00000E+00  9.000E+00
      21    -1     0     0   511   502  0.000000000E+00  0.000000000E+00 -6.665002322E+02  6.665002322E+02  0.000000000E+00  0.00000E+00  9.000E+00
      25     1     1     2     0     0  9.452398630E+01 -3.981914278E+02 -2.069658572E+02  4.753431005E+02  1.250000000E+02  0.00000E+00  9.000E+00
      25     1     1     2     0     0 -1.427065809E+02  3.771277105E+02 -9.616453351E+01  4.329700864E+02  1.250000000E+02  0.00000E+00  9.000E+00
      21     1     1     2   511   501  4.818259457E+01  2.106371739E+01 -4.940416969E+01  7.215271715E+01  9.536743164E-07  0.00000E+00  9.000E+00
#rwgt            1           1   3.1816754911432425E-002           9       82778           0
</event>
<event>
      5   9999  3.79277E-02  2.13486E+01 -1.00000E+00  1.64064E-01
      21    -1     0     0   502   512  0.000000000E+00  0.000000000E+00  2.780454997E+02  2.780454997E+02  0.000000000E+00  0.00000E+00  9.000E+00
      21    -1     0     0   501   502  0.000000000E+00  0.000000000E+00 -2.023287894E+02  2.023287894E+02  0.000000000E+00  0.00000E+00  9.000E+00
      25     1     1     2     0     0  1.466203903E+02  1.319774830E+02  8.494538630E+00  2.336937142E+02  1.250000000E+02  0.00000E+00  9.000E+00
      25     1     1     2     0     0 -1.304712387E+02 -1.180144647E+02  5.834980119E+01  2.235617528E+02  1.250000000E+02  0.00000E+00  9.000E+00
      21     1     1     2   501   512 -1.614915161E+01 -1.396301832E+01  8.872370536E+00  2.311882214E+01  3.576278687E-07  0.00000E+00  9.000E+00
#rwgt            1           1   2.8774952960197955E-002           9       82933           0
</event>
<event>
      5   9999  3.79277E-02  1.78399E+01 -1.00000E+00  1.70572E-01
      21    -1     0     0   502   501  0.000000000E+00  0.000000000E+00  7.806115804E+01  7.806115804E+01  0.000000000E+00  0.00000E+00  9.000E+00
      21    -1     0     0   501   511  0.000000000E+00  0.000000000E+00 -8.107558601E+02  8.107558601E+02  0.000000000E+00  0.00000E+00  9.000E+00
      25     1     1     2     0     0 -1.082660284E+02 -6.741232786E+01 -1.969057195E+02  2.658247867E+02  1.250000000E+02  0.00000E+00  9.000E+00
      25     1     1     2     0     0  1.257731844E+02  7.084163287E+01 -1.667178381E+02  2.534901742E+02  1.250000000E+02  0.00000E+00  9.000E+00
      21     1     1     2   502   511 -1.750715603E+01 -3.429305016E+00 -3.690711444E+02  3.695020572E+02  0.000000000E+00  0.00000E+00  9.000E+00
#rwgt            1           1   2.2234338202479158E-002           9       83121           0
</event>
<event>
      5   9999  3.79277E-02  4.18591E+02 -1.00000E+00  1.01095E-01
      -2    -1     0     0     0   501  0.000000000E+00  0.000000000E+00  3.700740617E+02  3.700740617E+02  0.000000000E+00  0.00000E+00  9.000E+00
      21    -1     0     0   501   502  0.000000000E+00  0.000000000E+00 -7.643826646E+02  7.643826646E+02  0.000000000E+00  0.00000E+00  9.000E+00
      25     1     1     2     0     0 -2.919477202E+01 -4.759484532E+01 -2.419863344E+02  2.780287576E+02  1.250000000E+02  0.00000E+00  9.000E+00
      25     1     1     2     0     0 -3.888002994E+02  2.526617773E+01 -1.557555917E+02  4.378228602E+02  1.250000000E+02  0.00000E+00  9.000E+00
      -2     1     1     2     0   502  4.179950714E+02  2.232866760E+01  3.433323283E+00  4.186051085E+02  8.969261315E-06  0.00000E+00  9.000E+00
#rwgt            1           1   4.0354237234737737E-002           9       83273           0
</event>
<event>
      5   9999  3.79277E-02  2.55081E+01 -1.00000E+00  1.58099E-01
      21    -1     0     0   502   511  0.000000000E+00  0.000000000E+00  1.132383873E+02  1.132383873E+02  0.000000000E+00  0.00000E+00  9.000E+00
      21    -1     0     0   501   502  0.000000000E+00  0.000000000E+00 -9.747428521E+02  9.747428521E+02  0.000000000E+00  0.00000E+00  9.000E+00
      25     1     1     2     0     0 -1.530485412E+02  1.243314728E+02 -2.527987658E+02  3.441139158E+02  1.250000000E+02  0.00000E+00  9.000E+00
      25     1     1     2     0     0  1.277704848E+02 -1.209133429E+02 -6.557532710E+02  6.903496836E+02  1.250000000E+02  0.00000E+00  9.000E+00
      21     1     1     2   501   511  2.527805648E+01 -3.418129840E+00  4.704757199E+01  5.351763991E+01  2.336015456E-06  0.00000E+00  9.000E+00
#rwgt            1           1   3.0404377998660550E-002           9       83437           0
</event>
<event>
      5   9999  3.79277E-02  4.83354E+01 -1.00000E+00  1.39920E-01
      21    -1     0     0   502   512  0.000000000E+00  0.000000000E+00  1.337702609E+02  1.337702609E+02  0.000000000E+00  0.00000E+00  9.000E+00
      21    -1     0     0   501   502  0.000000000E+00  0.000000000E+00 -4.174896843E+02  4.174896843E+02  0.000000000E+00  0.00000E+00  9.000E+00
      25     1     1     2     0     0 -4.564303804E+01  1.200345088E+02 -2.770241133E+02  3.299377662E+02  1.250000000E+02  0.00000E+00  9.000E+00
      25     1     1     2     0     0  5.644767618E+01 -7.292219132E+01 -4.264619653E+01  1.610828489E+02  1.250000000E+02  0.00000E+00  9.000E+00
      21     1     1     2   501   512 -1.080463814E+01 -4.711231747E+01  3.595088632E+01  6.023933009E+01  9.536743164E-07  0.00000E+00  9.000E+00
#rwgt            1           1   4.4600752448524940E-002           9       83541           0
</event>
<event>
      5   9999  3.79277E-02  9.15696E+01 -1.00000E+00  1.25573E-01
      21    -1     0     0   502   501  0.000000000E+00  0.000000000E+00  4.219437494E+02  4.219437494E+02  0.000000000E+00  0.00000E+00  9.000E+00
      21    -1     0     0   511   502  0.000000000E+00  0.000000000E+00 -3.222908421E+02  3.222908421E+02  0.000000000E+00  0.00000E+00  9.000E+00
      25     1     1     2     0     0 -2.438141640E+02 -1.690830910E+02 -1.915976568E+00  3.219675592E+02  1.250000000E+02  0.00000E+00  9.000E+00
      25     1     1     2     0     0  1.637041020E+02  1.247280021E+02  1.808508185E+02  3.011446929E+02  1.250000000E+02  0.00000E+00  9.000E+00
      21     1     1     2   511   501  8.011006198E+01  4.435508891E+01 -7.928193461E+01  1.211223394E+02  1.348699152E-06  0.00000E+00  9.000E+00
#rwgt            1           1   4.0437397895298342E-002           9       83658           0
</event>
<event>
      5   9999  3.79277E-02  6.73214E+01 -1.00000E+00  1.32085E-01
       2    -1     0     0   502     0  0.000000000E+00  0.000000000E+00  1.366704089E+03  1.366704089E+03  0.000000000E+00  0.00000E+00  9.000E+00
      21    -1     0     0   501   502  0.000000000E+00  0.000000000E+00 -1.830787321E+02  1.830787321E+02  0.000000000E+00  0.00000E+00  9.000E+00
      25     1     1     2     0     0  9.872757452E+00 -8.977038002E+00  2.295450147E+02  2.617135310E+02  1.250000000E+02  0.00000E+00  9.000E+00
      25     1     1     2     0     0 -6.903911837E+01  4.109429275E+01 -1.326902301E+02  1.992155564E+02  1.250000000E+02  0.00000E+00  9.000E+00
       2     1     1     2   501     0  5.916636092E+01 -3.211725474E+01  1.086770572E+03  1.088853734E+03  0.000000000E+00  0.00000E+00  9.000E+00
#rwgt            1           1   4.6900323676660638E-002           9       83739           0
</event>
<event>
      5   9999  3.79277E-02  3.15415E+01 -1.00000E+00  1.51544E-01
      21    -1     0     0   502   501  0.000000000E+00  0.000000000E+00  9.460415057E+01  9.460415057E+01  0.000000000E+00  0.00000E+00  9.000E+00
       4    -1     0     0   501     0  0.000000000E+00  0.000000000E+00 -4.372313901E+02  4.372313901E+02  0.000000000E+00  0.00000E+00  9.000E+00
      25     1     1     2     0     0  9.344857163E+01 -5.991079909E+01 -6.822462773E+01  1.805589633E+02  1.250000000E+02  0.00000E+00  9.000E+00
      25     1     1     2     0     0 -6.210413614E+01  6.343118240E+01 -1.228107387E+02  1.964380721E+02  1.250000000E+02  0.00000E+00  9.000E+00
       4     1     1     2   502     0 -3.134443549E+01 -3.520383308E+00 -1.515918731E+02  1.548385053E+02  1.907348633E-06  0.00000E+00  9.000E+00
#rwgt            2          15   3.8538619141499987E-006           9       83863           0
</event>
<event>
      5   9999  3.79277E-02  7.59490E+00 -1.00000E+00  2.10666E-01
      21    -1     0     0   502   501  0.000000000E+00  0.000000000E+00  1.449543845E+02  1.449543845E+02  0.000000000E+00  0.00000E+00  9.000E+00
      21    -1     0     0   511   502  0.000000000E+00  0.000000000E+00 -5.430201441E+02  5.430201441E+02  0.000000000E+00  0.00000E+00  9.000E+00
      25     1     1     2     0     0 -2.359730352E+02  2.593111561E+01 -1.062236662E+02  2.885553039E+02  1.250000000E+02  0.00000E+00  9.000E+00
      25     1     1     2     0     0  2.289665455E+02 -2.886226058E+01 -2.711042139E+02  3.773343396E+02  1.250000000E+02  0.00000E+00  9.000E+00
      21     1     1     2   511   501  7.006489692E+00  2.931144976E+00 -2.073787945E+01  2.208488516E+01  3.371747881E-07  0.00000E+00  9.000E+00
#rwgt            1           1   4.0125031490051144E-002           9       83912           0
</event>
<event>
      5   9999  3.79277E-02  9.24326E+00 -1.00000E+00  1.99792E-01
      21    -1     0     0   502   501  0.000000000E+00  0.000000000E+00  2.722744248E+02  2.722744248E+02  0.000000000E+00  0.00000E+00  9.000E+00
      21    -1     0     0   501   512  0.000000000E+00  0.000000000E+00 -2.244695267E+02  2.244695267E+02  0.000000000E+00  0.00000E+00  9.000E+00
      25     1     1     2     0     0  3.529297713E+01 -2.248725559E+01 -1.789340647E+02  2.222468682E+02  1.250000000E+02  0.00000E+00  9.000E+00
      25     1     1     2     0     0 -3.369195941E+01  3.159080722E+01  2.290272981E+02  2.649747733E+02  1.250000000E+02  0.00000E+00  9.000E+00
      21     1     1     2   502   512 -1.601017724E+00 -9.103551636E+00 -2.288335194E+00  9.522310019E+00  1.429269172E-07  0.00000E+00  9.000E+00
#rwgt            1           1   2.9826624656269445E-002           9       84458           0
</event>
<event>
      5   9999  3.79277E-02  4.38224E+01 -1.00000E+00  1.42424E-01
      21    -1     0     0   502   501  0.000000000E+00  0.000000000E+00  1.153834111E+02  1.153834111E+02  0.000000000E+00  0.00000E+00  9.000E+00
      21    -1     0     0   511   502  0.000000000E+00  0.000000000E+00 -8.087691531E+02  8.087691531E+02  0.000000000E+00  0.00000E+00  9.000E+00
      25     1     1     2     0     0 -3.911823479E+01  1.372178942E+02 -1.525470778E+02  2.434226730E+02  1.250000000E+02  0.00000E+00  9.000E+00
      25     1     1     2     0     0  7.586204564E+01 -1.133369617E+02 -5.511898600E+01  1.930373525E+02  1.250000000E+02  0.00000E+00  9.000E+00
      21     1     1     2   511   501 -3.674381085E+01 -2.388093259E+01 -4.857196782E+02  4.876925388E+02  9.344061824E-06  0.00000E+00  9.000E+00
#rwgt            1           1   3.9885082544078243E-002           9       84861           0
</event>
<event>
      5   9999  3.79277E-02  1.89435E+01 -1.00000E+00  1.68338E-01
      21    -1     0     0   502   501  0.000000000E+00  0.000000000E+00  7.518003422E+02  7.518003422E+02  0.000000000E+00  0.00000E+00  9.000E+00
      21    -1     0     0   512   502  0.000000000E+00  0.000000000E+00 -5.548472361E+01  5.548472361E+01  0.000000000E+00  0.00000E+00  9.000E+00
      25     1     1     2     0     0 -6.284587099E+01  7.537362890E+01  5.818271530E+02  6.031406332E+02  1.250000000E+02  0.00000E+00  9.000E+00
      25     1     1     2     0     0  4.799776994E+01 -6.360970194E+01  9.089686084E+01  1.738885258E+02  1.250000000E+02  0.00000E+00  9.000E+00
      21     1     1     2   512   501  1.484810104E+01 -1.176392697E+01  2.359160476E+01  3.025590682E+01  4.768371582E-07  0.00000E+00  9.000E+00
#rwgt            1           1   4.1249638974651059E-002           9       85004           0
</event>
<event>
      5   9999  3.79277E-02  5.13376E+01 -1.00000E+00  1.38424E-01
       2    -1     0     0   502     0  0.000000000E+00  0.000000000E+00  7.784851765E+02  7.784851765E+02  0.000000000E+00  0.00000E+00  9.000E+00
      21    -1     0     0   501   502  0.000000000E+00  0.000000000E+00 -9.872389694E+01  9.872389694E+01  0.000000000E+00  0.00000E+00  9.000E+00
      25     1     1     2     0     0  1.243261613E+02  1.275475848E+02  1.699473941E+02  2.761023316E+02  1.250000000E+02  0.00000E+00  9.000E+00
      25     1     1     2     0     0 -1.554724623E+02 -1.683575551E+02  3.755313671E+02  4.573453406E+02  1.250000000E+02  0.00000E+00  9.000E+00
       2     1     1     2   501     0  3.114630101E+01  4.080997038E+01  1.342825183E+02  1.437614012E+02  1.907348633E-06  0.00000E+00  9.000E+00
#rwgt            1           1   8.8541762069298077E-002           9       85273           0
</event>
<event>
      5   9999  3.79277E-02  1.65959E+01 -1.00000E+00  1.73345E-01
      21    -1     0     0   502   501  0.000000000E+00  0.000000000E+00  1.540026159E+02  1.540026159E+02  0.000000000E+00  0.00000E+00  9.000E+00
      21    -1     0     0   511   502  0.000000000E+00  0.000000000E+00 -3.372603041E+02  3.372603041E+02  0.000000000E+00  0.00000E+00  9.000E+00
      25     1     1     2     0     0  9.169733668E+01  1.003371282E+02  4.717546482E+01  1.905950297E+02  1.250000000E+02  0.00000E+00  9.000E+00
      25     1     1     2     0     0 -9.011304528E+01 -8.381706894E+01 -2.186293128E+02  2.803024053E+02  1.250000000E+02  0.00000E+00  9.000E+00
      21     1     1     2   511   501 -1.584291393E+00 -1.652005929E+01 -1.180384023E+01  2.036548508E+01  2.920019320E-07  0.00000E+00  9.000E+00
#rwgt            1           1   4.3963807400636157E-002           9       85341           0
</event>
<event>
      5   9999  3.79277E-02  4.57538E+01 -1.00000E+00  1.41311E-01
      21    -1     0     0   502   501  0.000000000E+00  0.000000000E+00  2.575907177E+02  2.575907177E+02  0.000000000E+00  0.00000E+00  9.000E+00
       2    -1     0     0   501     0  0.000000000E+00  0.000000000E+00 -6.795463840E+02  6.795463840E+02  0.000000000E+00  0.00000E+00  9.000E+00
      25     1     1     2     0     0  1.288426384E+02 -2.350279497E+01  1.677971714E+02  2.468475189E+02  1.250000000E+02  0.00000E+00  9.000E+00
      25     1     1     2     0     0 -8.373298981E+01  3.115299747E+01 -7.053867729E+01  1.690633841E+02  1.250000000E+02  0.00000E+00  9.000E+00
       2     1     1     2   502     0 -4.510964862E+01 -7.650202497E+00 -5.192141603E+02  5.212261988E+02  7.629394531E-06  0.00000E+00  9.000E+00
#rwgt            1           1   4.4516271330282998E-002           9       85598           0
</event>
<event>
      5   9999  3.79277E-02  7.23540E+01 -1.00000E+00  1.30497E-01
      21    -1     0     0   502   511  0.000000000E+00  0.000000000E+00  5.924191914E+02  5.924191914E+02  0.000000000E+00  0.00000E+00  9.000E+00
      21    -1     0     0   501   502  0.000000000E+00  0.000000000E+00 -3.759171857E+02  3.759171857E+02  0.000000000E+00  0.00000E+00  9.000E+00
      25     1     1     2     0     0  9.657185362E+01  5.601924222E+01 -2.420479834E+02  2.944087374E+02  1.250000000E+02  0.00000E+00  9.000E+00
      25     1     1     2     0     0 -2.623412460E+01 -7.298106539E+01 -5.369570291E+01  1.565972340E+02  1.250000000E+02  0.00000E+00  9.000E+00
      21     1     1     2   501   511 -7.033772902E+01  1.696182317E+01  5.122456920E+02  5.173304056E+02  7.629394531E-06  0.00000E+00  9.000E+00
#rwgt            1           1   5.3316038587065746E-002           9       85700           0
</event>
<event>
      5   9999 -3.79277E-02  7.94895E+01 -1.00000E+00  1.28484E-01
      21    -1     0     0   502   501  0.000000000E+00  0.000000000E+00  3.030310361E+03  3.030310361E+03  0.000000000E+00  0.00000E+00  9.000E+00
      21    -1     0     0   501   512  0.000000000E+00  0.000000000E+00 -1.851180995E+02  1.851180995E+02  0.000000000E+00  0.00000E+00  9.000E+00
      25     1     1     2     0     0 -1.336138571E+02 -1.398770107E+02  2.525819527E+03  2.536297996E+03  1.250000000E+02  0.00000E+00  9.000E+00
      25     1     1     2     0     0  1.983357180E+02  9.372875416E+01  4.559021501E+02  5.211467229E+02  1.250000000E+02  0.00000E+00  9.000E+00
      21     1     1     2   502   512 -6.472186091E+01  4.614825650E+01 -1.365294164E+02  1.579837409E+02  1.027138673E-05  0.00000E+00  9.000E+00
#rwgt            1           1 -0.30159870080459256                9       85819           0
</event>
<event>
      5   9999  3.79277E-02  1.68247E+01 -1.00000E+00  1.72812E-01
      21    -1     0     0   511   501  0.000000000E+00  0.000000000E+00  1.298942714E+02  1.298942714E+02  0.000000000E+00  0.00000E+00  9.000E+00
      21    -1     0     0   501   502  0.000000000E+00  0.000000000E+00 -5.575713054E+02  5.575713054E+02  0.000000000E+00  0.00000E+00  9.000E+00
      25     1     1     2     0     0  1.215317807E+02  8.947790054E+01 -2.682698720E+02  3.322197957E+02  1.250000000E+02  0.00000E+00  9.000E+00
      25     1     1     2     0     0 -1.092383894E+02 -7.799122457E+01 -2.234178574E+02  2.890608861E+02  1.250000000E+02  0.00000E+00  9.000E+00
      21     1     1     2   511   502 -1.229339130E+01 -1.148667598E+01  6.401069550E+01  6.618489505E+01  0.000000000E+00  0.00000E+00  9.000E+00
#rwgt            1           1   4.6298152220263226E-002           9       85989           0
</event>
<event>
      5   9999  3.79277E-02  3.62632E+01 -1.00000E+00  1.47532E-01
      21    -1     0     0   512   501  0.000000000E+00  0.000000000E+00  1.039287494E+03  1.039287494E+03  0.000000000E+00  0.00000E+00  9.000E+00
      21    -1     0     0   501   502  0.000000000E+00  0.000000000E+00 -1.012336086E+02  1.012336086E+02  0.000000000E+00  0.00000E+00  9.000E+00
      25     1     1     2     0     0 -1.941076055E+02 -1.796539776E+02  2.377638285E+02  3.769747370E+02  1.250000000E+02  0.00000E+00  9.000E+00
      25     1     1     2     0     0  1.882618283E+02  1.438650561E+02  6.089034034E+02  6.652277994E+02  1.250000000E+02  0.00000E+00  9.000E+00
      21     1     1     2   512   502  5.845777200E+00  3.578892153E+01  9.138665392E+01  9.831856656E+01  0.000000000E+00  0.00000E+00  9.000E+00
#rwgt            1           1   2.8705684624549074E-002           9       86151           0
</event>
<event>
      5   9999  3.79277E-02  7.23230E+01 -1.00000E+00  1.30507E-01
      21    -1     0     0   502   501  0.000000000E+00  0.000000000E+00  8.695871231E+01  8.695871231E+01  0.000000000E+00  0.00000E+00  9.000E+00
      21    -1     0     0   501   511  0.000000000E+00  0.000000000E+00 -7.208648100E+02  7.208648100E+02  0.000000000E+00  0.00000E+00  9.000E+00
      25     1     1     2     0     0  3.893854460E+01  1.396015774E+02 -2.196547259E+02  2.913383072E+02  1.250000000E+02  0.00000E+00  9.000E+00
      25     1     1     2     0     0 -1.010836134E+02 -1.026068692E+02 -1.503415133E+02  2.428448828E+02  1.250000000E+02  0.00000E+00  9.000E+00
      21     1     1     2   502   511  6.214506878E+01 -3.699470820E+01 -2.639098585E+02  2.736403323E+02  0.000000000E+00  0.00000E+00  9.000E+00
#rwgt            1           1   3.7395392705061807E-002           9       86405           0
</event>
<event>
      5   9999  3.79277E-02  8.02892E+01 -1.00000E+00  1.28274E-01
       3    -1     0     0   502     0  0.000000000E+00  0.000000000E+00  2.860709271E+02  2.860709271E+02  0.000000000E+00  0.00000E+00  9.000E+00
      21    -1     0     0   501   502  0.000000000E+00  0.000000000E+00 -1.020747975E+03  1.020747975E+03  0.000000000E+00  0.00000E+00  9.000E+00
      25     1     1     2     0     0  3.629133825E+02  4.639852563E+01 -4.942288150E+02  6.274918867E+02  1.250000000E+02  0.00000E+00  9.000E+00
      25     1     1     2     0     0 -3.686827867E+02  3.368316710E+01 -3.626524093E+02  5.331072340E+02  1.250000000E+02  0.00000E+00  9.000E+00
       3     1     1     2   501     0  5.769404200E+00 -8.008169273E+01  1.222041768E+02  1.462197810E+02  3.303624740E-06  0.00000E+00  9.000E+00
#rwgt            1           1  0.33868740119811042                9       86540           0
</event>
<event>
      5   9999  3.79277E-02  7.21142E+01 -1.00000E+00  1.30570E-01
      21    -1     0     0   511   501  0.000000000E+00  0.000000000E+00  1.563322652E+03  1.563322652E+03  0.000000000E+00  0.00000E+00  9.000E+00
      21    -1     0     0   501   502  0.000000000E+00  0.000000000E+00 -3.426890018E+02  3.426890018E+02  0.000000000E+00  0.00000E+00  9.000E+00
      25     1     1     2     0     0  8.338303960E+01  7.127167767E+01 -2.419789501E+02  2.936174308E+02  1.250000000E+02  0.00000E+00  9.000E+00
      25     1     1     2     0     0 -4.904122460E+01 -1.346837816E+02  4.826893809E+01  1.962132848E+02  1.250000000E+02  0.00000E+00  9.000E+00
      21     1     1     2   511   502 -3.434181500E+01  6.341210391E+01  1.414343662E+03  1.416180938E+03  2.642899792E-05  0.00000E+00  9.000E+00
#rwgt            1           1   4.6414187947612318E-002           9       86684           0
</event>
<event>
      5   9999  3.79277E-02  2.77252E+01 -1.00000E+00  1.55457E-01
      21    -1     0     0   512   501  0.000000000E+00  0.000000000E+00  1.000369213E+02  1.000369213E+02  0.000000000E+00  0.00000E+00  9.000E+00
      21    -1     0     0   501   502  0.000000000E+00  0.000000000E+00 -5.561557439E+02  5.561557439E+02  0.000000000E+00  0.00000E+00  9.000E+00
      25     1     1     2     0     0 -5.983918142E+01 -9.508044142E+01 -5.472549212E+01  1.767509476E+02  1.250000000E+02  0.00000E+00  9.000E+00
      25     1     1     2     0     0  7.445155260E+01  1.186423319E+02 -4.095616590E+02  4.505383326E+02  1.250000000E+02  0.00000E+00  9.000E+00
      21     1     1     2   512   502 -1.461237118E+01 -2.356189052E+01  8.168328533E+00  2.890338505E+01  6.194296387E-07  0.00000E+00  9.000E+00
#rwgt            1           1   2.8688108089725561E-002           9       86746           0
</event>
<event>
      5   9999  3.79277E-02  1.34460E+02 -1.00000E+00  1.18308E-01
      21    -1     0     0   502   501  0.000000000E+00  0.000000000E+00  6.959244591E+02  6.959244591E+02  0.000000000E+00  0.00000E+00  9.000E+00
      -1    -1     0     0     0   502  0.000000000E+00  0.000000000E+00 -9.275305185E+02  9.275305185E+02  0.000000000E+00  0.00000E+00  9.000E+00
      25     1     1     2     0     0 -9.580342267E+01  5.183975588E+00  2.533641222E+02  2.983681414E+02  1.250000000E+02  0.00000E+00  9.000E+00
      25     1     1     2     0     0  1.854313177E+02  9.504742117E+01  3.792792038E+02  4.504403404E+02  1.250000000E+02  0.00000E+00  9.000E+00
      -1     1     1     2     0   501 -8.962789508E+01 -1.002313968E+02 -8.642493854E+02  8.746464958E+02  1.078959322E-05  0.00000E+00  9.000E+00
#rwgt            1           1   3.9552155840544917E-002           9       86889           0
</event>
<event>
      5   9999  3.79277E-02  1.49145E+02 -1.00000E+00  1.16492E-01
      21    -1     0     0   502   501  0.000000000E+00  0.000000000E+00  5.537154467E+01  5.537154467E+01  0.000000000E+00  0.00000E+00  9.000E+00
       2    -1     0     0   501     0  0.000000000E+00  0.000000000E+00 -1.283950221E+03  1.283950221E+03  0.000000000E+00  0.00000E+00  9.000E+00
      25     1     1     2     0     0  5.628022664E+01  4.678333993E+00 -7.106115264E+02  7.237286039E+02  1.250000000E+02  0.00000E+00  9.000E+00
      25     1     1     2     0     0  3.041980441E+01  1.166775792E+02 -2.034090062E+02  2.674682145E+02  1.250000000E+02  0.00000E+00  9.000E+00
       2     1     1     2   502     0 -8.670003105E+01 -1.213559132E+02 -3.145581438E+02  3.481249472E+02  3.814697266E-06  0.00000E+00  9.000E+00
#rwgt            1           1   4.9863402610952373E-002           9       87007           0
</event>
<event>
      5   9999  3.79277E-02  5.07222E+01 -1.00000E+00  1.38721E-01
      21    -1     0     0   502   501  0.000000000E+00  0.000000000E+00  4.282982086E+01  4.282982086E+01  0.000000000E+00  0.00000E+00  9.000E+00
      21    -1     0     0   501   511  0.000000000E+00  0.000000000E+00 -1.151042970E+03  1.151042970E+03  0.000000000E+00  0.00000E+00  9.000E+00
      25     1     1     2     0     0  9.686372594E+01  7.618103677E+01 -3.541922702E+02  3.953015254E+02  1.250000000E+02  0.00000E+00  9.000E+00
      25     1     1     2     0     0 -1.106943669E+02 -1.249811565E+02 -5.465958434E+02  5.850346557E+02  1.250000000E+02  0.00000E+00  9.000E+00
      21     1     1     2   502   511  1.383064092E+01  4.880011971E+01 -2.074250352E+02  2.135366094E+02  2.697398305E-06  0.00000E+00  9.000E+00
#rwgt            1           1   3.7193317055617701E-002           9       87093           0
</event>
<event>
      5   9999  3.79277E-02  3.15352E+01 -1.00000E+00  1.51549E-01
       2    -1     0     0   502     0  0.000000000E+00  0.000000000E+00  6.886886553E+02  6.886886553E+02  0.000000000E+00  0.00000E+00  9.000E+00
      21    -1     0     0   501   502  0.000000000E+00  0.000000000E+00 -2.550486247E+02  2.550486247E+02  0.000000000E+00  0.00000E+00  9.000E+00
      25     1     1     2     0     0 -1.287734249E+02 -3.750930116E+01 -1.510515754E+02  2.375523544E+02  1.250000000E+02  0.00000E+00  9.000E+00
      25     1     1     2     0     0  1.602959141E+02  3.840601980E+01  1.174593891E+02  2.378897024E+02  1.250000000E+02  0.00000E+00  9.000E+00
       2     1     1     2   501     0 -3.152248916E+01 -8.967186371E-01  4.672322169E+02  4.682952231E+02  7.629394531E-06  0.00000E+00  9.000E+00
#rwgt            1           1   4.1565525743139660E-002           9       87257           0
</event>
<event>
      5   9999  3.79277E-02  4.40521E+01 -1.00000E+00  1.42288E-01
      21    -1     0     0   511   501  0.000000000E+00  0.000000000E+00  2.211923016E+03  2.211923016E+03  0.000000000E+00  0.00000E+00  9.000E+00
      21    -1     0     0   501   502  0.000000000E+00  0.000000000E+00 -6.039689858E+01  6.039689858E+01  0.000000000E+00  0.00000E+00  9.000E+00
      25     1     1     2     0     0 -1.052485338E+02 -1.771370342E+02  4.832236828E+02  5.399860280E+02  1.250000000E+02  0.00000E+00  9.000E+00
      25     1     1     2     0     0  1.447060231E+02  1.967251972E+02  5.643236849E+02  6.274765794E+02  1.250000000E+02  0.00000E+00  9.000E+00
      21     1     1     2   511   502 -3.945748930E+01 -1.958816305E+01  1.103978750E+03  1.104857307E+03  2.642899792E-05  0.00000E+00  9.000E+00
#rwgt            1           1   3.5764045146624984E-002           9       87389           0
</event>
<event>
      5   9999  3.79277E-02  6.67914E+01 -1.00000E+00  1.32261E-01
      21    -1     0     0   502   501  0.000000000E+00  0.000000000E+00  3.920609606E+02  3.920609606E+02  0.000000000E+00  0.00000E+00  9.000E+00
      21    -1     0     0   512   502  0.000000000E+00  0.000000000E+00 -2.602720797E+02  2.602720797E+02  0.000000000E+00  0.00000E+00  9.000E+00
      25     1     1     2     0     0  1.680224927E+02  2.003448029E+02  1.245820026E+02  3.154604151E+02  1.250000000E+02  0.00000E+00  9.000E+00
      25     1     1     2     0     0 -1.012355610E+02 -2.011134960E+02  4.300413726E+01  2.610931499E+02  1.250000000E+02  0.00000E+00  9.000E+00
      21     1     1     2   512   501 -6.678693165E+01  7.686931400E-01 -3.579725904E+01  7.577947535E+01  1.348699152E-06  0.00000E+00  9.000E+00
#rwgt            1           1   5.5569375669700875E-002           9       87497           0
</event>
<event>
      5   9999  3.79277E-02  7.31403E+01 -1.00000E+00  1.30263E-01
      21    -1     0     0   502   501  0.000000000E+00  0.000000000E+00  9.915654221E+02  9.915654221E+02  0.000000000E+00  0.00000E+00  9.000E+00
      21    -1     0     0   501   511  0.000000000E+00  0.000000000E+00 -7.869279823E+02  7.869279823E+02  0.000000000E+00  0.00000E+00  9.000E+00
      25     1     1     2     0     0  1.086374227E+02 -1.099969536E+02  3.833771067E+02  4.318615812E+02  1.250000000E+02  0.00000E+00  9.000E+00
      25     1     1     2     0     0 -6.206006005E+01  5.360497396E+01  5.725725369E+02  5.917679058E+02  1.250000000E+02  0.00000E+00  9.000E+00
      21     1     1     2   502   511 -4.657736260E+01  5.639197962E+01 -7.513122039E+02  7.548639174E+02  0.000000000E+00  0.00000E+00  9.000E+00
#rwgt            1           1   4.3326129276543723E-002           9       87614           0
</event>
<event>
      5   9999  3.79277E-02  5.57003E+01 -1.00000E+00  1.36452E-01
       3    -1     0     0   502     0  0.000000000E+00  0.000000000E+00  1.066213333E+03  1.066213333E+03  0.000000000E+00  0.00000E+00  9.000E+00
      21    -1     0     0   501   502  0.000000000E+00  0.000000000E+00 -7.405628301E+01  7.405628301E+01  0.000000000E+00  0.00000E+00  9.000E+00
      25     1     1     2     0     0  1.576741094E+02  6.981446783E+00  2.686525362E+02  3.357216862E+02  1.250000000E+02  0.00000E+00  9.000E+00
      25     1     1     2     0     0 -1.997439190E+02  2.952414938E+01  7.079480982E+02  7.467160225E+02  1.250000000E+02  0.00000E+00  9.000E+00
       3     1     1     2   501     0  4.206980959E+01 -3.650559616E+01  1.555641556E+01  5.783190724E+01  7.348554138E-07  0.00000E+00  9.000E+00
#rwgt            1           1   3.1642369855110181E-002           9       87699           0
</event>
<event>
      5   9999  3.79277E-02  6.70160E+01 -1.00000E+00  1.32186E-01
      21    -1     0     0   502   511  0.000000000E+00  0.000000000E+00  2.345881525E+02  2.345881525E+02  0.000000000E+00  0.00000E+00  9.000E+00
      21    -1     0     0   501   502  0.000000000E+00  0.000000000E+00 -3.475836071E+02  3.475836071E+02  0.000000000E+00  0.00000E+00  9.000E+00
      25     1     1     2     0     0 -8.533535111E+01 -1.079383157E+02 -2.635854869E+02  3.225447427E+02  1.250000000E+02  0.00000E+00  9.000E+00
      25     1     1     2     0     0  4.572130484E+01  5.388397949E+01  9.139802109E+01  1.702131582E+02  1.250000000E+02  0.00000E+00  9.000E+00
      21     1     1     2   501   511  3.961404627E+01  5.405433625E+01  5.919201128E+01  8.941385870E+01  1.651812370E-06  0.00000E+00  9.000E+00
#rwgt            1           1   3.3131955508784963E-002           9       87886           0
</event>
<event>
      5   9999  3.79277E-02  4.35466E+01 -1.00000E+00  1.42589E-01
      21    -1     0     0   502   512  0.000000000E+00  0.000000000E+00  9.702746471E+01  9.702746471E+01  0.000000000E+00  0.00000E+00  9.000E+00
      21    -1     0     0   501   502  0.000000000E+00  0.000000000E+00 -3.975234653E+02  3.975234653E+02  0.000000000E+00  0.00000E+00  9.000E+00
      25     1     1     2     0     0 -7.915229460E+01 -1.889340209E+00 -9.560288251E+00  1.482735798E+02  1.250000000E+02  0.00000E+00  9.000E+00
      25     1     1     2     0     0  3.588741013E+01 -3.055860546E+00 -2.659790716E+02  2.960863236E+02  1.250000000E+02  0.00000E+00  9.000E+00
      21     1     1     2   501   512  4.326488447E+01  4.945200755E+00 -2.495664073E+01  5.019102664E+01  5.840038640E-07  0.00000E+00  9.000E+00
#rwgt            1           1   3.7067655061995372E-002           9       88033           0
</event>
<event>
      5   9999  3.79277E-02  9.20248E+01 -1.00000E+00  1.25473E-01
       4    -1     0     0   502     0  0.000000000E+00  0.000000000E+00  1.687361730E+03  1.687361730E+03  0.000000000E+00  0.00000E+00  9.000E+00
      21    -1     0     0   501   502  0.000000000E+00  0.000000000E+00 -9.036782638E+01  9.036782638E+01  0.000000000E+00  0.00000E+00  9.000E+00
      25     1     1     2     0     0  1.107725105E+02  5.518789162E+01  1.193422947E+03  1.206316535E+03  1.250000000E+02  0.00000E+00  9.000E+00
      25     1     1     2     0     0 -5.315298308E+01 -1.269413640E+02  3.204086383E+01  1.886556823E+02  1.250000000E+02  0.00000E+00  9.000E+00
       4     1     1     2   501     0 -5.761952739E+01  7.175347234E+01  3.715300934E+02  3.827573396E+02  5.394796609E-06  0.00000E+00  9.000E+00
#rwgt            2          20   5.4310966399566057E-006           9       88223           0
</event>
<event>
      5   9999  3.79277E-02  1.55640E+01 -1.00000E+00  1.75887E-01
      21    -1     0     0   511   501  0.000000000E+00  0.000000000E+00  1.446995521E+02  1.446995521E+02  0.000000000E+00  0.00000E+00  9.000E+00
      21    -1     0     0   501   502  0.000000000E+00  0.000000000E+00 -5.835280551E+02  5.835280551E+02  0.000000000E+00  0.00000E+00  9.000E+00
      25     1     1     2     0     0  4.904446357E+01 -5.461444476E+01  5.245159418E+01  1.541566305E+02  1.250000000E+02  0.00000E+00  9.000E+00
      25     1     1     2     0     0 -6.455996852E+01  5.338622050E+01 -5.200382466E+02  5.413712737E+02  1.250000000E+02  0.00000E+00  9.000E+00
      21     1     1     2   511   502  1.551550495E+01  1.228224263E+00  2.875814930E+01  3.269970305E+01  0.000000000E+00  0.00000E+00  9.000E+00
#rwgt            1           1   1.8855071344873627E-002           9       88437           0
</event>
<event>
      5   9999  3.79277E-02  1.99333E+01 -1.00000E+00  1.66489E-01
      21    -1     0     0   502   512  0.000000000E+00  0.000000000E+00  8.315565910E+02  8.315565910E+02  0.000000000E+00  0.00000E+00  9.000E+00
      21    -1     0     0   501   502  0.000000000E+00  0.000000000E+00 -8.085203187E+01  8.085203187E+01  0.000000000E+00  0.00000E+00  9.000E+00
      25     1     1     2     0     0 -4.157674441E+01  2.016410235E+02  3.781417697E+02  4.483346139E+02  1.250000000E+02  0.00000E+00  9.000E+00
      25     1     1     2     0     0  5.448273896E+01 -2.168321761E+02  3.368577936E+02  4.231816803E+02  1.250000000E+02  0.00000E+00  9.000E+00
      21     1     1     2   501   512 -1.290599455E+01  1.519115265E+01  3.570499587E+01  4.089232867E+01  4.768371582E-07  0.00000E+00  9.000E+00
#rwgt            1           1   5.9799699701097872E-002           9       88688           0
</event>
<event>
      5   9999  3.79277E-02  2.93543E+01 -1.00000E+00  1.53699E-01
      21    -1     0     0   511   501  0.000000000E+00  0.000000000E+00  7.253704863E+01  7.253704863E+01  0.000000000E+00  0.00000E+00  9.000E+00
      21    -1     0     0   501   502  0.000000000E+00  0.000000000E+00 -4.812394500E+02  4.812394500E+02  0.000000000E+00  0.00000E+00  9.000E+00
      25     1     1     2     0     0 -7.971310961E+01  9.515882518E+00 -1.454470756E+02  2.079052276E+02  1.250000000E+02  0.00000E+00  9.000E+00
      25     1     1     2     0     0  7.582334833E+01  1.957952989E+01 -2.767182150E+02  3.135769581E+02  1.250000000E+02  0.00000E+00  9.000E+00
      21     1     1     2   511   502  3.889761283E+00 -2.909541241E+01  1.346288915E+01  3.229431297E+01  3.769728732E-07  0.00000E+00  9.000E+00
#rwgt            1           1   2.8863159879371519E-002           9       88902           0
</event>
<event>
      5   9999 -3.79277E-02  1.62962E+02 -1.00000E+00  1.14985E-01
      21    -1     0     0   512   501  0.000000000E+00  0.000000000E+00  2.061090304E+02  2.061090304E+02  0.000000000E+00  0.00000E+00  9.000E+00
      21    -1     0     0   501   502  0.000000000E+00  0.000000000E+00 -5.304309659E+02  5.304309659E+02  0.000000000E+00  0.00000E+00  9.000E+00
      25     1     1     2     0     0 -4.009175615E+01 -1.464100390E+02 -1.025712805E+02  2.217861944E+02  1.250000000E+02  0.00000E+00  9.000E+00
      25     1     1     2     0     0 -7.455591852E+01  2.622220994E+02 -1.642932777E+02  3.419594940E+02  1.250000000E+02  0.00000E+00  9.000E+00
      21     1     1     2   512   502  1.146476747E+02 -1.158120604E+02 -5.745737727E+01  1.727943079E+02  3.162979880E-06  0.00000E+00  9.000E+00
#rwgt            1           1 -0.11517934457884403                9       89128           0
</event>
<event>
      5   9999  3.79277E-02  4.54504E+01 -1.00000E+00  1.41481E-01
      21    -1     0     0   511   501  0.000000000E+00  0.000000000E+00  4.031821458E+01  4.031821458E+01  0.000000000E+00  0.00000E+00  9.000E+00
      21    -1     0     0   501   502  0.000000000E+00  0.000000000E+00 -1.441593684E+03  1.441593684E+03  0.000000000E+00  0.00000E+00  9.000E+00
      25     1     1     2     0     0  4.487954235E+01 -5.468529947E+01 -9.045330333E+02  9.158655270E+02  1.250000000E+02  0.00000E+00  9.000E+00
      25     1     1     2     0     0 -7.764307970E+01  8.618588358E+01 -4.915611060E+02  5.203016195E+02  1.250000000E+02  0.00000E+00  9.000E+00
      21     1     1     2   511   502  3.276353735E+01 -3.150058412E+01 -5.181330427E+00  4.574475232E+01  7.839767002E-07  0.00000E+00  9.000E+00
#rwgt            1           1   3.4746053795965549E-002           9       89308           0
</event>
<event>
      5   9999  3.79277E-02  8.53722E+01 -1.00000E+00  1.26998E-01
      21    -1     0     0   502   501  0.000000000E+00  0.000000000E+00  1.716739955E+03  1.716739955E+03  0.000000000E+00  0.00000E+00  9.000E+00
      21    -1     0     0   501   512  0.000000000E+00  0.000000000E+00 -5.961521313E+01  5.961521313E+01  0.000000000E+00  0.00000E+00  9.000E+00
      25     1     1     2     0     0 -3.324718962E+01 -4.114790869E+01  1.475999115E+03  1.482227012E+03  1.250000000E+02  0.00000E+00  9.000E+00
      25     1     1     2     0     0  6.352642975E+01 -3.867427993E+01  1.265840287E+02  1.928207030E+02  1.250000000E+02  0.00000E+00  9.000E+00
      21     1     1     2   502   512 -3.027924013E+01  7.982218861E+01  5.454159766E+01  1.013074531E+02  2.523185073E-06  0.00000E+00  9.000E+00
#rwgt            1           1   6.8573806429957598E-002           9       89417           0
</event>
<event>
      5   9999  3.79277E-02  1.57223E+01 -1.00000E+00  1.75481E-01
      21    -1     0     0   511   501  0.000000000E+00  0.000000000E+00  2.234850730E+03  2.234850730E+03  0.000000000E+00  0.00000E+00  9.000E+00
      21    -1     0     0   501   502  0.000000000E+00  0.000000000E+00 -2.263615240E+02  2.263615240E+02  0.000000000E+00  0.00000E+00  9.000E+00
      25     1     1     2     0     0  1.813767387E+01 -5.132647075E+01 -1.577591781E+02  2.085098081E+02  1.250000000E+02  0.00000E+00  9.000E+00
      25     1     1     2     0     0 -3.182560801E+00  5.617767131E+01  6.555295022E+01  1.519481778E+02  1.250000000E+02  0.00000E+00  9.000E+00
      21     1     1     2   511   502 -1.495511307E+01 -4.851200556E+00  2.100695434E+03  2.100754268E+03  3.051757812E-05  0.00000E+00  9.000E+00
#rwgt            1           1   4.4985105730221527E-002           9       89508           0
</event>
<event>
      5   9999  3.79277E-02  8.91094E+01 -1.00000E+00  1.26123E-01
      21    -1     0     0   502   501  0.000000000E+00  0.000000000E+00  4.660607988E+01  4.660607988E+01  0.000000000E+00  0.00000E+00  9.000E+00
      21    -1     0     0   512   502  0.000000000E+00  0.000000000E+00 -8.078243640E+02  8.078243640E+02  0.000000000E+00  0.00000E+00  9.000E+00
      25     1     1     2     0     0 -2.350906787E+01  6.662519739E+00 -1.326541144E+02  1.838999171E+02  1.250000000E+02  0.00000E+00  9.000E+00
      25     1     1     2     0     0 -5.788961804E+01  2.959680343E+01 -4.392156550E+02  4.612619323E+02  1.250000000E+02  0.00000E+00  9.000E+00
      21     1     1     2   512   501  8.139868591E+01 -3.625932317E+01 -1.893485147E+02  2.092685944E+02  2.697398305E-06  0.00000E+00  9.000E+00
#rwgt            1           1   5.0220162366844172E-002           9       89675           0
</event>
<event>
      5   9999  3.79277E-02  4.23907E+01 -1.00000E+00  1.43294E-01
      21    -1     0     0   502   501  0.000000000E+00  0.000000000E+00  1.296431583E+02  1.296431583E+02  0.000000000E+00  0.00000E+00  9.000E+00
      21    -1     0     0   501   511  0.000000000E+00  0.000000000E+00 -1.318611260E+03  1.318611260E+03  0.000000000E+00  0.00000E+00  9.000E+00
      25     1     1     2     0     0 -2.736599995E+02 -2.514459996E+02 -4.057331940E+02  5.642333833E+02  1.250000000E+02  0.00000E+00  9.000E+00
      25     1     1     2     0     0  2.660846590E+02  2.097376859E+02 -6.424487844E+02  7.369914404E+02  1.250000000E+02  0.00000E+00  9.000E+00
      21     1     1     2   502   511  7.575340532E+00  4.170831362E+01 -1.407861231E+02  1.470295945E+02  1.907348633E-06  0.00000E+00  9.000E+00
#rwgt            1           1   6.7008621437858240E-002           9       89767           0
</event>
<event>
      5   9999 -3.79277E-02  5.00474E+01 -1.00000E+00  1.39052E-01
      21    -1     0     0   502   512  0.000000000E+00  0.000000000E+00  4.579982584E+02  4.579982584E+02  0.000000000E+00  0.00000E+00  9.000E+00
      21    -1     0     0   501   502  0.000000000E+00  0.000000000E+00 -4.482913541E+02  4.482913541E+02  0.000000000E+00  0.00000E+00  9.000E+00
      25     1     1     2     0     0  9.670516914E+01  1.166888562E+02 -1.405111397E+02  2.415296240E+02  1.250000000E+02  0.00000E+00  9.000E+00
      25     1     1     2     0     0 -1.416759112E+02 -9.472594068E+01 -2.118497054E+02  2.992496705E+02  1.250000000E+02  0.00000E+00  9.000E+00
      21     1     1     2   501   512  4.497074202E+01 -2.196291552E+01  3.620677494E+02  3.655103179E+02  7.629394531E-06  0.00000E+00  9.000E+00
#rwgt            1           1 -0.11314214181495147                9       90033           0
</event>
<event>
      5   9999  3.79277E-02  6.16795E+01 -1.00000E+00  1.34066E-01
      21    -1     0     0   502   511  0.000000000E+00  0.000000000E+00  1.933515024E+02  1.933515024E+02  0.000000000E+00  0.00000E+00  9.000E+00
      21    -1     0     0   501   502  0.000000000E+00  0.000000000E+00 -4.895052896E+02  4.895052896E+02  0.000000000E+00  0.00000E+00  9.000E+00
      25     1     1     2     0     0 -6.713824798E+01 -4.286878388E+00  1.201190771E+02  1.859556785E+02  1.250000000E+02  0.00000E+00  9.000E+00
      25     1     1     2     0     0  1.285114478E+02  1.042663882E+01 -3.909573031E+02  4.302284508E+02  1.250000000E+02  0.00000E+00  9.000E+00
      21     1     1     2   501   511 -6.137319983E+01 -6.139760437E+00 -2.531556124E+01  6.667266274E+01  1.118282261E-06  0.00000E+00  9.000E+00
#rwgt            2          11   3.4461731268278575E-003           9       90200           0
</event>
<event>
      5   9999  3.79277E-02  2.12776E+01 -1.00000E+00  1.64180E-01
      21    -1     0     0   512   501  0.000000000E+00  0.000000000E+00  6.652524229E+01  6.652524229E+01  0.000000000E+00  0.00000E+00  9.000E+00
      21    -1     0     0   501   502  0.000000000E+00  0.000000000E+00 -7.895483831E+02  7.895483831E+02  0.000000000E+00  0.00000E+00  9.000E+00
      25     1     1     2     0     0  8.404107058E+01  1.124807798E+02 -1.298739259E+02  2.284886518E+02  1.250000000E+02  0.00000E+00  9.000E+00
      25     1     1     2     0     0 -8.046812367E+01 -9.150535319E+01 -5.700483318E+02  5.961782025E+02  1.250000000E+02  0.00000E+00  9.000E+00
      21     1     1     2   512   502 -3.572946911E+00 -2.097542659E+01 -2.310088315E+01  3.140677112E+01  0.000000000E+00  0.00000E+00  9.000E+00
#rwgt            1           1   4.0441784975971222E-002           9       90310           0
</event>
<event>
      5   9999  3.79277E-02  3.68675E+01 -1.00000E+00  1.47071E-01
      21    -1     0     0   502   501  0.000000000E+00  0.000000000E+00  9.139082764E+01  9.139082764E+01  0.000000000E+00  0.00000E+00  9.000E+00
      21    -1     0     0   511   502  0.000000000E+00  0.000000000E+00 -7.652718542E+02  7.652718542E+02  0.000000000E+00  0.00000E+00  9.000E+00
      25     1     1     2     0     0 -2.797271470E+01  1.583094925E+02 -5.181625548E+02  5.567421318E+02  1.250000000E+02  0.00000E+00  9.000E+00
      25     1     1     2     0     0 -5.952136954E+00 -1.438762431E+02 -6.411335502E+01  2.011748581E+02  1.250000000E+02  0.00000E+00  9.000E+00
      21     1     1     2   511   501  3.392485165E+01 -1.443324939E+01 -9.160511678E+01  9.874569189E+01  1.348699152E-06  0.00000E+00  9.000E+00
#rwgt            1           1   4.5458990674674647E-002           9       90507           0
</event>
<event>
      5   9999  3.79277E-02  2.05017E+01 -1.00000E+00  1.65486E-01
      21    -1     0     0   512   501  0.000000000E+00  0.000000000E+00  1.199183798E+02  1.199183798E+02  0.000000000E+00  0.00000E+00  9.000E+00
      21    -1     0     0   501   502  0.000000000E+00  0.000000000E+00 -5.688308607E+02  5.688308607E+02  0.000000000E+00  0.00000E+00  9.000E+00
      25     1     1     2     0     0 -1.928972784E+02 -2.893862036E+01 -7.785192350E+01  2.444027941E+02  1.250000000E+02  0.00000E+00  9.000E+00
      25     1     1     2     0     0  1.735785079E+02  3.580181648E+01 -3.618587752E+02  4.218744383E+02  1.250000000E+02  0.00000E+00  9.000E+00
      21     1     1     2   512   502  1.931877046E+01 -6.863196121E+00 -9.201782171E+00  2.247200810E+01  4.460403188E-07  0.00000E+00  9.000E+00
#rwgt            1           1   4.0552019836460597E-002           9       90640           0
</event>
<event>
      5   9999  3.79277E-02  1.56052E+01 -1.00000E+00  1.75781E-01
      21    -1     0     0   511   501  0.000000000E+00  0.000000000E+00  1.932901279E+03  1.932901279E+03  0.000000000E+00  0.00000E+00  9.000E+00
      21    -1     0     0   501   502  0.000000000E+00  0.000000000E+00 -1.952563923E+01  1.952563923E+01  0.000000000E+00  0.00000E+00  9.000E+00
      25     1     1     2     0     0  3.565531580E+01 -1.118073763E+02  9.554887677E+02  9.707502131E+02  1.250000000E+02  0.00000E+00  9.000E+00
      25     1     1     2     0     0 -2.513244957E+01  1.002838957E+02  5.482900119E+02  5.717826833E+02  1.250000000E+02  0.00000E+00  9.000E+00
      21     1     1     2   511   502 -1.052286622E+01  1.152348059E+01  4.095968602E+02  4.098940220E+02  5.394796609E-06  0.00000E+00  9.000E+00
#rwgt            1           1   6.0463073911703080E-002           9       90935           0
</event>
<event>
      5   9999  3.79277E-02  4.71871E+01 -1.00000E+00  1.40526E-01
      21    -1     0     0   502   512  0.000000000E+00  0.000000000E+00  3.453832293E+02  3.453832293E+02  0.000000000E+00  0.00000E+00  9.000E+00
      21    -1     0     0   501   502  0.000000000E+00  0.000000000E+00 -1.900625056E+02  1.900625056E+02  0.000000000E+00  0.00000E+00  9.000E+00
      25     1     1     2     0     0 -5.887370007E+00 -1.822655416E+02  8.769256830E+01  2.378452760E+02  1.250000000E+02  0.00000E+00  9.000E+00
      25     1     1     2     0     0 -2.873282525E+00  1.358987819E+02 -3.194782719E+01  1.874097072E+02  1.250000000E+02  0.00000E+00  9.000E+00
      21     1     1     2   501   512  8.760652532E+00  4.636675972E+01  9.957598258E+01  1.101907516E+02  0.000000000E+00  0.00000E+00  9.000E+00
#rwgt            1           1   4.1952102985833843E-002           9       91229           0
</event>
<event>
      5   9999  3.79277E-02  1.14893E+02 -1.00000E+00  1.21176E-01
      21    -1     0     0   502   501  0.000000000E+00  0.000000000E+00  1.903846239E+02  1.903846239E+02  0.000000000E+00  0.00000E+00  9.000E+00
      21    -1     0     0   511   502  0.000000000E+00  0.000000000E+00 -3.471883649E+02  3.471883649E+02  0.000000000E+00  0.00000E+00  9.000E+00
      25     1     1     2     0     0 -4.298191076E+00 -1.549257397E+01  8.892364296E+01  1.542430179E+02  1.250000000E+02  0.00000E+00  9.000E+00
      25     1     1     2     0     0  9.243646896E+01  8.919432167E+01 -1.452766520E+02  2.307172153E+02  1.250000000E+02  0.00000E+00  9.000E+00
      21     1     1     2   511   501 -8.813827788E+01 -7.370174770E+01 -1.004507319E+02  1.526127556E+02  1.907348633E-06  0.00000E+00  9.000E+00
#rwgt            2          11   2.0940973013984275E-003           9       91392           0
</event>
<event>
      5   9999  3.79277E-02  1.27829E+01 -1.00000E+00  1.84188E-01
      21    -1     0     0   512   501  0.000000000E+00  0.000000000E+00  5.727379041E+01  5.727379041E+01  0.000000000E+00  0.00000E+00  9.000E+00
      21    -1     0     0   501   502  0.000000000E+00  0.000000000E+00 -1.259869122E+03  1.259869122E+03  0.000000000E+00  0.00000E+00  9.000E+00
      25     1     1     2     0     0  6.804936927E+00  1.209097900E+02 -1.043017377E+03  1.057438289E+03  1.250000000E+02  0.00000E+00  9.000E+00
      25     1     1     2     0     0  1.698879795E+00 -1.304537335E+02 -1.660338576E+02  2.453839943E+02  1.250000000E+02  0.00000E+00  9.000E+00
      21     1     1     2   512   502 -8.503816722E+00  9.543943437E+00  6.455903143E+00  1.432062989E+01  3.153981341E-07  0.00000E+00  9.000E+00
#rwgt            1           1   4.2826083487893199E-002           9       91457           0
</event>
<event>
      5   9999  3.79277E-02  3.17192E+01 -1.00000E+00  1.51378E-01
      21    -1     0     0   502   501  0.000000000E+00  0.000000000E+00  4.835724664E+02  4.835724664E+02  0.000000000E+00  0.00000E+00  9.000E+00
      21    -1     0     0   501   511  0.000000000E+00  0.000000000E+00 -9.689782831E+01  9.689782831E+01  0.000000000E+00  0.00000E+00  9.000E+00
      25     1     1     2     0     0  2.245018602E+01 -1.085380298E+02  2.308882778E+01  1.686493662E+02  1.250000000E+02  0.00000E+00  9.000E+00
      25     1     1     2     0     0 -3.107792118E+01  7.801480653E+01  3.413296660E+02  3.730724972E+02  1.250000000E+02  0.00000E+00  9.000E+00
      21     1     1     2   502   511  8.627735154E+00  3.052322326E+01  2.225614431E+01  3.874843134E+01  4.129530925E-07  0.00000E+00  9.000E+00
#rwgt            1           1   2.7202902069198530E-002           9       91747           0
</event>
<event>
      5   9999  3.79277E-02  9.80056E+01 -1.00000E+00  1.24223E-01
      21    -1     0     0   502   501  0.000000000E+00  0.000000000E+00  1.191657817E+02  1.191657817E+02  0.000000000E+00  0.00000E+00  9.000E+00
      21    -1     0     0   512   502  0.000000000E+00  0.000000000E+00 -6.923348896E+02  6.923348896E+02  0.000000000E+00  0.00000E+00  9.000E+00
      25     1     1     2     0     0 -8.971939584E+01 -8.442375253E+01 -4.063782577E+02  4.426570098E+02  1.250000000E+02  0.00000E+00  9.000E+00
      25     1     1     2     0     0  4.428319736E+01  1.712606662E+02 -6.185869514E+01  2.252614382E+02  1.250000000E+02  0.00000E+00  9.000E+00
      21     1     1     2   512   501  4.543619848E+01 -8.683691367E+01 -1.049321550E+02  1.435822234E+02  1.348699152E-06  0.00000E+00  9.000E+00
#rwgt            1           1   5.6624985235414912E-002           9       91826           0
</event>
<event>
      5   9999  3.79277E-02  9.62604E+01 -1.00000E+00  1.24577E-01
       2    -1     0     0   502     0  0.000000000E+00  0.000000000E+00  9.557584682E+02  9.557584682E+02  0.000000000E+00  0.00000E+00  9.000E+00
      21    -1     0     0   501   502  0.000000000E+00  0.000000000E+00 -6.899193190E+02  6.899193190E+02  0.000000000E+00  0.00000E+00  9.000E+00
      25     1     1     2     0     0  6.358590017E+01 -2.804770391E+01 -1.821582507E+02  2.315954850E+02  1.250000000E+02  0.00000E+00  9.000E+00
      25     1     1     2     0     0 -3.504493398E+01  1.199795863E+02 -4.642522873E+02  4.967679889E+02  1.250000000E+02  0.00000E+00  9.000E+00
       2     1     1     2   501     0 -2.854096619E+01 -9.193188236E+01  9.122496872E+02  9.173143133E+02  1.525878906E-05  0.00000E+00  9.000E+00
#rwgt            1           1   3.0793933678935403E-002           9       91922           0
</event>
<event>
      5   9999  3.79277E-02  1.71938E+02 -1.00000E+00  1.14092E-01
      21    -1     0     0   511   501  0.000000000E+00  0.000000000E+00  7.815953681E+02  7.815953681E+02  0.000000000E+00  0.00000E+00  9.000E+00
      21    -1     0     0   501   502  0.000000000E+00  0.000000000E+00 -3.038394539E+02  3.038394539E+02  0.000000000E+00  0.00000E+00  9.000E+00
      25     1     1     2     0     0 -1.687890467E+02 -1.912562300E+02  1.113378759E+01  2.842844509E+02  1.250000000E+02  0.00000E+00  9.000E+00
      25     1     1     2     0     0  1.934675108E+02  3.614135063E+02  1.756414319E+02  4.631676941E+02  1.250000000E+02  0.00000E+00  9.000E+00
      21     1     1     2   511   502 -2.467846415E+01 -1.701572763E+02  2.909806947E+02  3.379826771E+02  7.629394531E-06  0.00000E+00  9.000E+00
#rwgt            1           1   3.6295346550305183E-002           9       92004           0
</event>
<event>
      5   9999  3.79277E-02  4.79009E+01 -1.00000E+00  1.40147E-01
      21    -1     0     0   502   501  0.000000000E+00  0.000000000E+00  5.757016174E+02  5.757016174E+02  0.000000000E+00  0.00000E+00  9.000E+00
      21    -1     0     0   501   512  0.000000000E+00  0.000000000E+00 -1.890992565E+02  1.890992565E+02  0.000000000E+00  0.00000E+00  9.000E+00
      25     1     1     2     0     0 -9.742893296E+01 -6.746913061E+01  3.136530976E+02  3.578375975E+02  1.250000000E+02  0.00000E+00  9.000E+00
      25     1     1     2     0     0  1.446379692E+02  7.558098300E+01  1.903527854E+02  2.801638985E+02  1.250000000E+02  0.00000E+00  9.000E+00
      21     1     1     2   502   512 -4.720903627E+01 -8.111852386E+00 -1.174035220E+02  1.267993779E+02  1.907348633E-06  0.00000E+00  9.000E+00
#rwgt            1           1   3.0821881415913098E-002           9       92060           0
</event>
<event>
      5   9999  3.79277E-02  2.37902E+01 -1.00000E+00  1.60381E-01
      21    -1     0     0   502   511  0.000000000E+00  0.000000000E+00  1.318284987E+03  1.318284987E+03  0.000000000E+00  0.00000E+00  9.000E+00
      21    -1     0     0   501   502  0.000000000E+00  0.000000000E+00 -3.920542880E+01  3.920542880E+01  0.000000000E+00  0.00000E+00  9.000E+00
      25     1     1     2     0     0 -9.752445999E+01  2.243207441E+01  1.705626168E+02  2.339462000E+02  1.250000000E+02  0.00000E+00  9.000E+00
      25     1     1     2     0     0  8.290897747E+01 -4.120338856E+01  8.656576924E+02  8.795225171E+02  1.250000000E+02  0.00000E+00  9.000E+00
      21     1     1     2   501   511  1.461548252E+01  1.877131415E+01  2.428592491E+02  2.440216987E+02  0.000000000E+00  0.00000E+00  9.000E+00
#rwgt            1           1   1.5066753293610747E-002           9       92202           0
</event>
<event>
      5   9999  3.79277E-02  5.37751E+01 -1.00000E+00  1.37296E-01
      21    -1     0     0   502   501  0.000000000E+00  0.000000000E+00  2.929509408E+02  2.929509408E+02  0.000000000E+00  0.00000E+00  9.000E+00
      -2    -1     0     0     0   502  0.000000000E+00  0.000000000E+00 -5.680777630E+02  5.680777630E+02  0.000000000E+00  0.00000E+00  9.000E+00
      25     1     1     2     0     0  1.572227298E+02  4.587880146E+01  1.821278437E+02  2.749898228E+02  1.250000000E+02  0.00000E+00  9.000E+00
      25     1     1     2     0     0 -1.107527927E+02 -7.293987242E+01 -7.024240264E+01  1.953084770E+02  1.250000000E+02  0.00000E+00  9.000E+00
      -2     1     1     2     0   501 -4.646993714E+01  2.706107097E+01 -3.870122633E+02  3.907304039E+02  5.394796609E-06  0.00000E+00  9.000E+00
#rwgt            1           1   3.2371877086744792E-002           9       92353           0
</event>
<event>
      5   9999  3.79277E-02  4.63774E+01 -1.00000E+00  1.40965E-01
      21    -1     0     0   502   501  0.000000000E+00  0.000000000E+00  1.960277250E+03  1.960277250E+03  0.000000000E+00  0.00000E+00  9.000E+00
      21    -1     0     0   501   511  0.000000000E+00  0.000000000E+00 -7.516162991E+01  7.516162991E+01  0.000000000E+00  0.00000E+00  9.000E+00
      25     1     1     2     0     0  1.221611832E+02  7.760337126E+00  7.061185906E+02  7.274696155E+02  1.250000000E+02  0.00000E+00  9.000E+00
      25     1     1     2     0     0 -1.396604431E+02  3.518896991E+01  1.226701543E+03  1.241436659E+03  1.250000000E+02  0.00000E+00  9.000E+00
      21     1     1     2   502   511  1.749925986E+01 -4.294930704E+01 -4.770451302E+01  6.653260579E+01  2.023048729E-06  0.00000E+00  9.000E+00
#rwgt            1           1  0.12623939212520760                9       92557           0
</event>
<event>
      5   9999  3.79277E-02  9.61908E+00 -1.00000E+00  1.97727E-01
      21    -1     0     0   502   501  0.000000000E+00  0.000000000E+00  2.994780266E+01  2.994780266E+01  0.000000000E+00  0.00000E+00  9.000E+00
      21    -1     0     0   501   512  0.000000000E+00  0.000000000E+00 -2.845465264E+03  2.845465264E+03  0.000000000E+00  0.00000E+00  9.000E+00
      25     1     1     2     0     0  2.285055730E+01 -1.525364903E+02 -6.021881003E+02  6.340702146E+02  1.250000000E+02  0.00000E+00  9.000E+00
      25     1     1     2     0     0 -2.955040973E+01  1.594385747E+02 -7.350367025E+02  7.630188988E+02  1.250000000E+02  0.00000E+00  9.000E+00
      21     1     1     2   502   512  6.699852433E+00 -6.902084386E+00 -1.478292658E+03  1.478323953E+03  0.000000000E+00  0.00000E+00  9.000E+00
#rwgt            1           1   3.4625062001312240E-002           9       92923           0
</event>
<event>
      5   9999  3.79277E-02  2.55038E+01 -1.00000E+00  1.58105E-01
      21    -1     0     0   502   501  0.000000000E+00  0.000000000E+00  2.034085642E+03  2.034085642E+03  0.000000000E+00  0.00000E+00  9.000E+00
      21    -1     0     0   501   511  0.000000000E+00  0.000000000E+00 -2.565771674E+01  2.565771674E+01  0.000000000E+00  0.00000E+00  9.000E+00
      25     1     1     2     0     0  9.377223810E+01 -1.753755511E+01  1.667623449E+03  1.675020527E+03  1.250000000E+02  0.00000E+00  9.000E+00
      25     1     1     2     0     0 -7.564572946E+01  3.547837852E+01  2.642226533E+02  3.040059247E+02  1.250000000E+02  0.00000E+00  9.000E+00
      21     1     1     2   502   511 -1.812650863E+01 -1.794082341E+01  7.658182238E+01  8.071690640E+01  1.348699152E-06  0.00000E+00  9.000E+00
#rwgt            1           1   5.1623039824061676E-002           9       93208           0
</event>
<event>
      5   9999  3.79277E-02  3.08120E+01 -1.00000E+00  1.52239E-01
      21    -1     0     0   502   512  0.000000000E+00  0.000000000E+00  6.577942401E+02  6.577942401E+02  0.000000000E+00  0.00000E+00  9.000E+00
      21    -1     0     0   501   502  0.000000000E+00  0.000000000E+00 -5.376923434E+01  5.376923434E+01  0.000000000E+00  0.00000E+00  9.000E+00
      25     1     1     2     0     0 -6.231051874E+01  7.137885154E+01  1.206917127E+02  1.979116740E+02  1.250000000E+02  0.00000E+00  9.000E+00
      25     1     1     2     0     0  5.292491700E+01 -4.203112733E+01  3.749557207E+02  4.009793698E+02  1.250000000E+02  0.00000E+00  9.000E+00
      21     1     1     2   501   512  9.385601741E+00 -2.934772422E+01  1.083775724E+02  1.126724307E+02  1.348699152E-06  0.00000E+00  9.000E+00
#rwgt            1           1   3.3158111241532146E-002           9       93423           0
</event>
<event>
      5   9999  3.79277E-02  3.81083E+01 -1.00000E+00  1.46157E-01
      21    -1     0     0   502   501  0.000000000E+00  0.000000000E+00  5.660991290E+01  5.660991290E+01  0.000000000E+00  0.00000E+00  9.000E+00
      21    -1     0     0   501   511  0.000000000E+00  0.000000000E+00 -1.348167309E+03  1.348167309E+03  0.000000000E+00  0.00000E+00  9.000E+00
      25     1     1     2     0     0 -1.020559183E+02  8.044841340E+01 -7.732705649E+02  7.940149395E+02  1.250000000E+02  0.00000E+00  9.000E+00
      25     1     1     2     0     0  7.638131012E+01 -5.228718219E+01 -8.783768874E+01  1.786295427E+02  1.250000000E+02  0.00000E+00  9.000E+00
      21     1     1     2   502   511  2.567460823E+01 -2.816123120E+01 -4.304491424E+02  4.321327396E+02  7.629394531E-06  0.00000E+00  9.000E+00
#rwgt            1           1   1.9746039211874324E-002           9       93537           0
</event>
<event>
      5   9999  3.79277E-02  1.58911E+01 -1.00000E+00  1.75055E-01
      21    -1     0     0   502   501  0.000000000E+00  0.000000000E+00  1.211186131E+03  1.211186131E+03  0.000000000E+00  0.00000E+00  9.000E+00
      -1    -1     0     0     0   502  0.000000000E+00  0.000000000E+00 -1.002710690E+02  1.002710690E+02  0.000000000E+00  0.00000E+00  9.000E+00
      25     1     1     2     0     0  1.071114872E+01  2.897742649E+01  1.487800339E+02  1.967610694E+02  1.250000000E+02  0.00000E+00  9.000E+00
      25     1     1     2     0     0 -1.890269512E+01 -1.536034499E+01  1.033635418E+03  1.041451117E+03  1.250000000E+02  0.00000E+00  9.000E+00
      -1     1     1     2     0   501  8.191546403E+00 -1.361708150E+01 -7.150038956E+01  7.324501381E+01  2.523185073E-06  0.00000E+00  9.000E+00
#rwgt            1           1   4.9069373559609143E-002           9       93614           0
</event>
<event>
      5   9999  3.79277E-02  6.40465E+01 -1.00000E+00  1.33206E-01
      21    -1     0     0   502   501  0.000000000E+00  0.000000000E+00  4.304433073E+02  4.304433073E+02  0.000000000E+00  0.00000E+00  9.000E+00
       2    -1     0     0   501     0  0.000000000E+00  0.000000000E+00 -1.504308890E+02  1.504308890E+02  0.000000000E+00  0.00000E+00  9.000E+00
      25     1     1     2     0     0 -1.695080514E+02 -2.795526395E+01  2.763878511E+02  3.486111308E+02  1.250000000E+02  0.00000E+00  9.000E+00
      25     1     1     2     0     0  1.055709831E+02  3.169839768E+01  1.454613065E+01  1.672919926E+02  1.250000000E+02  0.00000E+00  9.000E+00
       2     1     1     2   502     0  6.393706836E+01 -3.743133731E+00 -1.092156343E+01  6.497107286E+01  6.078504936E-07  0.00000E+00  9.000E+00
#rwgt            1           1   2.4401919592137240E-002           9       93774           0
</event>
<event>
      5   9999  3.79277E-02  2.00334E+02 -1.00000E+00  1.11622E-01
      21    -1     0     0   511   501  0.000000000E+00  0.000000000E+00  3.157944493E+02  3.157944493E+02  0.000000000E+00  0.00000E+00  9.000E+00
      21    -1     0     0   501   502  0.000000000E+00  0.000000000E+00 -1.545924351E+03  1.545924351E+03  0.000000000E+00  0.00000E+00  9.000E+00
      25     1     1     2     0     0 -2.229635247E+02 -3.095728429E+02 -3.215736200E+02  5.143760020E+02  1.250000000E+02  0.00000E+00  9.000E+00
      25     1     1     2     0     0  9.824463020E+01  4.663488895E+02 -1.009273202E+03  1.123116508E+03  1.250000000E+02  0.00000E+00  9.000E+00
      21     1     1     2   511   502  1.247188945E+02 -1.567760467E+02  1.007169201E+02  2.242262907E+02  4.473129043E-06  0.00000E+00  9.000E+00
#rwgt            1           1  0.17387839225284357                9       93980           0
</event>
<event>
      5   9999  3.79277E-02  1.05976E+02 -1.00000E+00  1.22705E-01
      21    -1     0     0   502   501  0.000000000E+00  0.000000000E+00  6.737468092E+02  6.737468092E+02  0.000000000E+00  0.00000E+00  9.000E+00
      21    -1     0     0   512   502  0.000000000E+00  0.000000000E+00 -6.496505999E+02  6.496505999E+02  0.000000000E+00  0.00000E+00  9.000E+00
      25     1     1     2     0     0 -5.599516115E+01 -1.134792838E+02  6.097039102E+02  6.351195667E+02  1.250000000E+02  0.00000E+00  9.000E+00
      25     1     1     2     0     0  4.093774039E+01  2.183796528E+02 -4.332217949E+02  5.026645949E+02  1.250000000E+02  0.00000E+00  9.000E+00
      21     1     1     2   512   501  1.505742076E+01 -1.049003690E+02 -1.523859059E+02  1.856132475E+02  1.907348633E-06  0.00000E+00  9.000E+00
#rwgt            1           1   3.2126138763459614E-002           9       94167           0
</event>
<event>
      5   9999  3.79277E-02  1.95453E+01 -1.00000E+00  1.67197E-01
      21    -1     0     0   502   501  0.000000000E+00  0.000000000E+00  1.922477420E+02  1.922477420E+02  0.000000000E+00  0.00000E+00  9.000E+00
      21    -1     0     0   501   511  0.000000000E+00  0.000000000E+00 -2.007768258E+02  2.007768258E+02  0.000000000E+00  0.00000E+00  9.000E+00
      25     1     1     2     0     0  8.868173618E+01  1.266899732E+01  1.097162935E+02  1.889116695E+02  1.250000000E+02  0.00000E+00  9.000E+00
      25     1     1     2     0     0 -6.930023402E+01 -1.014394569E+01 -1.161635993E+02  1.844570516E+02  1.250000000E+02  0.00000E+00  9.000E+00
      21     1     1     2   502   511 -1.938150216E+01 -2.525051635E+00 -2.081778031E+00  1.965584675E+01  3.195943026E-07  0.00000E+00  9.000E+00
#rwgt            1           1   5.1040029382779295E-002           9       94368           0
</event>
<event>
      5   9999  3.79277E-02  2.90275E+01 -1.00000E+00  1.54041E-01
      21    -1     0     0   502   501  0.000000000E+00  0.000000000E+00  5.487549360E+02  5.487549360E+02  0.000000000E+00  0.00000E+00  9.000E+00
      21    -1     0     0   501   512  0.000000000E+00  0.000000000E+00 -2.492645078E+02  2.492645078E+02  0.000000000E+00  0.00000E+00  9.000E+00
      25     1     1     2     0     0  1.893403546E+02  1.574927774E+02 -6.808985176E+01  2.844555725E+02  1.250000000E+02  0.00000E+00  9.000E+00
      25     1     1     2     0     0 -1.603853697E+02 -1.554417881E+02  3.969220909E+02  4.722899136E+02  1.250000000E+02  0.00000E+00  9.000E+00
      21     1     1     2   502   512 -2.895498493E+01 -2.050989299E+00 -2.934181093E+01  4.127395763E+01  1.011524364E-06  0.00000E+00  9.000E+00
#rwgt            1           1   5.0765569921861570E-002           9       94540           0
</event>
<event>
      5   9999  3.79277E-02  2.45825E+01 -1.00000E+00  1.59301E-01
      21    -1     0     0   502   511  0.000000000E+00  0.000000000E+00  2.084883606E+02  2.084883606E+02  0.000000000E+00  0.00000E+00  9.000E+00
      21    -1     0     0   501   502  0.000000000E+00  0.000000000E+00 -4.329012138E+02  4.329012138E+02  0.000000000E+00  0.00000E+00  9.000E+00
      25     1     1     2     0     0 -1.272604789E+02 -1.843903902E+02 -2.672256145E+02  3.704451033E+02  1.250000000E+02  0.00000E+00  9.000E+00
      25     1     1     2     0     0  1.143731210E+02  1.634568557E+02  1.814932756E+01  2.361223254E+02  1.250000000E+02  0.00000E+00  9.000E+00
      21     1     1     2   501   511  1.288735795E+01  2.093353450E+01  2.466343379E+01  3.482214565E+01  8.259061849E-07  0.00000E+00  9.000E+00
#rwgt            1           1  0.19171596121649032                9       94688           0
</event>
<event>
      5   9999  3.79277E-02  2.99104E+01 -1.00000E+00  1.53130E-01
      21    -1     0     0   502   512  0.000000000E+00  0.000000000E+00  5.606764475E+02  5.606764475E+02  0.000000000E+00  0.00000E+00  9.000E+00
      21    -1     0     0   501   502  0.000000000E+00  0.000000000E+00 -2.983114740E+02  2.983114740E+02  0.000000000E+00  0.00000E+00  9.000E+00
      25     1     1     2     0     0 -1.257236752E+02 -1.114106278E+01 -7.329186145E+01  1.921646761E+02  1.250000000E+02  0.00000E+00  9.000E+00
      25     1     1     2     0     0  1.535305684E+02  1.224798642E-01 -1.057159093E+02  2.244381962E+02  1.250000000E+02  0.00000E+00  9.000E+00
      21     1     1     2   501   512 -2.780689317E+01  1.101858292E+01  4.413727442E+02  4.423850492E+02  7.629394531E-06  0.00000E+00  9.000E+00
#rwgt            1           1   3.7253175349328489E-002           9       94778           0
</event>
<event>
      5   9999  3.79277E-02  1.02759E+01 -1.00000E+00  1.94401E-01
      21    -1     0     0   511   501  0.000000000E+00  0.000000000E+00  4.437639872E+02  4.437639872E+02  0.000000000E+00  0.00000E+00  9.000E+00
      21    -1     0     0   501   502  0.000000000E+00  0.000000000E+00 -1.314937119E+02  1.314937119E+02  0.000000000E+00  0.00000E+00  9.000E+00
      25     1     1     2     0     0 -1.475203812E+02  7.414113389E+01  7.386584295E+01  2.198643522E+02  1.250000000E+02  0.00000E+00  9.000E+00
      25     1     1     2     0     0  1.449404614E+02 -8.408785426E+01  1.293059283E+02  2.458119763E+02  1.250000000E+02  0.00000E+00  9.000E+00
      21     1     1     2   511   502  2.579919846E+00  9.946720370E+00  1.090985039E+02  1.095813707E+02  1.907348633E-06  0.00000E+00  9.000E+00
#rwgt            1           1   3.9210757070775960E-002           9       94935           0
</event>
<event>
      5   9999  3.79277E-02  1.34653E+02 -1.00000E+00  1.18282E-01
      21    -1     0     0   502   501  0.000000000E+00  0.000000000E+00  7.840822227E+02  7.840822227E+02  0.000000000E+00  0.00000E+00  9.000E+00
      21    -1     0     0   501   512  0.000000000E+00  0.000000000E+00 -2.986934008E+02  2.986934008E+02  0.000000000E+00  0.00000E+00  9.000E+00
      25     1     1     2     0     0 -1.624473119E+02 -3.257276516E+02  3.782514324E+02  5.396172516E+02  1.250000000E+02  0.00000E+00  9.000E+00
      25     1     1     2     0     0  2.771560832E+02  2.552052905E+02  6.630920336E+01  4.024514196E+02  1.250000000E+02  0.00000E+00  9.000E+00
      21     1     1     2   502   512 -1.147087713E+02  7.052236113E+01  4.082818623E+01  1.407069523E+02  3.198720900E-06  0.00000E+00  9.000E+00
#rwgt            1           1   4.4234925947067329E-002           9       95121           0
</event>
<event>
      5   9999  3.79277E-02  4.40637E+01 -1.00000E+00  1.42281E-01
      21    -1     0     0   502   511  0.000000000E+00  0.000000000E+00  6.709653298E+02  6.709653298E+02  0.000000000E+00  0.00000E+00  9.000E+00
      21    -1     0     0   501   502  0.000000000E+00  0.000000000E+00 -4.238843061E+02  4.238843061E+02  0.000000000E+00  0.00000E+00  9.000E+00
      25     1     1     2     0     0 -3.081684284E+02  1.729937464E+02 -1.855697260E+02  4.182771088E+02  1.250000000E+02  0.00000E+00  9.000E+00
      25     1     1     2     0     0  2.643745863E+02 -1.778626747E+02  1.228543598E+02  3.636581453E+02  1.250000000E+02  0.00000E+00  9.000E+00
      21     1     1     2   501   511  4.379384213E+01  4.868928309E+00  3.097963899E+02  3.129143816E+02  0.000000000E+00  0.00000E+00  9.000E+00
#rwgt            1           1  0.64700371310787819                9       95262           0
</event>
<event>
      5   9999  3.79277E-02  5.09629E+01 -1.00000E+00  1.38604E-01
       1    -1     0     0   502     0  0.000000000E+00  0.000000000E+00  1.406724092E+03  1.406724092E+03  0.000000000E+00  0.00000E+00  9.000E+00
      21    -1     0     0   501   502  0.000000000E+00  0.000000000E+00 -4.303406054E+02  4.303406054E+02  0.000000000E+00  0.00000E+00  9.000E+00
      25     1     1     2     0     0  5.634186525E+01 -1.735139843E+02 -2.730009243E+02  3.513346171E+02  1.250000000E+02  0.00000E+00  9.000E+00
      25     1     1     2     0     0 -9.651469503E+01  1.421553892E+02 -2.173458197E+01  2.135898712E+02  1.250000000E+02  0.00000E+00  9.000E+00
       1     1     1     2   501     0  4.017282978E+01  3.135859506E+01  1.271118993E+03  1.272140209E+03  0.000000000E+00  0.00000E+00  9.000E+00
#rwgt            1           1   3.8668855914999523E-002           9       95486           0
</event>
<event>
      5   9999  3.79277E-02  1.00469E+01 -1.00000E+00  1.95523E-01
      21    -1     0     0   502   511  0.000000000E+00  0.000000000E+00  3.426608926E+02  3.426608926E+02  0.000000000E+00  0.00000E+00  9.000E+00
      21    -1     0     0   501   502  0.000000000E+00  0.000000000E+00 -1.388107510E+02  1.388107510E+02  0.000000000E+00  0.00000E+00  9.000E+00
      25     1     1     2     0     0 -3.558221832E+01  5.900258651E+00  1.991801704E+02  2.379047028E+02  1.250000000E+02  0.00000E+00  9.000E+00
      25     1     1     2     0     0  4.556157342E+01 -4.737568330E+00 -8.197381867E+01  1.563425997E+02  1.250000000E+02  0.00000E+00  9.000E+00
      21     1     1     2   501   511 -9.979355094E+00 -1.162690322E+00  8.664378981E+01  8.722434115E+01  9.536743164E-07  0.00000E+00  9.000E+00
#rwgt            1           1   2.6354401565089010E-002           9       95608           0
</event>
<event>
      5   9999  3.79277E-02  3.58029E+01 -1.00000E+00  1.47890E-01
      21    -1     0     0   502   512  0.000000000E+00  0.000000000E+00  1.480986068E+02  1.480986068E+02  0.000000000E+00  0.00000E+00  9.000E+00
      21    -1     0     0   501   502  0.000000000E+00  0.000000000E+00 -3.264489504E+02  3.264489504E+02  0.000000000E+00  0.00000E+00  9.000E+00
      25     1     1     2     0     0 -5.700630825E+01  4.871036381E+01  6.362928640E+01  1.590474923E+02  1.250000000E+02  0.00000E+00  9.000E+00
      25     1     1     2     0     0  3.263645097E+01 -2.248145017E+01 -2.467015025E+02  2.793871595E+02  1.250000000E+02  0.00000E+00  9.000E+00
      21     1     1     2   501   512  2.436985728E+01 -2.622891363E+01  4.721872552E+00  3.611290538E+01  7.077659420E-07  0.00000E+00  9.000E+00
#rwgt            1           1   2.9996444139432046E-002           9       95819           0
</event>
<event>
      5   9999  3.79277E-02  3.56244E+01 -1.00000E+00  1.48031E-01
      21    -1     0     0   511   501  0.000000000E+00  0.000000000E+00  4.209404454E+01  4.209404454E+01  0.000000000E+00  0.00000E+00  9.000E+00
      21    -1     0     0   501   502  0.000000000E+00  0.000000000E+00 -8.309795704E+02  8.309795704E+02  0.000000000E+00  0.00000E+00  9.000E+00
      25     1     1     2     0     0  9.484000513E+01 -5.472657138E+01 -4.474211448E+02  4.772843020E+02  1.250000000E+02  0.00000E+00  9.000E+00
      25     1     1     2     0     0 -7.011507944E+01  8.037371801E+01 -2.739314405E+02  3.194362112E+02  1.250000000E+02  0.00000E+00  9.000E+00
      21     1     1     2   511   502 -2.472492569E+01 -2.564714663E+01 -6.753294060E+01  7.635310174E+01  9.536743164E-07  0.00000E+00  9.000E+00
#rwgt            1           1   9.7803548145436667E-002           9       95981           0
</event>
<event>
      5   9999  3.79277E-02  1.07298E+01 -1.00000E+00  1.92286E-01
      21    -1     0     0   502   512  0.000000000E+00  0.000000000E+00  3.842847905E+01  3.842847905E+01  0.000000000E+00  0.00000E+00  9.000E+00
      21    -1     0     0   501   502  0.000000000E+00  0.000000000E+00 -1.978233042E+03  1.978233042E+03  0.000000000E+00  0.00000E+00  9.000E+00
      25     1     1     2     0     0  1.648914029E+02 -1.654836237E+02 -9.479250808E+02  9.842565536E+02  1.250000000E+02  0.00000E+00  9.000E+00
      25     1     1     2     0     0 -1.567465260E+02  1.724685475E+02 -9.844513443E+02  1.019354856E+03  1.250000000E+02  0.00000E+00  9.000E+00
      21     1     1     2   501   512 -8.144876933E+00 -6.984923787E+00 -7.428138277E+00  1.305011183E+01  3.674277069E-07  0.00000E+00  9.000E+00
#rwgt            1           1   3.5152270350587426E-002           9       96087           0
</event>
<event>
      5   9999  3.79277E-02  3.79232E+01 -1.00000E+00  1.46291E-01
      21    -1     0     0   511   501  0.000000000E+00  0.000000000E+00  5.291224381E+01  5.291224381E+01  0.000000000E+00  0.00000E+00  9.000E+00
      21    -1     0     0   501   502  0.000000000E+00  0.000000000E+00 -8.529973142E+02  8.529973142E+02  0.000000000E+00  0.00000E+00  9.000E+00
      25     1     1     2     0     0 -1.910913169E+01  1.118052979E+02 -2.528135965E+02  3.039823977E+02  1.250000000E+02  0.00000E+00  9.000E+00
      25     1     1     2     0     0  2.812412425E+01 -1.486414351E+02 -5.182910333E+02  5.541983741E+02  1.250000000E+02  0.00000E+00  9.000E+00
      21     1     1     2   511   502 -9.014992552E+00  3.683613726E+01 -2.898044055E+01  4.772878622E+01  0.000000000E+00  0.00000E+00  9.000E+00
#rwgt            1           1   4.6177772833566104E-002           9       96361           0
</event>
<event>
      5   9999  3.79277E-02  6.65564E+00 -1.00000E+00  2.18697E-01
      21    -1     0     0   502   512  0.000000000E+00  0.000000000E+00  1.632001670E+02  1.632001670E+02  0.000000000E+00  0.00000E+00  9.000E+00
      21    -1     0     0   501   502  0.000000000E+00  0.000000000E+00 -3.899699439E+02  3.899699439E+02  0.000000000E+00  0.00000E+00  9.000E+00
      25     1     1     2     0     0 -9.056830528E+01 -1.578876310E+02  1.048912293E+01  2.210568787E+02  1.250000000E+02  0.00000E+00  9.000E+00
      25     1     1     2     0     0  9.715551377E+01  1.588395849E+02 -2.355634134E+02  3.252450297E+02  1.250000000E+02  0.00000E+00  9.000E+00
      21     1     1     2   501   512 -6.587208485E+00 -9.519539374E-01 -1.695486384E+00  6.868202531E+00  7.598131170E-08  0.00000E+00  9.000E+00
#rwgt            1           1   4.0359346040612594E-002           9       96462           0
</event>
<event>
      5   9999  3.79277E-02  4.55386E+01 -1.00000E+00  1.41432E-01
      21    -1     0     0   502   501  0.000000000E+00  0.000000000E+00  3.992845369E+02  3.992845369E+02  0.000000000E+00  0.00000E+00  9.000E+00
      21    -1     0     0   511   502  0.000000000E+00  0.000000000E+00 -8.193729373E+02  8.193729373E+02  0.000000000E+00  0.00000E+00  9.000E+00
      25     1     1     2     0     0  4.187586320E+02 -7.570513798E+01 -1.558613799E+02  4.701146982E+02  1.250000000E+02  0.00000E+00  9.000E+00
      25     1     1     2     0     0 -3.834653572E+02  1.044827101E+02  6.017397900E+01  4.209610726E+02  1.250000000E+02  0.00000E+00  9.000E+00
      21     1     1     2   511   501 -3.529327475E+01 -2.877757213E+01 -3.244009995E+02  3.275817033E+02  0.000000000E+00  0.00000E+00  9.000E+00
#rwgt            1           1   2.8202624923027053E-002           9       96782           0
</event>
<event>
      5   9999  3.79277E-02  5.27113E+00 -1.00000E+00  2.34578E-01
      21    -1     0     0   502   501  0.000000000E+00  0.000000000E+00  3.827296943E+02  3.827296943E+02  0.000000000E+00  0.00000E+00  9.000E+00
      21    -1     0     0   512   502  0.000000000E+00  0.000000000E+00 -2.190468408E+02  2.190468408E+02  0.000000000E+00  0.00000E+00  9.000E+00
      25     1     1     2     0     0 -1.224872879E+02  5.992715966E+01  6.344942640E+01  1.955638767E+02  1.250000000E+02  0.00000E+00  9.000E+00
      25     1     1     2     0     0  1.173814504E+02 -5.861749471E+01  2.207366156E+02  2.855942385E+02  1.250000000E+02  0.00000E+00  9.000E+00
      21     1     1     2   512   501  5.105837501E+00 -1.309664948E+00 -1.205031885E+02  1.206184200E+02  1.907348633E-06  0.00000E+00  9.000E+00
#rwgt            1           1   3.6031957296623826E-002           9       96945           0
</event>
<event>
      5   9999  3.79277E-02  3.37996E+01 -1.00000E+00  1.49528E-01
       2    -1     0     0   502     0  0.000000000E+00  0.000000000E+00  8.635889108E+02  8.635889108E+02  0.000000000E+00  0.00000E+00  9.000E+00
      21    -1     0     0   501   502  0.000000000E+00  0.000000000E+00 -1.043393630E+02  1.043393630E+02  0.000000000E+00  0.00000E+00  9.000E+00
      25     1     1     2     0     0  7.587635616E+01  1.013766553E+02  7.044071832E+01  1.913670360E+02  1.250000000E+02  0.00000E+00  9.000E+00
      25     1     1     2     0     0 -1.049351828E+02 -8.411397531E+01  1.510891531E+02  2.377803306E+02  1.250000000E+02  0.00000E+00  9.000E+00
       2     1     1     2   501     0  2.905882662E+01 -1.726268002E+01  5.377196765E+02  5.387809072E+02  7.629394531E-06  0.00000E+00  9.000E+00
#rwgt            1           1   3.6282021919274821E-002           9       97263           0
</event>
<event>
      5   9999 -3.79277E-02  2.96588E+01 -1.00000E+00  1.53386E-01
      -2    -1     0     0     0   501  0.000000000E+00  0.000000000E+00  7.088817570E+02  7.088817570E+02  0.000000000E+00  0.00000E+00  9.000E+00
      21    -1     0     0   501   502  0.000000000E+00  0.000000000E+00 -4.874538145E+02  4.874538145E+02  0.000000000E+00  0.00000E+00  9.000E+00
      25     1     1     2     0     0 -1.868710802E+02 -1.308375812E+01  2.078905883E+01  2.261618233E+02  1.250000000E+02  0.00000E+00  9.000E+00
      25     1     1     2     0     0  1.755931644E+02  4.051466171E+01 -3.530860459E+02  4.156550890E+02  1.250000000E+02  0.00000E+00  9.000E+00
      -2     1     1     2     0   502  1.127791584E+01 -2.743090359E+01  5.537249296E+02  5.545186593E+02  0.000000000E+00  0.00000E+00  9.000E+00
#rwgt            1           1  -8.6145943782331313E-002           9       97400           0
</event>
<event>
      5   9999  3.79277E-02  5.60523E+01 -1.00000E+00  1.36302E-01
      21    -1     0     0   502   501  0.000000000E+00  0.000000000E+00  3.331100300E+02  3.331100300E+02  0.000000000E+00  0.00000E+00  9.000E+00
      21    -1     0     0   511   502  0.000000000E+00  0.000000000E+00 -2.693706171E+02  2.693706171E+02  0.000000000E+00  0.00000E+00  9.000E+00
      25     1     1     2     0     0  1.571586598E+02  2.071492159E+02  8.058212061E+01  2.995465242E+02  1.250000000E+02  0.00000E+00  9.000E+00
      25     1     1     2     0     0 -1.100490256E+02 -1.767758514E+02  4.620036633E+00  2.429132240E+02  1.250000000E+02  0.00000E+00  9.000E+00
      21     1     1     2   511   501 -4.710963422E+01 -3.037336449E+01 -2.146274429E+01  6.002089885E+01  8.920806376E-07  0.00000E+00  9.000E+00
#rwgt            1           1   3.9059988298020702E-002           9       97678           0
</event>
<event>
      5   9999  3.79277E-02  2.97368E+01 -1.00000E+00  1.53306E-01
      21    -1     0     0   502   512  0.000000000E+00  0.000000000E+00  2.458673278E+03  2.458673278E+03  0.000000000E+00  0.00000E+00  9.000E+00
      21    -1     0     0   501   502  0.000000000E+00  0.000000000E+00 -2.206441168E+01  2.206441168E+01  0.000000000E+00  0.00000E+00  9.000E+00
      25     1     1     2     0     0  1.396829996E+02  8.807847011E+01  1.156922505E+03  1.175314358E+03  1.250000000E+02  0.00000E+00  9.000E+00
      25     1     1     2     0     0 -1.694001009E+02 -8.699613195E+01  1.106799605E+03  1.129997826E+03  1.250000000E+02  0.00000E+00  9.000E+00
      21     1     1     2   501   512  2.971710139E+01 -1.082338160E+00  1.728867559E+02  1.754255054E+02  0.000000000E+00  0.00000E+00  9.000E+00
#rwgt            1           1   6.2835224182041322E-002           9       97879           0
</event>
<event>
      5   9999  3.79277E-02  5.69329E+01 -1.00000E+00  1.35933E-01
      21    -1     0     0   511   501  0.000000000E+00  0.000000000E+00  5.106180750E+02  5.106180750E+02  0.000000000E+00  0.00000E+00  9.000E+00
      21    -1     0     0   501   502  0.000000000E+00  0.000000000E+00 -2.373156369E+02  2.373156369E+02  0.000000000E+00  0.00000E+00  9.000E+00
      25     1     1     2     0     0  1.204324872E+00 -2.619576882E+02  7.064268294E+01  2.987284209E+02  1.250000000E+02  0.00000E+00  9.000E+00
      25     1     1     2     0     0  2.641442809E+01  2.121725132E+02  9.522983805E+00  2.478519409E+02  1.250000000E+02  0.00000E+00  9.000E+00
      21     1     1     2   511   502 -2.761875297E+01  4.978517494E+01  1.931367714E+02  2.013533501E+02  0.000000000E+00  0.00000E+00  9.000E+00
#rwgt            1           1   3.4721582550172513E-002           9       98162           0
</event>
<event>
      5   9999  3.79277E-02  1.09642E+02 -1.00000E+00  1.22056E-01
      21    -1     0     0   502   512  0.000000000E+00  0.000000000E+00  7.389761233E+02  7.389761233E+02  0.000000000E+00  0.00000E+00  9.000E+00
      21    -1     0     0   501   502  0.000000000E+00  0.000000000E+00 -5.982100347E+02  5.982100347E+02  0.000000000E+00  0.00000E+00  9.000E+00
      25     1     1     2     0     0 -8.060042679E-01  1.176654662E+02  1.349190312E+02  2.183436662E+02  1.250000000E+02  0.00000E+00  9.000E+00
      25     1     1     2     0     0  1.063409488E+02 -8.793851560E+01 -5.352707046E+02  5.667286010E+02  1.250000000E+02  0.00000E+00  9.000E+00
      21     1     1     2   501   512 -1.055349445E+02 -2.972695057E+01  5.411177621E+02  5.521138909E+02  0.000000000E+00  0.00000E+00  9.000E+00
#rwgt            2          11   2.5176303647988993E-003           9       98257           0
</event>
<event>
      5   9999 -3.79277E-02  3.19736E+01 -1.00000E+00  1.51142E-01
       2    -1     0     0   502     0  0.000000000E+00  0.000000000E+00  4.464021222E+03  4.464021222E+03  0.000000000E+00  0.00000E+00  9.000E+00
      21    -1     0     0   501   502  0.000000000E+00  0.000000000E+00 -2.583903575E+02  2.583903575E+02  0.000000000E+00  0.00000E+00  9.000E+00
      25     1     1     2     0     0 -4.042930748E+02  3.670821066E+01  2.627848628E+02  4.994809978E+02  1.250000000E+02  0.00000E+00  9.000E+00
      25     1     1     2     0     0  4.045012435E+02 -4.735278697E+00  1.802068998E+02  4.601556319E+02  1.250000000E+02  0.00000E+00  9.000E+00
       2     1     1     2   501     0 -2.081687532E-01 -3.197293197E+01  3.762639102E+03  3.762774950E+03  4.315837288E-05  0.00000E+00  9.000E+00
#rwgt            1           1  -8.4834474562176784E-002           9       98337           0
</event>
<event>
      5   9999  3.79277E-02  5.14869E+01 -1.00000E+00  1.38353E-01
      21    -1     0     0   502   501  0.000000000E+00  0.000000000E+00  5.680732815E+02  5.680732815E+02  0.000000000E+00  0.00000E+00  9.000E+00
      21    -1     0     0   511   502  0.000000000E+00  0.000000000E+00 -1.745248308E+02  1.745248308E+02  0.000000000E+00  0.00000E+00  9.000E+00
      25     1     1     2     0     0 -4.444407454E+01 -4.733147709E+01  5.434187207E+01  1.509754402E+02  1.250000000E+02  0.00000E+00  9.000E+00
      25     1     1     2     0     0  9.583680138E+01  5.044397543E+01  4.445776314E+02  4.743453989E+02  1.250000000E+02  0.00000E+00  9.000E+00
      21     1     1     2   511   501 -5.139272685E+01 -3.112498334E+00 -1.053710528E+02  1.172772731E+02  1.907348633E-06  0.00000E+00  9.000E+00
#rwgt            2          11   1.5014869617696145E-003           9       98571           0
</event>
<event>
      5   9999  3.79277E-02  8.06954E+01 -1.00000E+00  1.28168E-01
      21    -1     0     0   502   501  0.000000000E+00  0.000000000E+00  3.458603498E+02  3.458603498E+02  0.000000000E+00  0.00000E+00  9.000E+00
      21    -1     0     0   501   512  0.000000000E+00  0.000000000E+00 -2.792597440E+02  2.792597440E+02  0.000000000E+00  0.00000E+00  9.000E+00
      25     1     1     2     0     0 -1.656940490E+02 -1.001722313E+02  8.130687269E+01  2.443865818E+02  1.250000000E+02  0.00000E+00  9.000E+00
      25     1     1     2     0     0  1.859176949E+02  2.205213762E+01  9.517247486E+01  2.444063952E+02  1.250000000E+02  0.00000E+00  9.000E+00
      21     1     1     2   502   512 -2.022364589E+01  7.812009372E+01 -1.098787417E+02  1.363271168E+02  2.697398305E-06  0.00000E+00  9.000E+00
#rwgt            1           1   4.2564350578552852E-002           9       98621           0
</event>
<event>
      5   9999  3.79277E-02  1.61105E+02 -1.00000E+00  1.15177E-01
      21    -1     0     0   502   501  0.000000000E+00  0.000000000E+00  1.340619544E+02  1.340619544E+02  0.000000000E+00  0.00000E+00  9.000E+00
      21    -1     0     0   501   511  0.000000000E+00  0.000000000E+00 -6.746664560E+02  6.746664560E+02  0.000000000E+00  0.00000E+00  9.000E+00
      25     1     1     2     0     0 -1.493662287E+02  1.887385045E+02 -1.596401747E+02  3.147101503E+02  1.250000000E+02  0.00000E+00  9.000E+00
      25     1     1     2     0     0  6.419534645E+01 -5.198800630E+01 -2.208790593E+02  2.669013940E+02  1.250000000E+02  0.00000E+00  9.000E+00
      21     1     1     2   502   511  8.517088226E+01 -1.367504982E+02 -1.600852676E+02  2.271168661E+02  1.907348633E-06  0.00000E+00  9.000E+00
#rwgt            1           1   4.3536268789495500E-002           9       98816           0
</event>
<event>
      5   9999  3.79277E-02  9.93517E+01 -1.00000E+00  1.23955E-01
       1    -1     0     0   502     0  0.000000000E+00  0.000000000E+00  1.842413907E+03  1.842413907E+03  0.000000000E+00  0.00000E+00  9.000E+00
      21    -1     0     0   501   502  0.000000000E+00  0.000000000E+00 -9.323101682E+01  9.323101682E+01  0.000000000E+00  0.00000E+00  9.000E+00
      25     1     1     2     0     0 -2.301450759E+02  7.197209311E+00  5.332504196E+02  5.941376657E+02  1.250000000E+02  0.00000E+00  9.000E+00
      25     1     1     2     0     0  1.424012598E+02  3.940522886E+01  9.394837730E+01  2.151329553E+02  1.250000000E+02  0.00000E+00  9.000E+00
       1     1     1     2   501     0  8.774381616E+01 -4.660243817E+01  1.121984093E+03  1.126374302E+03  1.525878906E-05  0.00000E+00  9.000E+00
#rwgt            1           1   3.4195559064697720E-002           9       98899           0
</event>
<event>
      5   9999  3.79277E-02  2.55195E+01 -1.00000E+00  1.58085E-01
      21    -1     0     0   511   501  0.000000000E+00  0.000000000E+00  1.888723683E+03  1.888723683E+03  0.000000000E+00  0.00000E+00  9.000E+00
      21    -1     0     0   501   502  0.000000000E+00  0.000000000E+00 -6.874524003E+01  6.874524003E+01  0.000000000E+00  0.00000E+00  9.000E+00
      25     1     1     2     0     0 -7.153172624E+00  1.441171557E+02  1.253734211E+02  2.283953090E+02  1.250000000E+02  0.00000E+00  9.000E+00
      25     1     1     2     0     0  6.454314158E+00 -1.696270709E+02  6.333530687E+02  6.675148770E+02  1.250000000E+02  0.00000E+00  9.000E+00
      21     1     1     2   511   502  6.988584667E-01  2.550991526E+01  1.061251953E+03  1.061558737E+03  2.157918644E-05  0.00000E+00  9.000E+00
#rwgt            1           1   2.8459934440480811E-002           9       98987           0
</event>
<event>
      5   9999  3.79277E-02  2.51478E+01 -1.00000E+00  1.58559E-01
      21    -1     0     0   502   501  0.000000000E+00  0.000000000E+00  3.011886330E+02  3.011886330E+02  0.000000000E+00  0.00000E+00  9.000E+00
      21    -1     0     0   501   512  0.000000000E+00  0.000000000E+00 -2.726837176E+02  2.726837176E+02  0.000000000E+00  0.00000E+00  9.000E+00
      25     1     1     2     0     0  7.273383351E+01 -1.408493627E+02 -6.270198729E+01  2.113889608E+02  1.250000000E+02  0.00000E+00  9.000E+00
      25     1     1     2     0     0 -7.100661760E+01  1.157609229E+02  1.874146083E+02  2.630432786E+02  1.250000000E+02  0.00000E+00  9.000E+00
      21     1     1     2   502   512 -1.727215916E+00  2.508843987E+01 -9.620770568E+01  9.944011123E+01  1.907348633E-06  0.00000E+00  9.000E+00
#rwgt            1           1  0.12262274382216456                9       99104           0
</event>
<event>
      5   9999  3.79277E-02  1.44283E+01 -1.00000E+00  1.78988E-01
      21    -1     0     0   502   501  0.000000000E+00  0.000000000E+00  2.670030102E+02  2.670030102E+02  0.000000000E+00  0.00000E+00  9.000E+00
      21    -1     0     0   501   511  0.000000000E+00  0.000000000E+00 -1.569655347E+02  1.569655347E+02  0.000000000E+00  0.00000E+00  9.000E+00
      25     1     1     2     0     0  3.639807158E+01 -3.798212782E+01 -8.492071237E+01  1.600124653E+02  1.250000000E+02  0.00000E+00  9.000E+00
      25     1     1     2     0     0 -2.638558014E+01  4.837090833E+01  2.050228605E+02  2.463641958E+02  1.250000000E+02  0.00000E+00  9.000E+00
      21     1     1     2   502   511 -1.001249144E+01 -1.038878051E+01 -1.006467266E+01  1.759188395E+01  0.000000000E+00  0.00000E+00  9.000E+00
#rwgt            1           1   3.5137954747984658E-003           9       99266           0
</event>
<event>
      5   9999  3.79277E-02  5.15243E+01 -1.00000E+00  1.38335E-01
      21    -1     0     0   502   501  0.000000000E+00  0.000000000E+00  7.900351760E+02  7.900351760E+02  0.000000000E+00  0.00000E+00  9.000E+00
      21    -1     0     0   512   502  0.000000000E+00  0.000000000E+00 -2.342948862E+02  2.342948862E+02  0.000000000E+00  0.00000E+00  9.000E+00
      25     1     1     2     0     0 -1.324913513E+02  2.415814967E+02  3.856649840E+02  4.901816578E+02  1.250000000E+02  0.00000E+00  9.000E+00
      25     1     1     2     0     0  8.548474313E+01 -2.204832509E+02  2.954839993E+02  3.985678099E+02  1.250000000E+02  0.00000E+00  9.000E+00
      21     1     1     2   512   501  4.700660821E+01 -2.109824572E+01 -1.254086936E+02  1.355805945E+02  0.000000000E+00  0.00000E+00  9.000E+00
#rwgt            1           1   2.6834896024780692E-002           9       99474           0
</event>
<event>
      5   9999  3.79277E-02  1.58494E+01 -1.00000E+00  1.75159E-01
      21    -1     0     0   511   501  0.000000000E+00  0.000000000E+00  6.122775619E+02  6.122775619E+02  0.000000000E+00  0.00000E+00  9.000E+00
      21    -1     0     0   501   502  0.000000000E+00  0.000000000E+00 -1.063789153E+02  1.063789153E+02  0.000000000E+00  0.00000E+00  9.000E+00
      25     1     1     2     0     0 -1.554296383E+02 -7.879387125E+01  1.486955595E+02  2.609640129E+02  1.250000000E+02  0.00000E+00  9.000E+00
      25     1     1     2     0     0  1.540250307E+02  6.300681790E+01  1.670466779E+02  2.668766790E+02  1.250000000E+02  0.00000E+00  9.000E+00
      21     1     1     2   511   502  1.404607593E+00  1.578705334E+01  1.901564092E+02  1.908157853E+02  2.697398305E-06  0.00000E+00  9.000E+00
#rwgt            1           1   3.5592334623813178E-002           9       99542           0
</event>
<event>
      5   9999  3.79277E-02  2.46366E+01 -1.00000E+00  1.59229E-01
      21    -1     0     0   502   512  0.000000000E+00  0.000000000E+00  6.524095017E+01  6.524095017E+01  0.000000000E+00  0.00000E+00  9.000E+00
      21    -1     0     0   501   502  0.000000000E+00  0.000000000E+00 -6.591438741E+02  6.591438741E+02  0.000000000E+00  0.00000E+00  9.000E+00
      25     1     1     2     0     0  6.558778078E+01 -1.069147358E+02 -2.671284424E+02  3.204920006E+02  1.250000000E+02  0.00000E+00  9.000E+00
      25     1     1     2     0     0 -7.968281409E+01  8.670844501E+01 -3.361938603E+02  3.775169096E+02  1.250000000E+02  0.00000E+00  9.000E+00
      21     1     1     2   501   512  1.409503331E+01  2.020629077E+01  9.419378736E+00  2.637591413E+01  6.307962682E-07  0.00000E+00  9.000E+00
#rwgt            1           1   3.8609159395000134E-002           9       99776           0
</event>
<event>
      5   9999  3.79277E-02  1.08080E+02 -1.00000E+00  1.22329E-01
      21    -1     0     0   502   501  0.000000000E+00  0.000000000E+00  6.872331310E+02  6.872331310E+02  0.000000000E+00  0.00000E+00  9.000E+00
      21    -1     0     0   501   511  0.000000000E+00  0.000000000E+00 -1.717391971E+02  1.717391971E+02  0.000000000E+00  0.00000E+00  9.000E+00
      25     1     1     2     0     0  5.462640553E+01  1.996286314E+02  4.770579524E+02  5.348316788E+02  1.250000000E+02  0.00000E+00  9.000E+00
      25     1     1     2     0     0  2.352425562E+01 -1.249711801E+02  9.511924783E+01  2.020986338E+02  1.250000000E+02  0.00000E+00  9.000E+00
      21     1     1     2   502   511 -7.815066115E+01 -7.465745134E+01 -5.668326639E+01  1.220420156E+02  2.236564522E-06  0.00000E+00  9.000E+00
#rwgt            1           1   7.4130404461058078E-002           9      100005           0
</event>
<event>
      5   9999  3.79277E-02  2.08993E+01 -1.00000E+00  1.64808E-01
      21    -1     0     0   502   512  0.000000000E+00  0.000000000E+00  4.260643507E+02  4.260643507E+02  0.000000000E+00  0.00000E+00  9.000E+00
      21    -1     0     0   501   502  0.000000000E+00  0.000000000E+00 -4.986734389E+02  4.986734389E+02  0.000000000E+00  0.00000E+00  9.000E+00
      25     1     1     2     0     0 -7.549465139E+00 -2.615956664E+02 -2.233468206E+02  3.660574947E+02  1.250000000E+02  0.00000E+00  9.000E+00
      25     1     1     2     0     0  7.821731506E-01  2.813689972E+02 -8.706571212E+01  3.199602516E+02  1.250000000E+02  0.00000E+00  9.000E+00
      21     1     1     2   501   512  6.767291988E+00 -1.977333079E+01  2.378034446E+02  2.387200434E+02  0.000000000E+00  0.00000E+00  9.000E+00
#rwgt            1           1   3.0805785143952515E-002           9      100073           0
</event>
<event>
      5   9999  3.79277E-02  1.68076E+01 -1.00000E+00  1.72852E-01
      21    -1     0     0   502   511  0.000000000E+00  0.000000000E+00  1.602798024E+03  1.602798024E+03  0.000000000E+00  0.00000E+00  9.000E+00
      21    -1     0     0   501   502  0.000000000E+00  0.000000000E+00 -3.247555400E+01  3.247555400E+01  0.000000000E+00  0.00000E+00  9.000E+00
      25     1     1     2     0     0 -9.462836677E+01  4.877658220E+01  4.071967879E+02  4.390534214E+02  1.250000000E+02  0.00000E+00  9.000E+00
      25     1     1     2     0     0  9.316726972E+01 -6.552052529E+01  4.181039513E+02  4.510088619E+02  1.250000000E+02  0.00000E+00  9.000E+00
      21     1     1     2   501   511  1.461097047E+00  1.674394309E+01  7.450217310E+02  7.452112950E+02  1.078959322E-05  0.00000E+00  9.000E+00
#rwgt            1           1   4.3894822587276949E-002           9      100202           0
</event>
<event>
      5   9999  3.79277E-02  5.04311E+01 -1.00000E+00  1.38863E-01
      21    -1     0     0   502   512  0.000000000E+00  0.000000000E+00  4.400200464E+02  4.400200464E+02  0.000000000E+00  0.00000E+00  9.000E+00
      21    -1     0     0   501   502  0.000000000E+00  0.000000000E+00 -1.970812107E+02  1.970812107E+02  0.000000000E+00  0.00000E+00  9.000E+00
      25     1     1     2     0     0  4.065322360E+01 -1.370785668E+02  9.105615351E+01  2.106168112E+02  1.250000000E+02  0.00000E+00  9.000E+00
      25     1     1     2     0     0  9.634792819E+00  1.408745245E+02 -6.832288557E+01  2.005778591E+02  1.250000000E+02  0.00000E+00  9.000E+00
      21     1     1     2   501   512 -5.028801642E+01 -3.795957622E+00  2.202055677E+02  2.259065868E+02  2.697398305E-06  0.00000E+00  9.000E+00
#rwgt            1           1   3.8464885554608128E-002           9      100446           0
</event>
<event>
      5   9999 -3.79277E-02  9.49472E+01 -1.00000E+00  1.24849E-01
      21    -1     0     0   502   501  0.000000000E+00  0.000000000E+00  1.491230381E+03  1.491230381E+03  0.000000000E+00  0.00000E+00  9.000E+00
      21    -1     0     0   511   502  0.000000000E+00  0.000000000E+00 -6.897082053E+01  6.897082053E+01  0.000000000E+00  0.00000E+00  9.000E+00
      25     1     1     2     0     0  1.267279214E+02 -5.283084209E-01  7.866307784E+02  8.065192042E+02  1.250000000E+02  0.00000E+00  9.000E+00
      25     1     1     2     0     0 -2.203203996E+02 -1.545354523E+01  6.014002036E+02  6.527534722E+02  1.250000000E+02  0.00000E+00  9.000E+00
      21     1     1     2   511   501  9.359247820E+01  1.598185365E+01  3.422857851E+01  1.009285252E+02  2.132480600E-06  0.00000E+00  9.000E+00
#rwgt            1           1  -7.6423898391213538E-002           9      100686           0
</event>
<event>
      5   9999  3.79277E-02  3.90740E+01 -1.00000E+00  1.45474E-01
      21    -1     0     0   512   501  0.000000000E+00  0.000000000E+00  2.173427914E+02  2.173427914E+02  0.000000000E+00  0.00000E+00  9.000E+00
      21    -1     0     0   501   502  0.000000000E+00  0.000000000E+00 -6.476867929E+02  6.476867929E+02  0.000000000E+00  0.00000E+00  9.000E+00
      25     1     1     2     0     0  1.544377809E+02  1.059628413E+02 -5.089484385E+02  5.565363106E+02  1.250000000E+02  0.00000E+00  9.000E+00
      25     1     1     2     0     0 -1.804876753E+02 -1.350863286E+02  7.834006931E+01  2.694184173E+02  1.250000000E+02  0.00000E+00  9.000E+00
      21     1     1     2   512   502  2.604989446E+01  2.912348724E+01  2.643677098E-01  3.907485638E+01  4.762547259E-07  0.00000E+00  9.000E+00
#rwgt            1           1   3.0876314872320829E-002           9      100919           0
</event>
<event>
      5   9999  3.79277E-02  2.89641E+01 -1.00000E+00  1.54107E-01
      21    -1     0     0   502   511  0.000000000E+00  0.000000000E+00  5.317582057E+02  5.317582057E+02  0.000000000E+00  0.00000E+00  9.000E+00
      21    -1     0     0   501   502  0.000000000E+00  0.000000000E+00 -1.049487939E+02  1.049487939E+02  0.000000000E+00  0.00000E+00  9.000E+00
      25     1     1     2     0     0 -1.386630924E+02  1.028624004E+02  1.905694389E+02  2.859192852E+02  1.250000000E+02  0.00000E+00  9.000E+00
      25     1     1     2     0     0  1.668778290E+02 -9.631662640E+01  2.013066479E+02  3.054086915E+02  1.250000000E+02  0.00000E+00  9.000E+00
      21     1     1     2   501   511 -2.821473667E+01 -6.545773990E+00  3.493332496E+01  4.537902286E+01  8.259061849E-07  0.00000E+00  9.000E+00
#rwgt            1           1  0.16022469293775474                9      101132           0
</event>
<event>
      5   9999  3.79277E-02  3.22027E+01 -1.00000E+00  1.50933E-01
      21    -1     0     0   502   501  0.000000000E+00  0.000000000E+00  3.864469959E+02  3.864469959E+02  0.000000000E+00  0.00000E+00  9.000E+00
      21    -1     0     0   512   502  0.000000000E+00  0.000000000E+00 -4.424336218E+02  4.424336218E+02  0.000000000E+00  0.00000E+00  9.000E+00
      25     1     1     2     0     0  3.009263455E+02 -3.496209884E+01  1.371026255E+02  3.552480031E+02  1.250000000E+02  0.00000E+00  9.000E+00
      25     1     1     2     0     0 -2.818212388E+02  6.088517960E+01 -3.952625528E+01  3.167294438E+02  1.250000000E+02  0.00000E+00  9.000E+00
      21     1     1     2   512   501 -1.910510676E+01 -2.592308075E+01 -1.535629961E+02  1.569031708E+02  1.907348633E-06  0.00000E+00  9.000E+00
#rwgt            1           1   3.5462408521616300E-002           9      101355           0
</event>
<event>
      5   9999  3.79277E-02  2.95632E+01 -1.00000E+00  1.53484E-01
      21    -1     0     0   511   501  0.000000000E+00  0.000000000E+00  3.542273424E+02  3.542273424E+02  0.000000000E+00  0.00000E+00  9.000E+00
      21    -1     0     0   501   502  0.000000000E+00  0.000000000E+00 -1.124312421E+02  1.124312421E+02  0.000000000E+00  0.00000E+00  9.000E+00
      25     1     1     2     0     0 -1.076294966E+02 -1.964583139E+01  7.920586645E+01  1.840343351E+02  1.250000000E+02  0.00000E+00  9.000E+00
      25     1     1     2     0     0  1.369854795E+02  1.615151573E+01  9.529586611E+01  2.091224406E+02  1.250000000E+02  0.00000E+00  9.000E+00
      21     1     1     2   511   502 -2.935598297E+01  3.494315657E+00  6.729436766E+01  7.350180880E+01  9.536743164E-07  0.00000E+00  9.000E+00
#rwgt            1           1   3.0100789569990405E-002           9      101494           0
</event>
<event>
      5   9999  3.79277E-02  3.69887E+01 -1.00000E+00  1.46980E-01
      21    -1     0     0   502   501  0.000000000E+00  0.000000000E+00  1.121608398E+02  1.121608398E+02  0.000000000E+00  0.00000E+00  9.000E+00
       1    -1     0     0   501     0  0.000000000E+00  0.000000000E+00 -1.507162211E+03  1.507162211E+03  0.000000000E+00  0.00000E+00  9.000E+00
      25     1     1     2     0     0  1.351600755E+02  5.486918157E+01 -5.154163441E+01  1.988979969E+02  1.250000000E+02  0.00000E+00  9.000E+00
      25     1     1     2     0     0 -1.522180995E+02 -8.768975938E+01 -2.663323564E+02  3.426627610E+02  1.250000000E+02  0.00000E+00  9.000E+00
       1     1     1     2   502     0  1.705802392E+01  3.282057781E+01 -1.077127381E+03  1.077762293E+03  0.000000000E+00  0.00000E+00  9.000E+00
#rwgt            1           1   4.3261645642225802E-002           9      101694           0
</event>
<event>
      5   9999 -3.79277E-02  7.36132E+01 -1.00000E+00  1.30123E-01
      21    -1     0     0   502   501  0.000000000E+00  0.000000000E+00  1.239978104E+03  1.239978104E+03  0.000000000E+00  0.00000E+00  9.000E+00
      21    -1     0     0   501   511  0.000000000E+00  0.000000000E+00 -1.587198432E+02  1.587198432E+02  0.000000000E+00  0.00000E+00  9.000E+00
      25     1     1     2     0     0 -9.223966381E+00  1.411006900E+02  7.886173936E+02  8.108864778E+02  1.250000000E+02  0.00000E+00  9.000E+00
      25     1     1     2     0     0 -5.876969143E+01 -1.128913763E+02  4.112167003E+02  4.482438109E+02  1.250000000E+02  0.00000E+00  9.000E+00
      21     1     1     2   502   511  6.799365782E+01 -2.820931375E+01 -1.185758335E+02  1.395676581E+02  2.336015456E-06  0.00000E+00  9.000E+00
#rwgt            1           1  -8.3566565404492310E-002           9      101823           0
</event>
<event>
      5   9999  3.79277E-02  2.30086E+02 -1.00000E+00  1.09476E-01
      21    -1     0     0   512   501  0.000000000E+00  0.000000000E+00  1.009538393E+03  1.009538393E+03  0.000000000E+00  0.00000E+00  9.000E+00
      21    -1     0     0   501   502  0.000000000E+00  0.000000000E+00 -1.580431205E+02  1.580431205E+02  0.000000000E+00  0.00000E+00  9.000E+00
      25     1     1     2     0     0  1.987552899E+02 -2.925095893E+02  3.892123849E+02  5.405338154E+02  1.250000000E+02  0.00000E+00  9.000E+00
      25     1     1     2     0     0 -8.723441596E+01  9.125713829E+01  1.191527782E+02  2.139160891E+02  1.250000000E+02  0.00000E+00  9.000E+00
      21     1     1     2   512   502 -1.115208739E+02  2.012524510E+02  3.431301095E+02  4.131316091E+02  8.529922400E-06  0.00000E+00  9.000E+00
#rwgt            1           1   2.9390507682839625E-002           9      101904           0
</event>
<event>
      5   9999  3.79277E-02  5.48318E+01 -1.00000E+00  1.36828E-01
      21    -1     0     0   502   501  0.000000000E+00  0.000000000E+00  1.747167491E+01  1.747167491E+01  0.000000000E+00  0.00000E+00  9.000E+00
      21    -1     0     0   511   502  0.000000000E+00  0.000000000E+00 -2.166647713E+03  2.166647713E+03  0.000000000E+00  0.00000E+00  9.000E+00
      25     1     1     2     0     0 -1.086255602E+02  2.317825529E+01 -6.244964588E+02  6.464963812E+02  1.250000000E+02  0.00000E+00  9.000E+00
      25     1     1     2     0     0  6.530853367E+01  1.043954021E+01 -9.726587199E+02  9.828856362E+02  1.250000000E+02  0.00000E+00  9.000E+00
      21     1     1     2   511   501  4.331702656E+01 -3.361779550E+01 -5.520208591E+02  5.547373702E+02  7.629394531E-06  0.00000E+00  9.000E+00
#rwgt            1           1   4.5534529859092711E-002           9      102099           0
</event>
<event>
      5   9999  3.79277E-02  8.28070E+01 -1.00000E+00  1.27629E-01
      21    -1     0     0   502   501  0.000000000E+00  0.000000000E+00  8.407013624E+02  8.407013624E+02  0.000000000E+00  0.00000E+00  9.000E+00
      21    -1     0     0   512   502  0.000000000E+00  0.000000000E+00 -2.322830525E+02  2.322830525E+02  0.000000000E+00  0.00000E+00  9.000E+00
      25     1     1     2     0     0  1.114835127E+02 -5.606195956E+01  3.159646069E+02  3.619808692E+02  1.250000000E+02  0.00000E+00  9.000E+00
      25     1     1     2     0     0 -7.220084331E+01  1.289582787E+02  4.737078260E+02  5.117297176E+02  1.250000000E+02  0.00000E+00  9.000E+00
      21     1     1     2   512   501 -3.928266936E+01 -7.289631917E+01 -1.812541230E+02  1.992738281E+02  3.814697266E-06  0.00000E+00  9.000E+00
#rwgt            1           1   4.4043452806702368E-002           9      102283           0
</event>
<event>
      5   9999  3.79277E-02  1.84091E+01 -1.00000E+00  1.69395E-01
      21    -1     0     0   502   501  0.000000000E+00  0.000000000E+00  4.631869511E+02  4.631869511E+02  0.000000000E+00  0.00000E+00  9.000E+00
      21    -1     0     0   501   511  0.000000000E+00  0.000000000E+00 -7.843882654E+01  7.843882654E+01  0.000000000E+00  0.00000E+00  9.000E+00
      25     1     1     2     0     0 -3.842028001E+01 -5.386359065E+01  3.346550516E+02  3.633130989E+02  1.250000000E+02  0.00000E+00  9.000E+00
      25     1     1     2     0     0  5.630198513E+01  5.823839124E+01  5.576707630E+01  1.590490193E+02  1.250000000E+02  0.00000E+00  9.000E+00
      21     1     1     2   502   511 -1.788170512E+01 -4.374800592E+00 -5.674003342E+00  1.926365937E+01  1.884864366E-07  0.00000E+00  9.000E+00
#rwgt            1           1   5.2260496693681699E-002           9      102389           0
</event>
<event>
      5   9999  3.79277E-02  1.20864E+02 -1.00000E+00  1.20236E-01
      21    -1     0     0   502   501  0.000000000E+00  0.000000000E+00  1.130249378E+02  1.130249378E+02  0.000000000E+00  0.00000E+00  9.000E+00
      21    -1     0     0   512   502  0.000000000E+00  0.000000000E+00 -1.002056627E+03  1.002056627E+03  0.000000000E+00  0.00000E+00  9.000E+00
      25     1     1     2     0     0 -2.267436951E+02  3.940695974E+00 -4.390831871E+02  5.097521726E+02  1.250000000E+02  0.00000E+00  9.000E+00
      25     1     1     2     0     0  2.141825136E+02  1.162689603E+02 -2.454373805E+02  3.677732018E+02  1.250000000E+02  0.00000E+00  9.000E+00
      21     1     1     2   512   501  1.256118156E+01 -1.202096563E+02 -2.045111219E+02  2.375561907E+02  4.672030912E-06  0.00000E+00  9.000E+00
#rwgt            1           1   3.5473298978218125E-002           9      102547           0
</event>
<event>
      5   9999  3.79277E-02  4.73381E+01 -1.00000E+00  1.40445E-01
      21    -1     0     0   502   501  0.000000000E+00  0.000000000E+00  6.548144792E+02  6.548144792E+02  0.000000000E+00  0.00000E+00  9.000E+00
      21    -1     0     0   501   511  0.000000000E+00  0.000000000E+00 -3.575783695E+02  3.575783695E+02  0.000000000E+00  0.00000E+00  9.000E+00
      25     1     1     2     0     0 -9.598771596E+01  3.439824768E+02  9.394020981E+01  3.898555489E+02  1.250000000E+02  0.00000E+00  9.000E+00
      25     1     1     2     0     0  7.837988332E+01 -3.000408776E+02  3.406099942E+02  4.772924706E+02  1.250000000E+02  0.00000E+00  9.000E+00
      21     1     1     2   502   511  1.760783264E+01 -4.394159922E+01 -1.373140943E+02  1.452448292E+02  0.000000000E+00  0.00000E+00  9.000E+00
#rwgt            1           1   2.8649181862902103E-002           9      102707           0
</event>
<event>
      5   9999  3.79277E-02  8.60457E+01 -1.00000E+00  1.26837E-01
      21    -1     0     0   502   501  0.000000000E+00  0.000000000E+00  8.344793601E+02  8.344793601E+02  0.000000000E+00  0.00000E+00  9.000E+00
      21    -1     0     0   512   502  0.000000000E+00  0.000000000E+00 -1.404591202E+02  1.404591202E+02  0.000000000E+00  0.00000E+00  9.000E+00
      25     1     1     2     0     0  1.267711891E+02 -2.016074025E+02  4.783408853E+02  5.487727050E+02  1.250000000E+02  0.00000E+00  9.000E+00
      25     1     1     2     0     0 -4.098766480E+01  1.948954424E+02  2.407661374E+02  3.365375983E+02  1.250000000E+02  0.00000E+00  9.000E+00
      21     1     1     2   512   501 -8.578352428E+01  6.711960086E+00 -2.508678294E+01  8.962817707E+01  4.768371582E-07  0.00000E+00  9.000E+00
#rwgt            2          11   2.1364877843858339E-003           9      102882           0
</event>
<event>
      5   9999  3.79277E-02  7.93613E+01 -1.00000E+00  1.28518E-01
      -1    -1     0     0     0   501  0.000000000E+00  0.000000000E+00  4.337028476E+02  4.337028476E+02  0.000000000E+00  0.00000E+00  9.000E+00
      21    -1     0     0   501   502  0.000000000E+00  0.000000000E+00 -3.796291909E+02  3.796291909E+02  0.000000000E+00  0.00000E+00  9.000E+00
      25     1     1     2     0     0  6.715075676E+01 -8.620818520E+01 -1.832771323E+02  2.472985696E+02  1.250000000E+02  0.00000E+00  9.000E+00
      25     1     1     2     0     0  5.985077578E+00  1.170200356E+02 -1.140254423E+02  2.058064901E+02  1.250000000E+02  0.00000E+00  9.000E+00
      -1     1     1     2     0   502 -7.313583433E+01 -3.081185043E+01  3.513762312E+02  3.602269788E+02  5.394796609E-06  0.00000E+00  9.000E+00
#rwgt            1           1   5.1912474065849049E-002           9      103067           0
</event>
<event>
      5   9999  3.79277E-02  1.10318E+01 -1.00000E+00  1.90953E-01
      21    -1     0     0   502   511  0.000000000E+00  0.000000000E+00  2.479115703E+02  2.479115703E+02  0.000000000E+00  0.00000E+00  9.000E+00
      21    -1     0     0   501   502  0.000000000E+00  0.000000000E+00 -1.219453182E+03  1.219453182E+03  0.000000000E+00  0.00000E+00  9.000E+00
      25     1     1     2     0     0 -5.715255864E+01 -9.015795726E+01 -1.798172260E+02  2.436269833E+02  1.250000000E+02  0.00000E+00  9.000E+00
      25     1     1     2     0     0  4.618142342E+01  9.131324561E+01 -1.001111031E+03  1.014060713E+03  1.250000000E+02  0.00000E+00  9.000E+00
      21     1     1     2   501   511  1.097113522E+01 -1.155288348E+00  2.093866456E+02  2.096770561E+02  0.000000000E+00  0.00000E+00  9.000E+00
#rwgt            1           1   3.0057570326978325E-002           9      103228           0
</event>
<event>
      5   9999  3.79277E-02  1.32485E+01 -1.00000E+00  1.82619E-01
      21    -1     0     0   502   501  0.000000000E+00  0.000000000E+00  1.135922460E+02  1.135922460E+02  0.000000000E+00  0.00000E+00  9.000E+00
      21    -1     0     0   512   502  0.000000000E+00  0.000000000E+00 -7.054427317E+02  7.054427317E+02  0.000000000E+00  0.00000E+00  9.000E+00
      25     1     1     2     0     0  1.106315429E+02  1.220388247E+02 -6.526120680E+01  2.168336647E+02  1.250000000E+02  0.00000E+00  9.000E+00
      25     1     1     2     0     0 -1.194052158E+02 -1.319657664E+02 -2.765920375E+02  3.518532709E+02  1.250000000E+02  0.00000E+00  9.000E+00
      21     1     1     2   512   501  8.773672835E+00  9.926941611E+00 -2.499972414E+02  2.503480421E+02  3.814697266E-06  0.00000E+00  9.000E+00
#rwgt            1           1   4.4977733433372157E-002           9      103548           0
</event>
<event>
      5   9999  3.79277E-02  5.38347E+01 -1.00000E+00  1.37269E-01
      21    -1     0     0   502   501  0.000000000E+00  0.000000000E+00  6.660781031E+01  6.660781031E+01  0.000000000E+00  0.00000E+00  9.000E+00
      21    -1     0     0   501   511  0.000000000E+00  0.000000000E+00 -1.535062030E+03  1.535062030E+03  0.000000000E+00  0.00000E+00  9.000E+00
      25     1     1     2     0     0 -6.919527732E+01  8.869476376E+01 -4.433535955E+02  4.741752399E+02  1.250000000E+02  0.00000E+00  9.000E+00
      25     1     1     2     0     0  1.547431962E+01 -9.219315271E+01 -7.032180904E+01  1.711992664E+02  1.250000000E+02  0.00000E+00  9.000E+00
      21     1     1     2   502   511  5.372095770E+01  3.498388955E+00 -9.547788147E+02  9.562953336E+02  1.525878906E-05  0.00000E+00  9.000E+00
#rwgt            1           1   4.5806568443402140E-002           9      103824           0
</event>
<event>
      5   9999  3.79277E-02  1.49666E+02 -1.00000E+00  1.16432E-01
      21    -1     0     0   512   501  0.000000000E+00  0.000000000E+00  4.598770332E+02  4.598770332E+02  0.000000000E+00  0.00000E+00  9.000E+00
      21    -1     0     0   501   502  0.000000000E+00  0.000000000E+00 -3.465301680E+02  3.465301680E+02  0.000000000E+00  0.00000E+00  9.000E+00
      25     1     1     2     0     0  1.018085098E+01  1.874667988E+02 -2.528366048E+02  3.388197148E+02  1.250000000E+02  0.00000E+00  9.000E+00
      25     1     1     2     0     0  1.427549715E+01 -3.981274522E+01  1.142333865E+02  1.745368474E+02  1.250000000E+02  0.00000E+00  9.000E+00
      21     1     1     2   512   502 -2.445634813E+01 -1.476540536E+02  2.519500835E+02  2.930506391E+02  4.672030912E-06  0.00000E+00  9.000E+00
#rwgt            1           1   3.8610103371194346E-002           9      103965           0
</event>
<event>
      5   9999  3.79277E-02  7.60155E+01 -1.00000E+00  1.29433E-01
      21    -1     0     0   502   511  0.000000000E+00  0.000000000E+00  2.074530859E+02  2.074530859E+02  0.000000000E+00  0.00000E+00  9.000E+00
      21    -1     0     0   501   502  0.000000000E+00  0.000000000E+00 -4.063980688E+02  4.063980688E+02  0.000000000E+00  0.00000E+00  9.000E+00
      25     1     1     2     0     0 -1.187963791E+02 -1.301840345E+02 -9.133048689E+01  2.345777491E+02  1.250000000E+02  0.00000E+00  9.000E+00
      25     1     1     2     0     0  9.516626674E+01  2.024334683E+02 -1.451467451E+02  2.944970374E+02  1.250000000E+02  0.00000E+00  9.000E+00
      21     1     1     2   501   511  2.363011239E+01 -7.224943378E+01  3.753224901E+01  8.477636822E+01  2.185142372E-06  0.00000E+00  9.000E+00
#rwgt            1           1   3.6994732314706083E-002           9      104027           0
</event>
<event>
      5   9999  3.79277E-02  4.35207E+01 -1.00000E+00  1.42604E-01
      21    -1     0     0   512   501  0.000000000E+00  0.000000000E+00  3.746203379E+02  3.746203379E+02  0.000000000E+00  0.00000E+00  9.000E+00
      21    -1     0     0   501   502  0.000000000E+00  0.000000000E+00 -1.673988957E+02  1.673988957E+02  0.000000000E+00  0.00000E+00  9.000E+00
      25     1     1     2     0     0 -7.138353209E+01  1.785943404E+02  1.539531259E+02  2.762573294E+02  1.250000000E+02  0.00000E+00  9.000E+00
      25     1     1     2     0     0  3.750317279E+01 -1.512782100E+02  3.735934278E+00  1.998262795E+02  1.250000000E+02  0.00000E+00  9.000E+00
      21     1     1     2   512   502  3.388035930E+01 -2.731613046E+01  4.953238202E+01  6.593562465E+01  9.536743164E-07  0.00000E+00  9.000E+00
#rwgt            1           1   4.1046304397157438E-002           9      104091           0
</event>
<event>
      5   9999  3.79277E-02  1.39764E+01 -1.00000E+00  1.80325E-01
      21    -1     0     0   502   511  0.000000000E+00  0.000000000E+00  2.273449336E+01  2.273449336E+01  0.000000000E+00  0.00000E+00  9.000E+00
      21    -1     0     0   501   502  0.000000000E+00  0.000000000E+00 -3.408307408E+03  3.408307408E+03  0.000000000E+00  0.00000E+00  9.000E+00
      25     1     1     2     0     0 -1.171628711E+02  1.333384656E+02 -1.815875220E+03  1.828806742E+03  1.250000000E+02  0.00000E+00  9.000E+00
      25     1     1     2     0     0  1.067174316E+02 -1.240523678E+02 -1.574154232E+03  1.587565478E+03  1.250000000E+02  0.00000E+00  9.000E+00
      21     1     1     2   501   511  1.044543959E+01 -9.286097863E+00  4.456537670E+00  1.466968131E+01  9.424321831E-07  0.00000E+00  9.000E+00
#rwgt            1           1   1.6387539100955244E-002           9      104188           0
</event>
<event>
      5   9999  3.79277E-02  6.88885E+00 -1.00000E+00  2.16541E-01
      21    -1     0     0   512   501  0.000000000E+00  0.000000000E+00  8.742578317E+01  8.742578317E+01  0.000000000E+00  0.00000E+00  9.000E+00
      21    -1     0     0   501   502  0.000000000E+00  0.000000000E+00 -7.972400779E+02  7.972400779E+02  0.000000000E+00  0.00000E+00  9.000E+00
      25     1     1     2     0     0  2.553892214E+01 -1.876580944E+02 -2.117814172E+02  3.103935656E+02  1.250000000E+02  0.00000E+00  9.000E+00
      25     1     1     2     0     0 -3.214487813E+01  1.857042162E+02 -5.114341455E+02  5.592041079E+02  1.250000000E+02  0.00000E+00  9.000E+00
      21     1     1     2   512   502  6.605955993E+00  1.953878174E+00  1.340126793E+01  1.506818757E+01  1.685873940E-07  0.00000E+00  9.000E+00
#rwgt            1           1   4.0949616796555677E-002           9      104419           0
</event>
<event>
      5   9999  3.79277E-02  3.26530E+01 -1.00000E+00  1.50527E-01
      21    -1     0     0   502   501  0.000000000E+00  0.000000000E+00  1.401611617E+02  1.401611617E+02  0.000000000E+00  0.00000E+00  9.000E+00
      21    -1     0     0   501   511  0.000000000E+00  0.000000000E+00 -1.069562547E+03  1.069562547E+03  0.000000000E+00  0.00000E+00  9.000E+00
      25     1     1     2     0     0 -1.215793273E+02  5.473277440E+01  3.893959981E+01  1.868649294E+02  1.250000000E+02  0.00000E+00  9.000E+00
      25     1     1     2     0     0  1.146451688E+02 -2.282456906E+01 -2.454141375E+02  2.991948773E+02  1.250000000E+02  0.00000E+00  9.000E+00
      21     1     1     2   502   511  6.934158461E+00 -3.190820534E+01 -7.229268476E+02  7.236639020E+02  1.078959322E-05  0.00000E+00  9.000E+00
#rwgt            1           1   4.5532969144842519E-002           9      104807           0
</event>
<event>
      5   9999  3.79277E-02  1.94709E+02 -1.00000E+00  1.12074E-01
      21    -1     0     0   502   501  0.000000000E+00  0.000000000E+00  7.711388995E+01  7.711388995E+01  0.000000000E+00  0.00000E+00  9.000E+00
      21    -1     0     0   512   502  0.000000000E+00  0.000000000E+00 -1.489369344E+03  1.489369344E+03  0.000000000E+00  0.00000E+00  9.000E+00
      25     1     1     2     0     0 -1.227579074E+02  1.933357449E+02 -3.920280116E+02  4.709131299E+02  1.250000000E+02  0.00000E+00  9.000E+00
      25     1     1     2     0     0 -6.589967203E+01 -1.451688705E+02 -5.743936749E+02  6.090729525E+02  1.250000000E+02  0.00000E+00  9.000E+00
      21     1     1     2   512   501  1.886575794E+02 -4.816687443E+01 -4.458337672E+02  4.864971511E+02  5.394796609E-06  0.00000E+00  9.000E+00
#rwgt            1           1   2.7892916354723057E-002           9      104937           0
</event>
<event>
      5   9999  3.79277E-02  3.52612E+02 -1.00000E+00  1.03361E-01
       2    -1     0     0   502     0  0.000000000E+00  0.000000000E+00  1.166173582E+03  1.166173582E+03  0.000000000E+00  0.00000E+00  9.000E+00
      21    -1     0     0   501   502  0.000000000E+00  0.000000000E+00 -4.835137224E+02  4.835137224E+02  0.000000000E+00  0.00000E+00  9.000E+00
      25     1     1     2     0     0  4.493483552E+02 -1.816203605E+02 -3.734708596E+01  5.019160333E+02  1.250000000E+02  0.00000E+00  9.000E+00
      25     1     1     2     0     0 -1.322050793E+02  2.749296140E+01 -1.314841860E+02  2.261573282E+02  1.250000000E+02  0.00000E+00  9.000E+00
       2     1     1     2   501     0 -3.171432760E+02  1.541273991E+02  8.514911316E+02  9.216139429E+02  1.078959322E-05  0.00000E+00  9.000E+00
#rwgt            1           1   7.6730435387803927E-002           9      104979           0
</event>
<event>
      5   9999  3.79277E-02  3.12466E+01 -1.00000E+00  1.51822E-01
      21    -1     0     0   502   501  0.000000000E+00  0.000000000E+00  3.399147325E+02  3.399147325E+02  0.000000000E+00  0.00000E+00  9.000E+00
      21    -1     0     0   511   502  0.000000000E+00  0.000000000E+00 -2.654612829E+02  2.654612829E+02  0.000000000E+00  0.00000E+00  9.000E+00
      25     1     1     2     0     0  9.875720082E+01 -2.398471697E+00 -1.676494034E+02  2.312791816E+02  1.250000000E+02  0.00000E+00  9.000E+00
      25     1     1     2     0     0 -7.706070522E+01 -2.008740077E+01  2.848767405E+02  3.211255413E+02  1.250000000E+02  0.00000E+00  9.000E+00
      21     1     1     2   511   501 -2.169649560E+01  2.248587246E+01 -4.277388748E+01  5.297129252E+01  6.743495762E-07  0.00000E+00  9.000E+00
#rwgt            1           1   4.0769087751660979E-002           9      105033           0
</event>
<event>
      5   9999  3.79277E-02  1.49824E+02 -1.00000E+00  1.16414E-01
      21    -1     0     0   502   501  0.000000000E+00  0.000000000E+00  7.189830416E+02  7.189830416E+02  0.000000000E+00  0.00000E+00  9.000E+00
      21    -1     0     0   512   502  0.000000000E+00  0.000000000E+00 -1.658350366E+02  1.658350366E+02  0.000000000E+00  0.00000E+00  9.000E+00
      25     1     1     2     0     0 -5.698134853E+01  2.483877147E+02  4.367268162E+02  5.208633629E+02  1.250000000E+02  0.00000E+00  9.000E+00
      25     1     1     2     0     0 -4.745777258E+01 -1.409646474E+02  5.405490242E+01  2.016685510E+02  1.250000000E+02  0.00000E+00  9.000E+00
      21     1     1     2   512   501  1.044391211E+02 -1.074230673E+02  6.236628645E+01  1.622861642E+02  0.000000000E+00  0.00000E+00  9.000E+00
#rwgt            2          11   2.7490755799598589E-003           9      105307           0
</event>
<event>
      5   9999  3.79277E-02  3.64328E+01 -1.00000E+00  1.47402E-01
       2    -1     0     0   502     0  0.000000000E+00  0.000000000E+00  4.429912301E+02  4.429912301E+02  0.000000000E+00  0.00000E+00  9.000E+00
      21    -1     0     0   501   502  0.000000000E+00  0.000000000E+00 -1.396010343E+02  1.396010343E+02  0.000000000E+00  0.00000E+00  9.000E+00
      25     1     1     2     0     0  3.202760135E+01 -1.679149595E+02  2.016374689E+02  2.924104474E+02  1.250000000E+02  0.00000E+00  9.000E+00
      25     1     1     2     0     0 -4.397180364E+01  1.334956912E+02  6.508534065E+00  1.882072796E+02  1.250000000E+02  0.00000E+00  9.000E+00
       2     1     1     2   501     0  1.194420230E+01  3.441926830E+01  9.524419290E+01  1.019745374E+02  0.000000000E+00  0.00000E+00  9.000E+00
#rwgt            1           1   4.1324675058663156E-002           9      105372           0
</event>
<event>
      5   9999  3.79277E-02  1.03127E+02 -1.00000E+00  1.23229E-01
      21    -1     0     0   502   501  0.000000000E+00  0.000000000E+00  1.012172919E+03  1.012172919E+03  0.000000000E+00  0.00000E+00  9.000E+00
      21    -1     0     0   511   502  0.000000000E+00  0.000000000E+00 -1.045469533E+02  1.045469533E+02  0.000000000E+00  0.00000E+00  9.000E+00
      25     1     1     2     0     0  8.964820075E+01 -1.047815736E+02  7.269331825E+02  7.503817894E+02  1.250000000E+02  0.00000E+00  9.000E+00
      25     1     1     2     0     0 -1.110305167E+02  3.895546011E+00  2.007460420E+02  2.612793989E+02  1.250000000E+02  0.00000E+00  9.000E+00
      21     1     1     2   511   501  2.138231592E+01  1.008860276E+02 -2.005325841E+01  1.050586844E+02  2.008950656E-06  0.00000E+00  9.000E+00
#rwgt            1           1   3.1735266215398170E-002           9      105502           0
</event>
<event>
      5   9999  3.79277E-02  5.30575E+01 -1.00000E+00  1.37621E-01
      21    -1     0     0   502   512  0.000000000E+00  0.000000000E+00  1.239469689E+02  1.239469689E+02  0.000000000E+00  0.00000E+00  9.000E+00
      21    -1     0     0   501   502  0.000000000E+00  0.000000000E+00 -5.719087113E+02  5.719087113E+02  0.000000000E+00  0.00000E+00  9.000E+00
      25     1     1     2     0     0  6.463729681E+01  5.990703996E+01 -4.699654536E+02  4.942260223E+02  1.250000000E+02  0.00000E+00  9.000E+00
      25     1     1     2     0     0 -7.759269960E+01 -8.455599169E+00  1.640946114E+01  1.482780989E+02  1.250000000E+02  0.00000E+00  9.000E+00
      21     1     1     2   501   512  1.295540279E+01 -5.145144079E+01  5.594250062E+00  5.335155906E+01  1.154238983E-06  0.00000E+00  9.000E+00
#rwgt            1           1   4.2443574806593901E-002           9      105582           0
</event>
<event>
      5   9999  3.79277E-02  1.10119E+02 -1.00000E+00  1.21974E-01
      21    -1     0     0   502   501  0.000000000E+00  0.000000000E+00  8.799751062E+02  8.799751062E+02  0.000000000E+00  0.00000E+00  9.000E+00
      21    -1     0     0   501   511  0.000000000E+00  0.000000000E+00 -1.515980702E+02  1.515980702E+02  0.000000000E+00  0.00000E+00  9.000E+00
      25     1     1     2     0     0 -1.328774324E+02  2.075391281E+02  5.611608294E+02  6.255040993E+02  1.250000000E+02  0.00000E+00  9.000E+00
      25     1     1     2     0     0  2.343351925E+01 -2.197094030E+02  1.492752201E+02  2.944986297E+02  1.250000000E+02  0.00000E+00  9.000E+00
      21     1     1     2   502   511  1.094439132E+02  1.217027492E+01  1.794098649E+01  1.115704474E+02  1.215700987E-06  0.00000E+00  9.000E+00
#rwgt            1           1   3.5789277704883320E-002           9      105657           0
</event>
<event>
      5   9999  3.79277E-02  9.37683E+00 -1.00000E+00  1.99044E-01
      21    -1     0     0   502   501  0.000000000E+00  0.000000000E+00  7.582463336E+01  7.582463336E+01  0.000000000E+00  0.00000E+00  9.000E+00
      21    -1     0     0   512   502  0.000000000E+00  0.000000000E+00 -9.281225446E+02  9.281225446E+02  0.000000000E+00  0.00000E+00  9.000E+00
      25     1     1     2     0     0  1.360958394E+02 -1.625520669E+01 -5.151813225E+02  5.475610508E+02  1.250000000E+02  0.00000E+00  9.000E+00
      25     1     1     2     0     0 -1.452073327E+02  1.404034445E+01 -9.541460605E+01  2.145023258E+02  1.250000000E+02  0.00000E+00  9.000E+00
      21     1     1     2   512   501  9.111493278E+00  2.214862240E+00 -2.417019827E+02  2.418838013E+02  2.697398305E-06  0.00000E+00  9.000E+00
#rwgt            1           1   5.0371454766599044E-002           9      105723           0
</event>
<event>
      5   9999  3.79277E-02  4.33444E+01 -1.00000E+00  1.42710E-01
       1    -1     0     0   502     0  0.000000000E+00  0.000000000E+00  4.271740750E+02  4.271740750E+02  0.000000000E+00  0.00000E+00  9.000E+00
      21    -1     0     0   501   502  0.000000000E+00  0.000000000E+00 -1.044511302E+03  1.044511302E+03  0.000000000E+00  0.00000E+00  9.000E+00
      25     1     1     2     0     0  1.515029555E+02  1.783050064E+02 -3.284365859E+02  4.221864657E+02  1.250000000E+02  0.00000E+00  9.000E+00
      25     1     1     2     0     0 -1.600292758E+02 -1.358074676E+02 -6.455493126E+02  6.902260154E+02  1.250000000E+02  0.00000E+00  9.000E+00
       1     1     1     2   501     0  8.526320246E+00 -4.249753878E+01  3.566486714E+02  3.592728960E+02  6.607249480E-06  0.00000E+00  9.000E+00
#rwgt            1           1   3.2933305254497135E-002           9      106094           0
</event>
<event>
      5   9999  3.79277E-02  2.10640E+01 -1.00000E+00  1.64533E-01
      21    -1     0     0   511   501  0.000000000E+00  0.000000000E+00  3.925264372E+02  3.925264372E+02  0.000000000E+00  0.00000E+00  9.000E+00
      21    -1     0     0   501   502  0.000000000E+00  0.000000000E+00 -1.238713191E+02  1.238713191E+02  0.000000000E+00  0.00000E+00  9.000E+00
      25     1     1     2     0     0  4.501482914E+01 -1.143934248E+01 -6.369905872E+01  1.477828254E+02  1.250000000E+02  0.00000E+00  9.000E+00
      25     1     1     2     0     0 -5.823626125E+01 -4.958361370E+00  2.963629026E+02  3.269128592E+02  1.250000000E+02  0.00000E+00  9.000E+00
      21     1     1     2   511   502  1.322143210E+01  1.639770385E+01  3.599127433E+01  4.170207173E+01  6.743495762E-07  0.00000E+00  9.000E+00
#rwgt            1           1   4.8756736453494189E-002           9      106276           0
</event>
<event>
      5   9999  3.79277E-02  3.13307E+01 -1.00000E+00  1.51742E-01
      21    -1     0     0   502   501  0.000000000E+00  0.000000000E+00  1.483303776E+02  1.483303776E+02  0.000000000E+00  0.00000E+00  9.000E+00
       2    -1     0     0   501     0  0.000000000E+00  0.000000000E+00 -2.878949268E+03  2.878949268E+03  0.000000000E+00  0.00000E+00  9.000E+00
      25     1     1     2     0     0 -7.375432538E+01 -7.905817377E+01  4.704399068E+01  1.718372265E+02  1.250000000E+02  0.00000E+00  9.000E+00
      25     1     1     2     0     0  7.584643302E+01  4.779737147E+01 -1.136746495E+02  1.912699560E+02  1.250000000E+02  0.00000E+00  9.000E+00
       2     1     1     2   502     0 -2.092107643E+00  3.126080230E+01 -2.663988231E+03  2.664172463E+03  4.315837288E-05  0.00000E+00  9.000E+00
#rwgt            1           1   3.0623377310444250E-002           9      106450           0
</event>
<event>
      5   9999  3.79277E-02  1.05533E+02 -1.00000E+00  1.22785E-01
       2    -1     0     0   502     0  0.000000000E+00  0.000000000E+00  2.934846387E+03  2.934846387E+03  0.000000000E+00  0.00000E+00  9.000E+00
      21    -1     0     0   501   502  0.000000000E+00  0.000000000E+00 -6.774842355E+01  6.774842355E+01  0.000000000E+00  0.00000E+00  9.000E+00
      25     1     1     2     0     0  1.684463908E+00 -1.867352857E+02  4.950201078E+02  5.436384934E+02  1.250000000E+02  0.00000E+00  9.000E+00
      25     1     1     2     0     0  1.021693293E+02  1.679854897E+02  2.801650624E+02  3.643832582E+02  1.250000000E+02  0.00000E+00  9.000E+00
       2     1     1     2   501     0 -1.038537932E+02  1.874979599E+01  2.091912794E+03  2.094573059E+03  4.315837288E-05  0.00000E+00  9.000E+00
#rwgt            1           1   3.5991184536622214E-002           9      106577           0
</event>
<event>
      5   9999  3.79277E-02  8.19011E+01 -1.00000E+00  1.27858E-01
      21    -1     0     0   511   501  0.000000000E+00  0.000000000E+00  1.055978623E+02  1.055978623E+02  0.000000000E+00  0.00000E+00  9.000E+00
      21    -1     0     0   501   502  0.000000000E+00  0.000000000E+00 -1.083265712E+03  1.083265712E+03  0.000000000E+00  0.00000E+00  9.000E+00
      25     1     1     2     0     0 -3.017751640E+02 -5.770475181E+01 -5.400476847E+02  6.337780287E+02  1.250000000E+02  0.00000E+00  9.000E+00
      25     1     1     2     0     0  2.198742515E+02  5.753899983E+01 -3.244767920E+02  4.154101726E+02  1.250000000E+02  0.00000E+00  9.000E+00
      21     1     1     2   511   502  8.190091251E+01  1.657519805E-01 -1.131433733E+02  1.396753732E+02  1.348699152E-06  0.00000E+00  9.000E+00
#rwgt            1           1   2.9087649246951768E-002           9      106737           0
</event>
<event>
      5   9999  3.79277E-02  3.46377E+01 -1.00000E+00  1.48827E-01
      21    -1     0     0   502   501  0.000000000E+00  0.000000000E+00  3.069909743E+03  3.069909743E+03  0.000000000E+00  0.00000E+00  9.000E+00
      21    -1     0     0   512   502  0.000000000E+00  0.000000000E+00 -4.117774573E+01  4.117774573E+01  0.000000000E+00  0.00000E+00  9.000E+00
      25     1     1     2     0     0 -9.188655810E+01  3.046842288E+02  1.319873607E+03  1.363439385E+03  1.250000000E+02  0.00000E+00  9.000E+00
      25     1     1     2     0     0  8.223160105E+01 -2.714193630E+02  1.653874742E+03  1.682663712E+03  1.250000000E+02  0.00000E+00  9.000E+00
      21     1     1     2   512   501  9.654957052E+00 -3.326486587E+01  5.498364789E+01  6.498439069E+01  1.348699152E-06  0.00000E+00  9.000E+00
#rwgt            1           1  0.13564368601473467                9      106847           0
</event>
<event>
      5   9999  3.79277E-02  7.30264E+01 -1.00000E+00  1.30296E-01
      21    -1     0     0   502   501  0.000000000E+00  0.000000000E+00  8.151494799E+01  8.151494799E+01  0.000000000E+00  0.00000E+00  9.000E+00
      21    -1     0     0   501   511  0.000000000E+00  0.000000000E+00 -1.310148236E+03  1.310148236E+03  0.000000000E+00  0.00000E+00  9.000E+00
      25     1     1     2     0     0  1.298539248E+02 -2.138516311E+02 -5.310154348E+02  6.001641058E+02  1.250000000E+02  0.00000E+00  9.000E+00
      25     1     1     2     0     0 -7.429253631E+01  2.612413109E+02 -5.268912604E+02  6.058100393E+02  1.250000000E+02  0.00000E+00  9.000E+00
      21     1     1     2   502   511 -5.556138852E+01 -4.738967981E+01 -1.707265929E+02  1.856890389E+02  3.303624740E-06  0.00000E+00  9.000E+00
#rwgt            1           1   8.7272904661062078E-002           9      107067           0
</event>
<event>
      5   9999  3.79277E-02  9.65209E+00 -1.00000E+00  1.97552E-01
      21    -1     0     0   502   512  0.000000000E+00  0.000000000E+00  5.022460123E+02  5.022460123E+02  0.000000000E+00  0.00000E+00  9.000E+00
      21    -1     0     0   501   502  0.000000000E+00  0.000000000E+00 -8.548001078E+01  8.548001078E+01  0.000000000E+00  0.00000E+00  9.000E+00
      25     1     1     2     0     0  3.848137395E+01 -5.721059535E+01 -1.052434503E+00  1.427584533E+02  1.250000000E+02  0.00000E+00  9.000E+00
      25     1     1     2     0     0 -4.023836494E+01  4.771976729E+01  3.566299543E+02  3.830224882E+02  1.250000000E+02  0.00000E+00  9.000E+00
      21     1     1     2   501   512  1.756990984E+00  9.490828059E+00  6.118848177E+01  6.194508161E+01  0.000000000E+00  0.00000E+00  9.000E+00
#rwgt            1           1   1.5689361553401324E-002           9      107131           0
</event>
<event>
      5   9999  3.79277E-02  4.79672E+01 -1.00000E+00  1.40112E-01
      21    -1     0     0   502   501  0.000000000E+00  0.000000000E+00  6.981996233E+01  6.981996233E+01  0.000000000E+00  0.00000E+00  9.000E+00
      21    -1     0     0   511   502  0.000000000E+00  0.000000000E+00 -6.231479342E+02  6.231479342E+02  0.000000000E+00  0.00000E+00  9.000E+00
      25     1     1     2     0     0  1.087487513E+02 -1.798910943E+01 -1.661578572E+02  2.353366365E+02  1.250000000E+02  0.00000E+00  9.000E+00
      25     1     1     2     0     0 -1.435766459E+02 -1.499372322E+01 -2.671397770E+02  3.283713225E+02  1.250000000E+02  0.00000E+00  9.000E+00
      21     1     1     2   511   501  3.482789455E+01  3.298283266E+01 -1.200303377E+02  1.292599375E+02  1.907348633E-06  0.00000E+00  9.000E+00
#rwgt            1           1   3.8997940595510310E-002           9      107392           0
</event>
<event>
      5   9999  3.79277E-02  6.29875E+01 -1.00000E+00  1.33585E-01
      21    -1     0     0   512   501  0.000000000E+00  0.000000000E+00  5.729087592E+01  5.729087592E+01  0.000000000E+00  0.00000E+00  9.000E+00
      21    -1     0     0   501   502  0.000000000E+00  0.000000000E+00 -2.009057800E+03  2.009057800E+03  0.000000000E+00  0.00000E+00  9.000E+00
      25     1     1     2     0     0  1.076217233E+02  3.199682914E+01 -5.465494048E+02  5.717932181E+02  1.250000000E+02  0.00000E+00  9.000E+00
      25     1     1     2     0     0 -1.336257845E+02  2.537229630E+01 -1.418253252E+03  1.430233160E+03  1.250000000E+02  0.00000E+00  9.000E+00
      21     1     1     2   512   502  2.600406111E+01 -5.736912544E+01  1.303573262E+01  6.432229841E+01  9.078709013E-07  0.00000E+00  9.000E+00
#rwgt            1           1  0.10366562545059672                9      107573           0
</event>
<event>
      5   9999  3.79277E-02  9.65138E+01 -1.00000E+00  1.24525E-01
      21    -1     0     0   502   501  0.000000000E+00  0.000000000E+00  3.504835687E+02  3.504835687E+02  0.000000000E+00  0.00000E+00  9.000E+00
      21    -1     0     0   511   502  0.000000000E+00  0.000000000E+00 -2.886721892E+02  2.886721892E+02  0.000000000E+00  0.00000E+00  9.000E+00
      25     1     1     2     0     0 -1.004871902E+02 -7.158825788E+01  2.170309042E+02  2.791952139E+02  1.250000000E+02  0.00000E+00  9.000E+00
      25     1     1     2     0     0  4.045617018E+00  6.785479665E+01  3.511353069E+01  1.465557931E+02  1.250000000E+02  0.00000E+00  9.000E+00
      21     1     1     2   511   501  9.644157321E+01  3.733461231E+00 -1.903330554E+02  2.134047510E+02  2.697398305E-06  0.00000E+00  9.000E+00
#rwgt            2          11   1.8862072971845716E-003           9      107722           0
</event>
<event>
      5   9999  3.79277E-02  1.22567E+02 -1.00000E+00  1.19979E-01
      21    -1     0     0   502   501  0.000000000E+00  0.000000000E+00  5.544959085E+02  5.544959085E+02  0.000000000E+00  0.00000E+00  9.000E+00
      21    -1     0     0   501   512  0.000000000E+00  0.000000000E+00 -2.353418196E+02  2.353418196E+02  0.000000000E+00  0.00000E+00  9.000E+00
      25     1     1     2     0     0  1.023350037E+02 -2.431899551E+02  1.965249131E+02  3.519387002E+02  1.250000000E+02  0.00000E+00  9.000E+00
      25     1     1     2     0     0  2.019776586E+01  2.460985384E+02  1.463237855E+02  3.130624387E+02  1.250000000E+02  0.00000E+00  9.000E+00
      21     1     1     2   502   512 -1.225327695E+02 -2.908583296E+00 -2.369460958E+01  1.248365891E+02  4.768371582E-07  0.00000E+00  9.000E+00
#rwgt            1           1   2.5350390119452757E-002           9      107742           0
</event>
<event>
      5   9999  3.79277E-02  7.92520E+01 -1.00000E+00  1.28547E-01
      21    -1     0     0   502   511  0.000000000E+00  0.000000000E+00  2.056680038E+02  2.056680038E+02  0.000000000E+00  0.00000E+00  9.000E+00
      21    -1     0     0   501   502  0.000000000E+00  0.000000000E+00 -3.279322229E+02  3.279322229E+02  0.000000000E+00  0.00000E+00  9.000E+00
      25     1     1     2     0     0 -4.946279161E+01 -1.363832658E+02 -1.115427194E+02  2.216162024E+02  1.250000000E+02  0.00000E+00  9.000E+00
      25     1     1     2     0     0 -2.626356455E+01  1.597583905E+02 -6.648896784E+01  2.150774302E+02  1.250000000E+02  0.00000E+00  9.000E+00
      21     1     1     2   501   511  7.572635616E+01 -2.337512469E+01  5.576746811E+01  9.690659405E+01  1.507891493E-06  0.00000E+00  9.000E+00
#rwgt            1           1   3.6947795723721026E-002           9      107940           0
</event>
<event>
      5   9999  3.79277E-02  1.42018E+01 -1.00000E+00  1.79650E-01
      21    -1     0     0   502   501  0.000000000E+00  0.000000000E+00  8.290658432E+02  8.290658432E+02  0.000000000E+00  0.00000E+00  9.000E+00
      21    -1     0     0   512   502  0.000000000E+00  0.000000000E+00 -5.794467955E+01  5.794467955E+01  0.000000000E+00  0.00000E+00  9.000E+00
      25     1     1     2     0     0 -3.751322921E+00  5.226198099E+01  4.372123951E+02  4.577390801E+02  1.250000000E+02  0.00000E+00  9.000E+00
      25     1     1     2     0     0 -1.044305046E+01 -5.180202714E+01  3.680612563E+02  3.922838203E+02  1.250000000E+02  0.00000E+00  9.000E+00
      21     1     1     2   512   501  1.419437338E+01 -4.599538554E-01 -3.415248765E+01  3.698762233E+01  1.430511475E-06  0.00000E+00  9.000E+00
#rwgt            1           1   2.1880080974223913E-002           9      108112           0
</event>
<event>
      5   9999  3.79277E-02  9.48832E+00 -1.00000E+00  1.98432E-01
      21    -1     0     0   502   501  0.000000000E+00  0.000000000E+00  2.938614129E+02  2.938614129E+02  0.000000000E+00  0.00000E+00  9.000E+00
       2    -1     0     0   501     0  0.000000000E+00  0.000000000E+00 -2.883096147E+03  2.883096147E+03  0.000000000E+00  0.00000E+00  9.000E+00
      25     1     1     2     0     0 -1.227589568E+02 -2.239105016E+01 -7.969633437E+01  1.937720989E+02  1.250000000E+02  0.00000E+00  9.000E+00
      25     1     1     2     0     0  1.288084474E+02  1.508134445E+01  2.025648346E+02  2.710656291E+02  1.250000000E+02  0.00000E+00  9.000E+00
       2     1     1     2   502     0 -6.049490554E+00  7.309705714E+00 -2.712103234E+03  2.712119832E+03  3.051757812E-05  0.00000E+00  9.000E+00
#rwgt            1           1   3.4848137716013292E-002           9      108331           0
</event>
<event>
      5   9999  3.79277E-02  2.59547E+01 -1.00000E+00  1.57541E-01
      21    -1     0     0   502   501  0.000000000E+00  0.000000000E+00  1.301585684E+03  1.301585684E+03  0.000000000E+00  0.00000E+00  9.000E+00
      21    -1     0     0   511   502  0.000000000E+00  0.000000000E+00 -1.182286564E+02  1.182286564E+02  0.000000000E+00  0.00000E+00  9.000E+00
      25     1     1     2     0     0  2.722195165E+00 -1.027655045E+02  1.064935577E+03  1.077163378E+03  1.250000000E+02  0.00000E+00  9.000E+00
      25     1     1     2     0     0  9.093380732E+00  7.965618198E+01  2.045075639E+02  2.527372956E+02  1.250000000E+02  0.00000E+00  9.000E+00
      21     1     1     2   511   501 -1.181557590E+01  2.310932248E+01 -8.608611328E+01  8.991366703E+01  2.132480600E-06  0.00000E+00  9.000E+00
#rwgt            1           1   3.8932550833612002E-002           9      108528           0
</event>
<event>
      5   9999  3.79277E-02  1.98280E+01 -1.00000E+00  1.66679E-01
      21    -1     0     0   502   501  0.000000000E+00  0.000000000E+00  6.985381245E+02  6.985381245E+02  0.000000000E+00  0.00000E+00  9.000E+00
      21    -1     0     0   512   502  0.000000000E+00  0.000000000E+00 -1.742133291E+02  1.742133291E+02  0.000000000E+00  0.00000E+00  9.000E+00
      25     1     1     2     0     0  2.698984363E+01  2.421180879E+00  6.365543618E+02  6.492771129E+02  1.250000000E+02  0.00000E+00  9.000E+00
      25     1     1     2     0     0 -1.011010349E+01 -1.282420448E+01 -1.819072799E+01  1.273678806E+02  1.250000000E+02  0.00000E+00  9.000E+00
      21     1     1     2   512   501 -1.687974014E+01  1.040302360E+01 -9.403883845E+01  9.610646005E+01  1.907348633E-06  0.00000E+00  9.000E+00
#rwgt            1           1   3.0575002386738340E-002           9      108740           0
</event>
<event>
      5   9999  3.79277E-02  3.14043E+01 -1.00000E+00  1.51673E-01
      21    -1     0     0   502   511  0.000000000E+00  0.000000000E+00  2.110948737E+02  2.110948737E+02  0.000000000E+00  0.00000E+00  9.000E+00
      21    -1     0     0   501   502  0.000000000E+00  0.000000000E+00 -1.895913600E+02  1.895913600E+02  0.000000000E+00  0.00000E+00  9.000E+00
      25     1     1     2     0     0  1.716892682E+01  6.301121113E+01 -1.053961974E+02  1.760640316E+02  1.250000000E+02  0.00000E+00  9.000E+00
      25     1     1     2     0     0  6.489197218E+00 -8.366370859E+01  1.198563660E+02  1.924377153E+02  1.250000000E+02  0.00000E+00  9.000E+00
      21     1     1     2   501   511 -2.365812404E+01  2.065249746E+01  7.043345128E+00  3.218448686E+01  3.039252468E-07  0.00000E+00  9.000E+00
#rwgt            1           1   4.1933459934578865E-002           9      108966           0
</event>
<event>
      5   9999  3.79277E-02  4.99138E+01 -1.00000E+00  1.39118E-01
      21    -1     0     0   502   501  0.000000000E+00  0.000000000E+00  2.150453501E+01  2.150453501E+01  0.000000000E+00  0.00000E+00  9.000E+00
      21    -1     0     0   501   512  0.000000000E+00  0.000000000E+00 -2.878187001E+03  2.878187001E+03  0.000000000E+00  0.00000E+00  9.000E+00
      25     1     1     2     0     0  9.111118444E+01 -1.143877519E+02 -1.043189733E+03  1.060780668E+03  1.250000000E+02  0.00000E+00  9.000E+00
      25     1     1     2     0     0 -6.395437339E+01  1.562673153E+02 -9.056501118E+02  9.296971339E+02  1.250000000E+02  0.00000E+00  9.000E+00
      21     1     1     2   502   512 -2.715681106E+01 -4.187956346E+01 -9.078426210E+02  9.092137343E+02  1.525878906E-05  0.00000E+00  9.000E+00
#rwgt            1           1   9.8520020855191792E-002           9      109089           0
</event>
<event>
      5   9999  3.79277E-02  7.46252E+01 -1.00000E+00  1.29829E-01
       2    -1     0     0   502     0  0.000000000E+00  0.000000000E+00  1.555836970E+03  1.555836970E+03  0.000000000E+00  0.00000E+00  9.000E+00
      21    -1     0     0   501   502  0.000000000E+00  0.000000000E+00 -1.091193369E+02  1.091193369E+02  0.000000000E+00  0.00000E+00  9.000E+00
      25     1     1     2     0     0 -6.202973975E+01 -1.241530746E+02  6.771953811E+01  1.986771512E+02  1.250000000E+02  0.00000E+00  9.000E+00
      25     1     1     2     0     0  9.216601578E+01  1.924225866E+02  3.188068808E+02  4.034648108E+02  1.250000000E+02  0.00000E+00  9.000E+00
       2     1     1     2   501     0 -3.013627602E+01 -6.826951194E+01  1.060191215E+03  1.062814345E+03  1.525878906E-05  0.00000E+00  9.000E+00
#rwgt            1           1   2.7979920766833394E-002           9      109227           0
</event>
<event>
      5   9999  3.79277E-02  5.73122E+01 -1.00000E+00  1.35776E-01
      21    -1     0     0   502   501  0.000000000E+00  0.000000000E+00  5.737040897E+02  5.737040897E+02  0.000000000E+00  0.00000E+00  9.000E+00
      21    -1     0     0   511   502  0.000000000E+00  0.000000000E+00 -1.953604360E+02  1.953604360E+02  0.000000000E+00  0.00000E+00  9.000E+00
      25     1     1     2     0     0  1.978544302E+02  4.847824870E+01  1.306462067E+02  2.723783168E+02  1.250000000E+02  0.00000E+00  9.000E+00
      25     1     1     2     0     0 -1.587028733E+02 -6.623254269E+00  3.355890565E+02  3.917594726E+02  1.250000000E+02  0.00000E+00  9.000E+00
      21     1     1     2   511   501 -3.915155691E+01 -4.185499443E+01 -8.789160947E+01  1.049267363E+02  2.132480600E-06  0.00000E+00  9.000E+00
#rwgt            1           1   2.9054576052985132E-002           9      109308           0
</event>
<event>
      5   9999  3.79277E-02  3.14482E+01 -1.00000E+00  1.51631E-01
       1    -1     0     0   502     0  0.000000000E+00  0.000000000E+00  1.621854554E+03  1.621854554E+03  0.000000000E+00  0.00000E+00  9.000E+00
      21    -1     0     0   501   502  0.000000000E+00  0.000000000E+00 -5.107178251E+01  5.107178251E+01  0.000000000E+00  0.00000E+00  9.000E+00
      25     1     1     2     0     0  1.261862077E+02  4.747235605E+01  3.919585897E+02  4.329354683E+02  1.250000000E+02  0.00000E+00  9.000E+00
      25     1     1     2     0     0 -1.576226082E+02 -4.660994763E+01  3.215976760E+02  3.821877014E+02  1.250000000E+02  0.00000E+00  9.000E+00
       1     1     1     2   501     0  3.143640050E+01 -8.624084200E-01  8.572265062E+02  8.578031673E+02  1.525878906E-05  0.00000E+00  9.000E+00
#rwgt            1           1   3.6518570828852535E-002           9      109390           0
</event>
<event>
      5   9999  3.79277E-02  2.54984E+01 -1.00000E+00  1.58111E-01
      -1    -1     0     0     0   501  0.000000000E+00  0.000000000E+00  1.498425319E+03  1.498425319E+03  0.000000000E+00  0.00000E+00  9.000E+00
      21    -1     0     0   501   502  0.000000000E+00  0.000000000E+00 -2.736850418E+01  2.736850418E+01  0.000000000E+00  0.00000E+00  9.000E+00
      25     1     1     2     0     0 -8.477128215E+01  9.878220938E+01  4.390100648E+02  4.746566466E+02  1.250000000E+02  0.00000E+00  9.000E+00
      25     1     1     2     0     0  5.975262971E+01 -1.037052779E+02  8.633767388E+02  8.805507110E+02  1.250000000E+02  0.00000E+00  9.000E+00
      -1     1     1     2     0   502  2.501865244E+01  4.923068520E+00  1.686700110E+02  1.705864654E+02  3.303624740E-06  0.00000E+00  9.000E+00
#rwgt            1           1   4.7593662382697001E-002           9      109510           0
</event>
<event>
      5   9999  3.79277E-02  4.02762E+01 -1.00000E+00  1.44655E-01
      21    -1     0     0   502   501  0.000000000E+00  0.000000000E+00  5.538885518E+02  5.538885518E+02  0.000000000E+00  0.00000E+00  9.000E+00
      21    -1     0     0   501   511  0.000000000E+00  0.000000000E+00 -1.505276720E+02  1.505276720E+02  0.000000000E+00  0.00000E+00  9.000E+00
      25     1     1     2     0     0  2.046560171E+02  1.107178219E+01  1.128461530E+02  2.652657609E+02  1.250000000E+02  0.00000E+00  9.000E+00
      25     1     1     2     0     0 -1.961030194E+02 -5.042935151E+01  3.128744583E+02  3.930838847E+02  1.250000000E+02  0.00000E+00  9.000E+00
      21     1     1     2   502   511 -8.552997624E+00  3.935756932E+01 -2.235973151E+01  4.606657817E+01  7.907449699E-07  0.00000E+00  9.000E+00
#rwgt            1           1   3.7597655625846570E-002           9      109705           0
</event>
<event>
      5   9999  3.79277E-02  1.87193E+02 -1.00000E+00  1.12704E-01
      21    -1     0     0   502   501  0.000000000E+00  0.000000000E+00  1.451651087E+03  1.451651087E+03  0.000000000E+00  0.00000E+00  9.000E+00
       2    -1     0     0   501     0  0.000000000E+00  0.000000000E+00 -7.955707308E+01  7.955707308E+01  0.000000000E+00  0.00000E+00  9.000E+00
      25     1     1     2     0     0  2.228494496E+02 -2.996175181E+01  8.700987947E+02  9.073348314E+02  1.250000000E+02  0.00000E+00  9.000E+00
      25     1     1     2     0     0 -5.801091717E+01  1.186713383E+02  2.742707785E+02  3.290860268E+02  1.250000000E+02  0.00000E+00  9.000E+00
       2     1     1     2   502     0 -1.648385325E+02 -8.870958652E+01  2.277244411E+02  2.947873023E+02  4.672030912E-06  0.00000E+00  9.000E+00
#rwgt            1           1   4.1586373078203530E-002           9      109876           0
</event>
<event>
      5   9999  3.79277E-02  7.05455E+01 -1.00000E+00  1.31050E-01
      21    -1     0     0   502   501  0.000000000E+00  0.000000000E+00  3.290153197E+02  3.290153197E+02  0.000000000E+00  0.00000E+00  9.000E+00
      21    -1     0     0   501   511  0.000000000E+00  0.000000000E+00 -3.374618734E+02  3.374618734E+02  0.000000000E+00  0.00000E+00  9.000E+00
      25     1     1     2     0     0 -2.803994689E+00 -6.427666080E+00  2.547108764E+02  2.838165038E+02  1.250000000E+02  0.00000E+00  9.000E+00
      25     1     1     2     0     0 -6.772614453E+01  7.898481382E+00 -3.895296017E+01  1.476196117E+02  1.250000000E+02  0.00000E+00  9.000E+00
      21     1     1     2   502   511  7.053013922E+01 -1.470815302E+00 -2.242044699E+02  2.350410776E+02  3.814697266E-06  0.00000E+00  9.000E+00
#rwgt            1           1   4.0360147057891448E-002           9      109966           0
</event>
<event>
      5   9999  3.79277E-02  2.12733E+02 -1.00000E+00  1.10681E-01
      21    -1     0     0   502   501  0.000000000E+00  0.000000000E+00  4.279753724E+02  4.279753724E+02  0.000000000E+00  0.00000E+00  9.000E+00
       2    -1     0     0   501     0  0.000000000E+00  0.000000000E+00 -7.022670282E+02  7.022670282E+02  0.000000000E+00  0.00000E+00  9.000E+00
      25     1     1     2     0     0 -6.615778139E+01  2.136533213E+02  1.858241640E+02  3.165125805E+02  1.250000000E+02  0.00000E+00  9.000E+00
      25     1     1     2     0     0  2.337831779E+02 -8.266783326E+01  3.012467855E+01  2.793224681E+02  1.250000000E+02  0.00000E+00  9.000E+00
       2     1     1     2   502     0 -1.676253965E+02 -1.309854880E+02 -4.902404983E+02  5.344073520E+02  7.629394531E-06  0.00000E+00  9.000E+00
#rwgt            1           1   9.1223728265904108E-002           9      110049           0
</event>
<event>
      5   9999  3.79277E-02  2.11686E+01 -1.00000E+00  1.64360E-01
       1    -1     0     0   502     0  0.000000000E+00  0.000000000E+00  1.239286422E+03  1.239286422E+03  0.000000000E+00  0.00000E+00  9.000E+00
      21    -1     0     0   501   502  0.000000000E+00  0.000000000E+00 -8.033451941E+01  8.033451941E+01  0.000000000E+00  0.00000E+00  9.000E+00
      25     1     1     2     0     0 -1.271636696E+02  1.384713296E+02  2.003317446E+02  3.018322645E+02  1.250000000E+02  0.00000E+00  9.000E+00
      25     1     1     2     0     0  1.192505047E+02 -1.581052683E+02  4.374684053E+02  4.962071789E+02  1.250000000E+02  0.00000E+00  9.000E+00
       1     1     1     2   501     0  7.913164887E+00  1.963393873E+01  5.211517532E+02  5.215814985E+02  7.629394531E-06  0.00000E+00  9.000E+00
#rwgt            1           1   3.6194913391091932E-002           9      110148           0
</event>
<event>
      5   9999  3.79277E-02  4.42725E+01 -1.00000E+00  1.42159E-01
      21    -1     0     0   502   501  0.000000000E+00  0.000000000E+00  8.841676062E+01  8.841676062E+01  0.000000000E+00  0.00000E+00  9.000E+00
      21    -1     0     0   511   502  0.000000000E+00  0.000000000E+00 -6.032562901E+02  6.032562901E+02  0.000000000E+00  0.00000E+00  9.000E+00
      25     1     1     2     0     0 -1.718396728E+02 -7.191367675E+01 -2.599665724E+02  3.433774437E+02  1.250000000E+02  0.00000E+00  9.000E+00
      25     1     1     2     0     0  1.278499494E+02  6.691820972E+01 -1.868620872E+02  2.671443355E+02  1.250000000E+02  0.00000E+00  9.000E+00
      21     1     1     2   511   501  4.398972343E+01  4.995467026E+00 -6.801086987E+01  8.115127158E+01  1.348699152E-06  0.00000E+00  9.000E+00
#rwgt            1           1   9.1164551076107853E-002           9      110387           0
</event>
<event>
      5   9999  3.79277E-02  4.19919E+01 -1.00000E+00  1.43543E-01
      21    -1     0     0   502   512  0.000000000E+00  0.000000000E+00  2.946537762E+03  2.946537762E+03  0.000000000E+00  0.00000E+00  9.000E+00
      21    -1     0     0   501   502  0.000000000E+00  0.000000000E+00 -3.324381376E+01  3.324381376E+01  0.000000000E+00  0.00000E+00  9.000E+00
      25     1     1     2     0     0  6.954887105E+00  7.291504176E+01  2.299991561E+02  2.718263887E+02  1.250000000E+02  0.00000E+00  9.000E+00
      25     1     1     2     0     0 -3.848212218E+01 -4.517787192E+01  3.821994871E+02  4.064767666E+02  1.250000000E+02  0.00000E+00  9.000E+00
      21     1     1     2   501   512  3.152723507E+01 -2.773716984E+01  2.301095305E+03  2.301478421E+03  0.000000000E+00  0.00000E+00  9.000E+00
#rwgt            1           1   5.1807039043835379E-002           9      110474           0
</event>
<event>
      5   9999  3.79277E-02  9.85615E+01 -1.00000E+00  1.24112E-01
       4    -1     0     0   502     0  0.000000000E+00  0.000000000E+00  5.251976173E+02  5.251976173E+02  0.000000000E+00  0.00000E+00  9.000E+00
      21    -1     0     0   501   502  0.000000000E+00  0.000000000E+00 -7.218247883E+02  7.218247883E+02  0.000000000E+00  0.00000E+00  9.000E+00
      25     1     1     2     0     0 -7.292395495E+01  1.697519459E+02 -1.215737053E+02  2.540448625E+02  1.250000000E+02  0.00000E+00  9.000E+00
      25     1     1     2     0     0  1.639502819E+02 -1.319555130E+02 -5.000260524E+02  5.567252513E+02  1.250000000E+02  0.00000E+00  9.000E+00
       4     1     1     2   501     0 -9.102632695E+01 -3.779643290E+01  4.249725868E+02  4.362522917E+02  9.344061824E-06  0.00000E+00  9.000E+00
#rwgt            1           1   3.1523415668126026E-002           9      110690           0
</event>
<event>
      5   9999  3.79277E-02  3.29993E+01 -1.00000E+00  1.50220E-01
      21    -1     0     0   502   511  0.000000000E+00  0.000000000E+00  8.261095149E+02  8.261095149E+02  0.000000000E+00  0.00000E+00  9.000E+00
      21    -1     0     0   501   502  0.000000000E+00  0.000000000E+00 -1.336005262E+02  1.336005262E+02  0.000000000E+00  0.00000E+00  9.000E+00
      25     1     1     2     0     0  1.919837139E+02  1.033317975E+02  4.747742558E+02  5.371878635E+02  1.250000000E+02  0.00000E+00  9.000E+00
      25     1     1     2     0     0 -2.021458910E+02 -7.193616339E+01  5.222175648E+01  2.537516201E+02  1.250000000E+02  0.00000E+00  9.000E+00
      21     1     1     2   501   511  1.016217715E+01 -3.139563416E+01  1.655129765E+02  1.687705575E+02  3.303624740E-06  0.00000E+00  9.000E+00
#rwgt            1           1   3.5896142075668526E-002           9      110920           0
</event>
<event>
      5   9999  3.79277E-02  1.26496E+01 -1.00000E+00  1.84652E-01
      21    -1     0     0   512   501  0.000000000E+00  0.000000000E+00  8.564504211E+02  8.564504211E+02  0.000000000E+00  0.00000E+00  9.000E+00
      21    -1     0     0   501   502  0.000000000E+00  0.000000000E+00 -6.688078958E+01  6.688078958E+01  0.000000000E+00  0.00000E+00  9.000E+00
      25     1     1     2     0     0  9.238627706E+00 -1.696184083E+02  5.021771688E+02  5.446674816E+02  1.250000000E+02  0.00000E+00  9.000E+00
      25     1     1     2     0     0 -1.432037966E+01  1.812023816E+02  2.253776281E+02  3.153719259E+02  1.250000000E+02  0.00000E+00  9.000E+00
      21     1     1     2   512   502  5.081751955E+00 -1.158397330E+01  6.201483467E+01  6.329180326E+01  6.743495762E-07  0.00000E+00  9.000E+00
#rwgt            1           1   3.0904236097082812E-002           9      111049           0
</event>
<event>
      5   9999  3.79277E-02  3.01548E+02 -1.00000E+00  1.05519E-01
      21    -1     0     0   511   501  0.000000000E+00  0.000000000E+00  1.271593651E+03  1.271593651E+03  0.000000000E+00  0.00000E+00  9.000E+00
      21    -1     0     0   501   502  0.000000000E+00  0.000000000E+00 -1.719074058E+02  1.719074058E+02  0.000000000E+00  0.00000E+00  9.000E+00
      25     1     1     2     0     0 -8.069903817E+01 -6.017839193E+01  5.367855797E+02  5.602655908E+02  1.250000000E+02  0.00000E+00  9.000E+00
      25     1     1     2     0     0 -1.579812241E+02 -1.241119976E+02 -8.911669552E+00  2.367831772E+02  1.250000000E+02  0.00000E+00  9.000E+00
      21     1     1     2   511   502  2.386802623E+02  1.842903896E+02  5.718123345E+02  6.464522884E+02  7.629394531E-06  0.00000E+00  9.000E+00
#rwgt            2          11   8.4867277459767557E-004           9      111647           0
</event>
<event>
      5   9999 -3.79277E-02  1.16415E+02 -1.00000E+00  1.20930E-01
       2    -1     0     0   502     0  0.000000000E+00  0.000000000E+00  5.499425699E+02  5.499425699E+02  0.000000000E+00  0.00000E+00  9.000E+00
      21    -1     0     0   501   502  0.000000000E+00  0.000000000E+00 -1.892711883E+02  1.892711883E+02  0.000000000E+00  0.00000E+00  9.000E+00
      25     1     1     2     0     0 -1.151921612E+02 -2.045455043E+02  1.001446420E+02  2.841866405E+02  1.250000000E+02  0.00000E+00  9.000E+00
      25     1     1     2     0     0  1.600221697E+02  9.710805002E+01  7.737876454E+01  2.380116413E+02  1.250000000E+02  0.00000E+00  9.000E+00
       2     1     1     2   501     0 -4.483000857E+01  1.074374543E+02  1.831479750E+02  2.170154764E+02  3.814697266E-06  0.00000E+00  9.000E+00
#rwgt            1           1 -0.18492985599193559                9      111787           0
</event>
<event>
      5   9999  3.79277E-02  1.30108E+02 -1.00000E+00  1.18896E-01
      21    -1     0     0   502   501  0.000000000E+00  0.000000000E+00  1.192763923E+03  1.192763923E+03  0.000000000E+00  0.00000E+00  9.000E+00
       1    -1     0     0   501     0  0.000000000E+00  0.000000000E+00 -1.384726632E+02  1.384726632E+02  0.000000000E+00  0.00000E+00  9.000E+00
      25     1     1     2     0     0  1.220266562E+02  4.464596659E+01  1.022609158E+03  1.038382520E+03  1.250000000E+02  0.00000E+00  9.000E+00
      25     1     1     2     0     0 -4.845942082E+00 -1.011861049E+02  1.312306346E+01  1.614290116E+02  1.250000000E+02  0.00000E+00  9.000E+00
       1     1     1     2   502     0 -1.171807142E+02  5.654013830E+01  1.855903763E+01  1.314250543E+02  3.438521648E-06  0.00000E+00  9.000E+00
#rwgt            1           1   4.4288168014741509E-002           9      111954           0
</event>
<event>
      5   9999  3.79277E-02  1.30842E+01 -1.00000E+00  1.83163E-01
      21    -1     0     0   511   501  0.000000000E+00  0.000000000E+00  5.793480509E+02  5.793480509E+02  0.000000000E+00  0.00000E+00  9.000E+00
      21    -1     0     0   501   502  0.000000000E+00  0.000000000E+00 -1.990722395E+02  1.990722395E+02  0.000000000E+00  0.00000E+00  9.000E+00
      25     1     1     2     0     0 -8.590730482E+01 -2.299902188E+01  1.143956741E+02  1.913645481E+02  1.250000000E+02  0.00000E+00  9.000E+00
      25     1     1     2     0     0  7.632011047E+01  1.409502256E+01 -1.267540853E+02  1.942035712E+02  1.250000000E+02  0.00000E+00  9.000E+00
      21     1     1     2   511   502  9.587194350E+00  8.903999326E+00  3.926342227E+02  3.928521711E+02  0.000000000E+00  0.00000E+00  9.000E+00
#rwgt            1           1   5.2655901802414321E-002           9      112024           0
</event>
<event>
      5   9999  3.79277E-02  2.11919E+01 -1.00000E+00  1.64321E-01
      21    -1     0     0   502   501  0.000000000E+00  0.000000000E+00  1.356377382E+02  1.356377382E+02  0.000000000E+00  0.00000E+00  9.000E+00
      21    -1     0     0   512   502  0.000000000E+00  0.000000000E+00 -7.532247683E+02  7.532247683E+02  0.000000000E+00  0.00000E+00  9.000E+00
      25     1     1     2     0     0 -1.287149854E+02  2.188257735E+02 -1.175933647E+02  3.064399877E+02  1.250000000E+02  0.00000E+00  9.000E+00
      25     1     1     2     0     0  1.078120962E+02 -2.223140126E+02 -4.539386491E+02  5.317257427E+02  1.250000000E+02  0.00000E+00  9.000E+00
      21     1     1     2   512   501  2.090288919E+01  3.488239090E+00 -4.605501630E+01  5.069677617E+01  6.743495762E-07  0.00000E+00  9.000E+00
#rwgt            1           1   3.9617469641601746E-002           9      112257           0
</event>
<event>
      5   9999  3.79277E-02  4.94707E+01 -1.00000E+00  1.39340E-01
      21    -1     0     0   511   501  0.000000000E+00  0.000000000E+00  6.369223748E+02  6.369223748E+02  0.000000000E+00  0.00000E+00  9.000E+00
      21    -1     0     0   501   502  0.000000000E+00  0.000000000E+00 -7.830303734E+02  7.830303734E+02  0.000000000E+00  0.00000E+00  9.000E+00
      25     1     1     2     0     0  1.973746254E+02  2.432789985E+02 -4.185068084E+02  5.375075465E+02  1.250000000E+02  0.00000E+00  9.000E+00
      25     1     1     2     0     0 -2.464094720E+02 -2.498311616E+02 -1.894800580E+02  4.179245502E+02  1.250000000E+02  0.00000E+00  9.000E+00
      21     1     1     2   511   502  4.903484661E+01  6.552163119E+00  4.618788679E+02  4.645206514E+02  5.394796609E-06  0.00000E+00  9.000E+00
#rwgt            1           1   5.3527845907912174E-002           9      112471           0
</event>
<event>
      5   9999  3.79277E-02  7.78194E+01 -1.00000E+00  1.28933E-01
      21    -1     0     0   512   501  0.000000000E+00  0.000000000E+00  2.786621678E+02  2.786621678E+02  0.000000000E+00  0.00000E+00  9.000E+00
      21    -1     0     0   501   502  0.000000000E+00  0.000000000E+00 -5.348889931E+02  5.348889931E+02  0.000000000E+00  0.00000E+00  9.000E+00
      25     1     1     2     0     0  1.639400579E+02  5.895979066E+01 -5.743905153E+01  2.219838826E+02  1.250000000E+02  0.00000E+00  9.000E+00
      25     1     1     2     0     0 -2.394603895E+02 -4.018360038E+01 -3.365086506E+02  4.333809776E+02  1.250000000E+02  0.00000E+00  9.000E+00
      21     1     1     2   512   502  7.552033160E+01 -1.877619028E+01  1.377208767E+02  1.581863006E+02  5.046370146E-06  0.00000E+00  9.000E+00
#rwgt            1           1   2.8173161983940289E-002           9      112640           0
</event>
<event>
      5   9999  3.79277E-02  1.10498E+01 -1.00000E+00  1.90876E-01
      21    -1     0     0   511   501  0.000000000E+00  0.000000000E+00  5.322788428E+01  5.322788428E+01  0.000000000E+00  0.00000E+00  9.000E+00
      21    -1     0     0   501   502  0.000000000E+00  0.000000000E+00 -7.346043242E+02  7.346043242E+02  0.000000000E+00  0.00000E+00  9.000E+00
      25     1     1     2     0     0 -2.860837119E+01  2.654003705E+01 -6.131103557E+02  6.269386898E+02  1.250000000E+02  0.00000E+00  9.000E+00
      25     1     1     2     0     0  3.549687431E+01 -3.517981305E+01 -6.383443374E+01  1.489881950E+02  1.250000000E+02  0.00000E+00  9.000E+00
      21     1     1     2   511   502 -6.888503120E+00  8.639775998E+00 -4.431650421E+00  1.190532360E+01  5.960464478E-08  0.00000E+00  9.000E+00
#rwgt            1           1   4.8849026756467323E-002           9      112749           0
</event>
<event>
      5   9999  3.79277E-02  1.55237E+02 -1.00000E+00  1.15806E-01
      21    -1     0     0   502   501  0.000000000E+00  0.000000000E+00  1.439318865E+03  1.439318865E+03  0.000000000E+00  0.00000E+00  9.000E+00
      21    -1     0     0   512   502  0.000000000E+00  0.000000000E+00 -1.299329570E+02  1.299329570E+02  0.000000000E+00  0.00000E+00  9.000E+00
      25     1     1     2     0     0  1.178710323E+02 -2.495405704E+02  4.688886258E+02  5.582522906E+02  1.250000000E+02  0.00000E+00  9.000E+00
      25     1     1     2     0     0 -3.289968276E+01  3.794575170E+02  6.669810979E+02  7.781768316E+02  1.250000000E+02  0.00000E+00  9.000E+00
      21     1     1     2   512   501 -8.497134959E+01 -1.299169466E+02  1.735161840E+02  2.328226994E+02  3.303624740E-06  0.00000E+00  9.000E+00
#rwgt            1           1  0.26722662520635332                9      113025           0
</event>
<event>
      5   9999  3.79277E-02  5.77675E+01 -1.00000E+00  1.35589E-01
       2    -1     0     0   502     0  0.000000000E+00  0.000000000E+00  1.544874233E+03  1.544874233E+03  0.000000000E+00  0.00000E+00  9.000E+00
      21    -1     0     0   501   502  0.000000000E+00  0.000000000E+00 -8.755132559E+01  8.755132559E+01  0.000000000E+00  0.00000E+00  9.000E+00
      25     1     1     2     0     0  1.793559826E+01  1.301224305E+01 -2.756203049E+01  1.299063881E+02  1.250000000E+02  0.00000E+00  9.000E+00
      25     1     1     2     0     0 -6.011130873E+01 -5.248743216E+01  7.013604136E+02  7.168680002E+02  1.250000000E+02  0.00000E+00  9.000E+00
       2     1     1     2   501     0  4.217571047E+01  3.947518911E+01  7.835245248E+02  7.856511707E+02  1.525878906E-05  0.00000E+00  9.000E+00
#rwgt            1           1   4.4590562850306915E-002           9      113141           0
</event>
<event>
      5   9999  3.79277E-02  8.21697E+00 -1.00000E+00  2.06163E-01
      21    -1     0     0   502   501  0.000000000E+00  0.000000000E+00  6.191725782E+02  6.191725782E+02  0.000000000E+00  0.00000E+00  9.000E+00
      21    -1     0     0   511   502  0.000000000E+00  0.000000000E+00 -7.005190263E+01  7.005190263E+01  0.000000000E+00  0.00000E+00  9.000E+00
      25     1     1     2     0     0 -1.266698831E+02  3.803192137E+01  3.657790607E+02  4.085474361E+02  1.250000000E+02  0.00000E+00  9.000E+00
      25     1     1     2     0     0  1.188735255E+02 -4.062719238E+01  1.968470362E+02  2.648683437E+02  1.250000000E+02  0.00000E+00  9.000E+00
      21     1     1     2   511   501  7.796357616E+00  2.595271010E+00 -1.350542132E+01  1.580870104E+01  4.129530925E-07  0.00000E+00  9.000E+00
#rwgt            1           1   2.5079726014530412E-002           9      113248           0
</event>
<event>
      5   9999  3.79277E-02  2.85333E+01 -1.00000E+00  1.54567E-01
      21    -1     0     0   502   501  0.000000000E+00  0.000000000E+00  5.133281676E+02  5.133281676E+02  0.000000000E+00  0.00000E+00  9.000E+00
       1    -1     0     0   501     0  0.000000000E+00  0.000000000E+00 -6.831463332E+01  6.831463332E+01  0.000000000E+00  0.00000E+00  9.000E+00
      25     1     1     2     0     0 -5.484940832E+01  6.377281471E+01  7.706663427E+01  1.692326671E+02  1.250000000E+02  0.00000E+00  9.000E+00
      25     1     1     2     0     0  7.794058562E+01 -4.701130648E+01  2.788113553E+02  3.188190234E+02  1.250000000E+02  0.00000E+00  9.000E+00
       1     1     1     2   502     0 -2.309117729E+01 -1.676150822E+01  8.913554470E+01  9.359111045E+01  0.000000000E+00  0.00000E+00  9.000E+00
#rwgt            1           1   4.9338355916996521E-002           9      113721           0
</event>
<event>
      5   9999  3.79277E-02  1.13915E+02 -1.00000E+00  1.21335E-01
      21    -1     0     0   511   501  0.000000000E+00  0.000000000E+00  2.775945611E+02  2.775945611E+02  0.000000000E+00  0.00000E+00  9.000E+00
      21    -1     0     0   501   502  0.000000000E+00  0.000000000E+00 -1.006645206E+03  1.006645206E+03  0.000000000E+00  0.00000E+00  9.000E+00
      25     1     1     2     0     0  4.791196053E+00  2.438432542E+02 -4.539477891E+02  5.302603921E+02  1.250000000E+02  0.00000E+00  9.000E+00
      25     1     1     2     0     0 -6.029882832E+01 -1.443671237E+02 -4.796917868E+02  5.198144144E+02  1.250000000E+02  0.00000E+00  9.000E+00
      21     1     1     2   511   502  5.550763227E+01 -9.947613055E+01  2.045889313E+02  2.341649602E+02  2.697398305E-06  0.00000E+00  9.000E+00
#rwgt            2          11   4.0545529241561252E-003           9      113917           0
</event>
<event>
      5   9999  3.79277E-02  1.86686E+01 -1.00000E+00  1.68876E-01
      21    -1     0     0   502   501  0.000000000E+00  0.000000000E+00  3.935063169E+01  3.935063169E+01  0.000000000E+00  0.00000E+00  9.000E+00
      21    -1     0     0   512   502  0.000000000E+00  0.000000000E+00 -1.121838588E+03  1.121838588E+03  0.000000000E+00  0.00000E+00  9.000E+00
      25     1     1     2     0     0  1.095482446E+02  1.003424880E+02 -4.048093942E+02  4.489599964E+02  1.250000000E+02  0.00000E+00  9.000E+00
      25     1     1     2     0     0 -1.017510438E+02 -8.338017945E+01 -4.716336383E+02  5.053402992E+02  1.250000000E+02  0.00000E+00  9.000E+00
      21     1     1     2   512   501 -7.797200790E+00 -1.696230859E+01 -2.060449241E+02  2.068889243E+02  3.814697266E-06  0.00000E+00  9.000E+00
#rwgt            1           1   5.0605769792425710E-002           9      114042           0
</event>
<event>
      5   9999 -3.79277E-02  1.89373E+01 -1.00000E+00  1.68350E-01
      21    -1     0     0   511   501  0.000000000E+00  0.000000000E+00  1.414761309E+02  1.414761309E+02  0.000000000E+00  0.00000E+00  9.000E+00
      21    -1     0     0   501   502  0.000000000E+00  0.000000000E+00 -9.751131767E+02  9.751131767E+02  0.000000000E+00  0.00000E+00  9.000E+00
      25     1     1     2     0     0  1.411693925E+02 -2.228651999E+02 -7.194373641E+02  7.764102109E+02  1.250000000E+02  0.00000E+00  9.000E+00
      25     1     1     2     0     0 -1.237063018E+02  2.301905268E+02 -1.280455246E+02  3.167200405E+02  1.250000000E+02  0.00000E+00  9.000E+00
      21     1     1     2   511   502 -1.746309075E+01 -7.325326922E+00  1.384584291E+01  2.345905623E+01  2.384185791E-07  0.00000E+00  9.000E+00
#rwgt            1           1  -1.0485766978717956E-002           9      114220           0
</event>
<event>
      5   9999  3.79277E-02  3.13358E+01 -1.00000E+00  1.51737E-01
      21    -1     0     0   512   501  0.000000000E+00  0.000000000E+00  1.581800526E+02  1.581800526E+02  0.000000000E+00  0.00000E+00  9.000E+00
      21    -1     0     0   501   502  0.000000000E+00  0.000000000E+00 -6.141204154E+02  6.141204154E+02  0.000000000E+00  0.00000E+00  9.000E+00
      25     1     1     2     0     0  9.904413797E+01  1.442051037E+00  4.030966291E+01  1.645043759E+02  1.250000000E+02  0.00000E+00  9.000E+00
      25     1     1     2     0     0 -9.134868103E+01  2.893408969E+01 -5.351492078E+02  5.578453528E+02  1.250000000E+02  0.00000E+00  9.000E+00
      21     1     1     2   512   502 -7.695456938E+00 -3.037614073E+01  3.889918208E+01  4.995073923E+01  1.168007728E-06  0.00000E+00  9.000E+00
#rwgt            1           1   4.5950102515495694E-002           9      114400           0
</event>
<event>
      5   9999  3.79277E-02  1.30688E+02 -1.00000E+00  1.18816E-01
      21    -1     0     0   502   501  0.000000000E+00  0.000000000E+00  7.258616470E+01  7.258616470E+01  0.000000000E+00  0.00000E+00  9.000E+00
      21    -1     0     0   501   511  0.000000000E+00  0.000000000E+00 -2.387127587E+03  2.387127587E+03  0.000000000E+00  0.00000E+00  9.000E+00
      25     1     1     2     0     0 -5.343597146E+01 -4.237022994E+01 -4.081868386E+02  4.323102297E+02  1.250000000E+02  0.00000E+00  9.000E+00
      25     1     1     2     0     0 -4.785471207E+01 -4.020970977E+01 -2.556083715E+01  1.420748064E+02  1.250000000E+02  0.00000E+00  9.000E+00
      21     1     1     2   502   511  1.012906835E+02  8.257993970E+01 -1.880793746E+03  1.885328715E+03  3.051757812E-05  0.00000E+00  9.000E+00
#rwgt            1           1   4.1747586027186097E-002           9      114667           0
</event>
<event>
      5   9999  3.79277E-02  9.21237E+01 -1.00000E+00  1.25452E-01
      21    -1     0     0   502   501  0.000000000E+00  0.000000000E+00  3.268460931E+02  3.268460931E+02  0.000000000E+00  0.00000E+00  9.000E+00
      21    -1     0     0   501   512  0.000000000E+00  0.000000000E+00 -1.143771248E+03  1.143771248E+03  0.000000000E+00  0.00000E+00  9.000E+00
      25     1     1     2     0     0  4.746363645E+01 -4.616448108E+02 -3.501528351E+02  5.946433688E+02  1.250000000E+02  0.00000E+00  9.000E+00
      25     1     1     2     0     0  1.781642363E+01  3.966425162E+02 -1.672033159E+01  4.165900624E+02  1.250000000E+02  0.00000E+00  9.000E+00
      21     1     1     2   502   512 -6.528006008E+01  6.500229459E+01 -4.500519881E+02  4.593839097E+02  0.000000000E+00  0.00000E+00  9.000E+00
#rwgt            1           1  0.16083402990138554                9      114816           0
</event>
<event>
      5   9999  3.79277E-02  1.21023E+02 -1.00000E+00  1.20212E-01
      21    -1     0     0   502   501  0.000000000E+00  0.000000000E+00  9.277077568E+02  9.277077568E+02  0.000000000E+00  0.00000E+00  9.000E+00
       2    -1     0     0   501     0  0.000000000E+00  0.000000000E+00 -3.375084004E+02  3.375084004E+02  0.000000000E+00  0.00000E+00  9.000E+00
      25     1     1     2     0     0  1.527839382E+02  2.294910618E+02  5.961462075E+02  6.685988184E+02  1.250000000E+02  0.00000E+00  9.000E+00
      25     1     1     2     0     0 -8.037058258E+01 -1.325220670E+02  2.463729349E+02  3.167746073E+02  1.250000000E+02  0.00000E+00  9.000E+00
       2     1     1     2   502     0 -7.241335565E+01 -9.696899485E+01 -2.523197859E+02  2.798427315E+02  4.672030912E-06  0.00000E+00  9.000E+00
#rwgt            2          13   2.9664827231730098E-004           9      114982           0
</event>
<event>
      5   9999  3.79277E-02  1.06676E+01 -1.00000E+00  1.92568E-01
      21    -1     0     0   502   501  0.000000000E+00  0.000000000E+00  2.683221002E+02  2.683221002E+02  0.000000000E+00  0.00000E+00  9.000E+00
      21    -1     0     0   511   502  0.000000000E+00  0.000000000E+00 -1.910214041E+02  1.910214041E+02  0.000000000E+00  0.00000E+00  9.000E+00
      25     1     1     2     0     0  7.919622060E+01 -9.429056491E+01  1.545783489E+02  2.338422929E+02  1.250000000E+02  0.00000E+00  9.000E+00
      25     1     1     2     0     0 -8.705265674E+01  8.707428664E+01 -3.120553836E+01  1.782102187E+02  1.250000000E+02  0.00000E+00  9.000E+00
      21     1     1     2   511   501  7.856436138E+00  7.216278276E+00 -4.607211448E+01  4.729099274E+01  6.743495762E-07  0.00000E+00  9.000E+00
#rwgt            1           1   3.4770495769059127E-002           9      115076           0
</event>
<event>
      5   9999  3.79277E-02  1.49901E+01 -1.00000E+00  1.77411E-01
      21    -1     0     0   502   501  0.000000000E+00  0.000000000E+00  8.310007841E+01  8.310007841E+01  0.000000000E+00  0.00000E+00  9.000E+00
       2    -1     0     0   501     0  0.000000000E+00  0.000000000E+00 -7.262826270E+02  7.262826270E+02  0.000000000E+00  0.00000E+00  9.000E+00
      25     1     1     2     0     0  1.960866489E+01 -1.495653571E+02 -1.651805108E+02  2.562496769E+02  1.250000000E+02  0.00000E+00  9.000E+00
      25     1     1     2     0     0 -4.638460621E+00  1.503368227E+02 -2.186658968E+02  2.933640230E+02  1.250000000E+02  0.00000E+00  9.000E+00
       2     1     1     2   502     0 -1.497020427E+01 -7.714656586E-01 -2.593361410E+02  2.597690055E+02  3.814697266E-06  0.00000E+00  9.000E+00
#rwgt            1           1   2.8299729050778339E-002           9      115352           0
</event>
<event>
      5   9999  3.79277E-02  6.77451E+01 -1.00000E+00  1.31945E-01
      21    -1     0     0   502   501  0.000000000E+00  0.000000000E+00  7.491529413E+02  7.491529413E+02  0.000000000E+00  0.00000E+00  9.000E+00
      21    -1     0     0   511   502  0.000000000E+00  0.000000000E+00 -6.276854188E+01  6.276854188E+01  0.000000000E+00  0.00000E+00  9.000E+00
      25     1     1     2     0     0 -1.339200074E+02  2.118233408E+01  4.438880769E+02  4.806712853E+02  1.250000000E+02  0.00000E+00  9.000E+00
      25     1     1     2     0     0  7.502934439E+01 -5.466799916E+01  1.893519719E+02  2.451472250E+02  1.250000000E+02  0.00000E+00  9.000E+00
      21     1     1     2   511   501  5.889066297E+01  3.348566508E+01  5.314435064E+01  8.610297298E+01  9.536743164E-07  0.00000E+00  9.000E+00
#rwgt            1           1   3.2683536131609577E-002           9      115493           0
</event>
<event>
      5   9999  3.79277E-02  1.27859E+02 -1.00000E+00  1.19210E-01
      21    -1     0     0   502   501  0.000000000E+00  0.000000000E+00  2.973329121E+02  2.973329121E+02  0.000000000E+00  0.00000E+00  9.000E+00
      21    -1     0     0   512   502  0.000000000E+00  0.000000000E+00 -4.135701682E+02  4.135701682E+02  0.000000000E+00  0.00000E+00  9.000E+00
      25     1     1     2     0     0 -5.889210767E+01 -3.651014605E+01 -2.438629419E+02  2.826577534E+02  1.250000000E+02  0.00000E+00  9.000E+00
      25     1     1     2     0     0 -6.871178759E+01  4.457615048E+01  2.232022445E+02  2.686123320E+02  1.250000000E+02  0.00000E+00  9.000E+00
      21     1     1     2   512   501  1.276038953E+02 -8.066004426E+00 -9.557655870E+01  1.596329950E+02  2.336015456E-06  0.00000E+00  9.000E+00
#rwgt            1           1   5.2230605045707756E-002           9      115580           0
</event>
<event>
      5   9999 -3.79277E-02  9.46591E+01 -1.00000E+00  1.24910E-01
      21    -1     0     0   502   501  0.000000000E+00  0.000000000E+00  7.049538360E+01  7.049538360E+01  0.000000000E+00  0.00000E+00  9.000E+00
       1    -1     0     0   501     0  0.000000000E+00  0.000000000E+00 -1.626820012E+03  1.626820012E+03  0.000000000E+00  0.00000E+00  9.000E+00
      25     1     1     2     0     0 -1.390898982E+01  1.602334006E+02 -3.038520953E+02  3.658132016E+02  1.250000000E+02  0.00000E+00  9.000E+00
      25     1     1     2     0     0  1.074292662E+02 -1.748721780E+02 -3.528114396E+02  4.268749674E+02  1.250000000E+02  0.00000E+00  9.000E+00
       1     1     1     2   502     0 -9.352027640E+01  1.463877732E+01 -8.996610932E+02  9.046272263E+02  1.078959322E-05  0.00000E+00  9.000E+00
#rwgt            1           1  -6.8516967250254066E-002           9      115689           0
</event>
<event>
      5   9999  3.79277E-02  2.45963E+01 -1.00000E+00  1.59282E-01
      21    -1     0     0   502   511  0.000000000E+00  0.000000000E+00  1.191868317E+02  1.191868317E+02  0.000000000E+00  0.00000E+00  9.000E+00
      21    -1     0     0   501   502  0.000000000E+00  0.000000000E+00 -3.321836157E+02  3.321836157E+02  0.000000000E+00  0.00000E+00  9.000E+00
      25     1     1     2     0     0  5.228992797E+01 -6.478094939E+01  1.010348299E+01  1.505253744E+02  1.250000000E+02  0.00000E+00  9.000E+00
      25     1     1     2     0     0 -3.124247023E+01  7.750823191E+01 -2.304580452E+02  2.751718164E+02  1.250000000E+02  0.00000E+00  9.000E+00
      21     1     1     2   501   511 -2.104745774E+01 -1.272728252E+01  7.357778266E+00  2.567325649E+01  3.371747881E-07  0.00000E+00  9.000E+00
#rwgt            1           1   5.0822610806990548E-002           9      115771           0
</event>
<event>
      5   9999  3.79277E-02  8.74745E+01 -1.00000E+00  1.26500E-01
      21    -1     0     0   502   501  0.000000000E+00  0.000000000E+00  2.277061776E+02  2.277061776E+02  0.000000000E+00  0.00000E+00  9.000E+00
      21    -1     0     0   512   502  0.000000000E+00  0.000000000E+00 -2.853152826E+02  2.853152826E+02  0.000000000E+00  0.00000E+00  9.000E+00
      25     1     1     2     0     0  5.852687588E+01  3.546442957E+01 -1.479642273E+02  2.054301184E+02  1.250000000E+02  0.00000E+00  9.000E+00
      25     1     1     2     0     0 -1.194751965E+02  2.728173976E+01  1.233007280E+02  2.141183912E+02  1.250000000E+02  0.00000E+00  9.000E+00
      21     1     1     2   512   501  6.094832065E+01 -6.274616932E+01 -3.294560567E+01  9.347295057E+01  2.236564522E-06  0.00000E+00  9.000E+00
#rwgt            1           1   4.2441709640814035E-002           9      116118           0
</event>
<event>
      5   9999  3.79277E-02  3.56591E+02 -1.00000E+00  1.03210E-01
      21    -1     0     0   511   501  0.000000000E+00  0.000000000E+00  1.391676122E+03  1.391676122E+03  0.000000000E+00  0.00000E+00  9.000E+00
      21    -1     0     0   501   502  0.000000000E+00  0.000000000E+00 -2.376001718E+02  2.376001718E+02  0.000000000E+00  0.00000E+00  9.000E+00
      25     1     1     2     0     0 -1.838812737E+02  4.157871130E+02  5.712080019E+02  7.406718758E+02  1.250000000E+02  0.00000E+00  9.000E+00
      25     1     1     2     0     0 -1.144283407E+00 -1.109551829E+02 -3.910784139E+01  1.716589213E+02  1.250000000E+02  0.00000E+00  9.000E+00
      21     1     1     2   511   502  1.850255571E+02 -3.048319301E+02  6.219757896E+02  7.169454968E+02  0.000000000E+00  0.00000E+00  9.000E+00
#rwgt            2          11   6.4890693027064468E-004           9      116290           0
</event>
<event>
      5   9999  3.79277E-02  3.61004E+01 -1.00000E+00  1.47658E-01
      21    -1     0     0   502   501  0.000000000E+00  0.000000000E+00  4.347730238E+02  4.347730238E+02  0.000000000E+00  0.00000E+00  9.000E+00
      21    -1     0     0   512   502  0.000000000E+00  0.000000000E+00 -3.104642757E+02  3.104642757E+02  0.000000000E+00  0.00000E+00  9.000E+00
      25     1     1     2     0     0  1.776020281E+02  7.181503039E+01  1.950752510E+02  3.006313898E+02  1.250000000E+02  0.00000E+00  9.000E+00
      25     1     1     2     0     0 -1.968317206E+02 -1.023675557E+02  9.737476265E+01  2.726328797E+02  1.250000000E+02  0.00000E+00  9.000E+00
      21     1     1     2   512   501  1.922969247E+01  3.055252530E+01 -1.681412656E+02  1.719730301E+02  0.000000000E+00  0.00000E+00  9.000E+00
#rwgt            1           1   3.3775529326859809E-002           9      116430           0
</event>
<event>
      5   9999  3.79277E-02  1.90661E+01 -1.00000E+00  1.68101E-01
      21    -1     0     0   502   511  0.000000000E+00  0.000000000E+00  1.443965858E+02  1.443965858E+02  0.000000000E+00  0.00000E+00  9.000E+00
      21    -1     0     0   501   502  0.000000000E+00  0.000000000E+00 -4.852790829E+02  4.852790829E+02  0.000000000E+00  0.00000E+00  9.000E+00
      25     1     1     2     0     0 -4.955019933E+01  4.887116456E+01 -4.213739474E+02  4.449995691E+02  1.250000000E+02  0.00000E+00  9.000E+00
      25     1     1     2     0     0  4.085276069E+01 -6.583797423E+01  6.940708849E+01  1.626220491E+02  1.250000000E+02  0.00000E+00  9.000E+00
      21     1     1     2   501   511  8.697438644E+00  1.696680966E+01  1.108436172E+01  2.205405051E+01  2.665600750E-07  0.00000E+00  9.000E+00
#rwgt            1           1   3.3287609192854929E-002           9      116637           0
</event>
<event>
      5   9999  3.79277E-02  2.15786E+01 -1.00000E+00  1.63692E-01
      -3    -1     0     0     0   501  0.000000000E+00  0.000000000E+00  5.197863141E+02  5.197863141E+02  0.000000000E+00  0.00000E+00  9.000E+00
      21    -1     0     0   501   502  0.000000000E+00  0.000000000E+00 -3.393682696E+02  3.393682696E+02  0.000000000E+00  0.00000E+00  9.000E+00
      25     1     1     2     0     0  3.403628743E+01  2.098673395E+02  5.903693166E+01  2.536003319E+02  1.250000000E+02  0.00000E+00  9.000E+00
      25     1     1     2     0     0 -3.789292336E+01 -1.886362208E+02 -1.872597723E+02  2.961599564E+02  1.250000000E+02  0.00000E+00  9.000E+00
      -3     1     1     2     0   502  3.856635930E+00 -2.123111868E+01  3.086408852E+02  3.093942955E+02  0.000000000E+00  0.00000E+00  9.000E+00
#rwgt            1           1   3.5178891403126702E-002           9      116813           0
</event>
<event>
      5   9999  3.79277E-02  5.31420E+01 -1.00000E+00  1.37582E-01
      21    -1     0     0   511   501  0.000000000E+00  0.000000000E+00  3.095858367E+02  3.095858367E+02  0.000000000E+00  0.00000E+00  9.000E+00
      21    -1     0     0   501   502  0.000000000E+00  0.000000000E+00 -8.055831720E+02  8.055831720E+02  0.000000000E+00  0.00000E+00  9.000E+00
      25     1     1     2     0     0 -3.094553230E+01  1.429819253E+02 -4.008365524E+02  4.446306317E+02  1.250000000E+02  0.00000E+00  9.000E+00
      25     1     1     2     0     0  3.899175716E+01 -1.955112117E+02 -3.436159125E+02  4.164635474E+02  1.250000000E+02  0.00000E+00  9.000E+00
      21     1     1     2   511   502 -8.046224866E+00  5.252928639E+01  2.484551295E+02  2.540748296E+02  2.697398305E-06  0.00000E+00  9.000E+00
#rwgt            1           1  0.13561553026072484                9      117041           0
</event>
<event>
      5   9999  3.79277E-02  1.12809E+02 -1.00000E+00  1.21518E-01
      21    -1     0     0   502   501  0.000000000E+00  0.000000000E+00  1.729957266E+02  1.729957266E+02  0.000000000E+00  0.00000E+00  9.000E+00
      21    -1     0     0   501   512  0.000000000E+00  0.000000000E+00 -7.449689019E+02  7.449689019E+02  0.000000000E+00  0.00000E+00  9.000E+00
      25     1     1     2     0     0 -2.257433415E+01 -1.728358167E+02  4.425104108E+01  2.190090745E+02  1.250000000E+02  0.00000E+00  9.000E+00
      25     1     1     2     0     0 -8.843464795E+01  1.527617414E+02 -4.270316637E+02  4.786834845E+02  1.250000000E+02  0.00000E+00  9.000E+00
      21     1     1     2   502   512  1.110089821E+02  2.007407527E+01 -1.891925527E+02  2.202720695E+02  2.697398305E-06  0.00000E+00  9.000E+00
#rwgt            1           1   4.2920259141336299E-002           9      117166           0
</event>
<event>
      5   9999  3.79277E-02  4.66116E+01 -1.00000E+00  1.40837E-01
      21    -1     0     0   502   501  0.000000000E+00  0.000000000E+00  2.538219370E+02  2.538219370E+02  0.000000000E+00  0.00000E+00  9.000E+00
      21    -1     0     0   501   511  0.000000000E+00  0.000000000E+00 -6.080892431E+02  6.080892431E+02  0.000000000E+00  0.00000E+00  9.000E+00
      25     1     1     2     0     0 -2.897695772E+02  1.304892670E+02 -1.185088230E+02  3.614736475E+02  1.250000000E+02  0.00000E+00  9.000E+00
      25     1     1     2     0     0  3.262691315E+02 -1.594792973E+02 -1.704330411E+02  4.201875938E+02  1.250000000E+02  0.00000E+00  9.000E+00
      21     1     1     2   502   511 -3.649955433E+01  2.899003033E+01 -6.532544199E+01  8.024993892E+01  9.536743164E-07  0.00000E+00  9.000E+00
#rwgt            2          11   3.3795928126960292E-003           9      117218           0
</event>
<event>
      5   9999 -3.79277E-02  2.63997E+01 -1.00000E+00  1.56999E-01
      21    -1     0     0   502   512  0.000000000E+00  0.000000000E+00  1.246832038E+02  1.246832038E+02  0.000000000E+00  0.00000E+00  9.000E+00
      21    -1     0     0   501   502  0.000000000E+00  0.000000000E+00 -7.093296318E+02  7.093296318E+02  0.000000000E+00  0.00000E+00  9.000E+00
      25     1     1     2     0     0  1.055923373E+01 -2.555616577E+02 -2.031731628E+02  3.497536167E+02  1.250000000E+02  0.00000E+00  9.000E+00
      25     1     1     2     0     0 -8.768230692E+00  2.292227680E+02 -3.750933681E+02  4.570995450E+02  1.250000000E+02  0.00000E+00  9.000E+00
      21     1     1     2   501   512 -1.791003036E+00  2.633888966E+01 -6.379897069E+00  2.715967391E+01  2.384185791E-07  0.00000E+00  9.000E+00
#rwgt            1           1  -5.0955041904619740E-002           9      117238           0
</event>
<event>
      5   9999  3.79277E-02  2.30985E+02 -1.00000E+00  1.09417E-01
      21    -1     0     0   511   501  0.000000000E+00  0.000000000E+00  6.147982450E+02  6.147982450E+02  0.000000000E+00  0.00000E+00  9.000E+00
      21    -1     0     0   501   502  0.000000000E+00  0.000000000E+00 -2.924521699E+02  2.924521699E+02  0.000000000E+00  0.00000E+00  9.000E+00
      25     1     1     2     0     0  7.749657860E+01 -6.286496557E+01 -9.732624359E+01  1.872301292E+02  1.250000000E+02  0.00000E+00  9.000E+00
      25     1     1     2     0     0 -1.809990264E+02  2.693630202E+02  3.029596232E+02  4.612229586E+02  1.250000000E+02  0.00000E+00  9.000E+00
      21     1     1     2   511   502  1.035024478E+02 -2.064980546E+02  1.167126955E+02  2.587973272E+02  1.348699152E-06  0.00000E+00  9.000E+00
#rwgt            2          11   1.8146074851684677E-003           9      117455           0
</event>
<event>
      5   9999  3.79277E-02  3.32017E+01 -1.00000E+00  1.50043E-01
       2    -1     0     0   502     0  0.000000000E+00  0.000000000E+00  2.184014838E+03  2.184014838E+03  0.000000000E+00  0.00000E+00  9.000E+00
      21    -1     0     0   501   502  0.000000000E+00  0.000000000E+00 -1.586444805E+03  1.586444805E+03  0.000000000E+00  0.00000E+00  9.000E+00
      25     1     1     2     0     0 -1.291003520E+02  1.640228826E+02 -1.129780242E+03  1.155681099E+03  1.250000000E+02  0.00000E+00  9.000E+00
      25     1     1     2     0     0  1.605301296E+02 -1.747244166E+02 -4.030493838E+02  4.841201814E+02  1.250000000E+02  0.00000E+00  9.000E+00
       2     1     1     2   501     0 -3.142977760E+01  1.070153405E+01  2.130399658E+03  2.130658363E+03  0.000000000E+00  0.00000E+00  9.000E+00
#rwgt            1           1   3.5134523566892673E-002           9      117520           0
</event>
<event>
      5   9999  3.79277E-02  2.27787E+01 -1.00000E+00  1.61838E-01
      21    -1     0     0   502   501  0.000000000E+00  0.000000000E+00  7.857548031E+02  7.857548031E+02  0.000000000E+00  0.00000E+00  9.000E+00
      21    -1     0     0   511   502  0.000000000E+00  0.000000000E+00 -1.144109248E+02  1.144109248E+02  0.000000000E+00  0.00000E+00  9.000E+00
      25     1     1     2     0     0  3.758012759E+01 -5.090913803E+01 -1.320351597E+01  1.407243375E+02  1.250000000E+02  0.00000E+00  9.000E+00
      25     1     1     2     0     0 -5.851432527E+01  4.192976562E+01  7.104511684E+02  7.249468216E+02  1.250000000E+02  0.00000E+00  9.000E+00
      21     1     1     2   511   501  2.093419768E+01  8.979372412E+00 -2.590377409E+01  3.449456875E+01  1.261592536E-06  0.00000E+00  9.000E+00
#rwgt            1           1   3.8333340859865582E-002           9      117623           0
</event>
<event>
      5   9999  3.79277E-02  6.93255E+01 -1.00000E+00  1.31434E-01
      21    -1     0     0   502   512  0.000000000E+00  0.000000000E+00  2.114620055E+03  2.114620055E+03  0.000000000E+00  0.00000E+00  9.000E+00
      21    -1     0     0   501   502  0.000000000E+00  0.000000000E+00 -7.755374011E+01  7.755374011E+01  0.000000000E+00  0.00000E+00  9.000E+00
      25     1     1     2     0     0 -7.184614025E+01  1.692946710E+02  2.572034185E+02  3.400016941E+02  1.250000000E+02  0.00000E+00  9.000E+00
      25     1     1     2     0     0  9.044020907E+01 -1.025092748E+02  2.069905000E+02  2.777726587E+02  1.250000000E+02  0.00000E+00  9.000E+00
      21     1     1     2   501   512 -1.859406882E+01 -6.678539622E+01  1.572872396E+03  1.574399442E+03  2.157918644E-05  0.00000E+00  9.000E+00
#rwgt            1           1   4.4011679147604614E-002           9      117763           0
</event>
<event>
      5   9999  3.79277E-02  7.30726E+01 -1.00000E+00  1.30283E-01
      21    -1     0     0   502   511  0.000000000E+00  0.000000000E+00  1.009563190E+03  1.009563190E+03  0.000000000E+00  0.00000E+00  9.000E+00
      21    -1     0     0   501   502  0.000000000E+00  0.000000000E+00 -2.005717312E+02  2.005717312E+02  0.000000000E+00  0.00000E+00  9.000E+00
      25     1     1     2     0     0  3.437419415E+00  5.160312811E+01  1.143784068E+02  1.771499891E+02  1.250000000E+02  0.00000E+00  9.000E+00
      25     1     1     2     0     0 -6.255072899E+01 -9.455909100E+01 -1.250699886E+02  2.100512257E+02  1.250000000E+02  0.00000E+00  9.000E+00
      21     1     1     2   501   511  5.911330957E+01  4.295596289E+01  8.196830408E+02  8.229337067E+02  1.078959322E-05  0.00000E+00  9.000E+00
#rwgt            1           1   4.1839490289783753E-002           9      117943           0
</event>
<event>
      5   9999  3.79277E-02  1.91051E+01 -1.00000E+00  1.68026E-01
      21    -1     0     0   502   501  0.000000000E+00  0.000000000E+00  3.163032311E+02  3.163032311E+02  0.000000000E+00  0.00000E+00  9.000E+00
      21    -1     0     0   501   512  0.000000000E+00  0.000000000E+00 -1.652282503E+02  1.652282503E+02  0.000000000E+00  0.00000E+00  9.000E+00
      25     1     1     2     0     0  5.810687991E+01 -1.765299419E+02  6.604021280E+01  2.335070439E+02  1.250000000E+02  0.00000E+00  9.000E+00
      25     1     1     2     0     0 -4.366277159E+01  1.640250920E+02  8.847499841E+01  2.286121033E+02  1.250000000E+02  0.00000E+00  9.000E+00
      21     1     1     2   502   512 -1.444410832E+01  1.250484990E+01 -3.440230387E+00  1.941233425E+01  3.291774099E-07  0.00000E+00  9.000E+00
#rwgt            1           1   5.1805743465774816E-002           9      118105           0
</event>
<event>
      5   9999  3.79277E-02  2.21476E+01 -1.00000E+00  1.62795E-01
      21    -1     0     0   511   501  0.000000000E+00  0.000000000E+00  1.338968849E+02  1.338968849E+02  0.000000000E+00  0.00000E+00  9.000E+00
      21    -1     0     0   501   502  0.000000000E+00  0.000000000E+00 -6.064875593E+02  6.064875593E+02  0.000000000E+00  0.00000E+00  9.000E+00
      25     1     1     2     0     0  1.170517071E+02  1.065036403E+02 -3.958835919E+01  2.055148795E+02  1.250000000E+02  0.00000E+00  9.000E+00
      25     1     1     2     0     0 -9.499773751E+01 -1.085376293E+02 -4.611294082E+02  4.990694523E+02  1.250000000E+02  0.00000E+00  9.000E+00
      21     1     1     2   511   502 -2.205396958E+01  2.033988986E+00  2.812709303E+01  3.580011240E+01  3.371747881E-07  0.00000E+00  9.000E+00
#rwgt            1           1   3.0271015489061859E-002           9      118317           0
</event>
<event>
      5   9999 -3.79277E-02  6.95906E+01 -1.00000E+00  1.31350E-01
      21    -1     0     0   512   501  0.000000000E+00  0.000000000E+00  2.183086573E+02  2.183086573E+02  0.000000000E+00  0.00000E+00  9.000E+00
      21    -1     0     0   501   502  0.000000000E+00  0.000000000E+00 -1.117861508E+03  1.117861508E+03  0.000000000E+00  0.00000E+00  9.000E+00
      25     1     1     2     0     0  3.739765873E+01 -7.896420621E+01 -1.716457175E+02  2.296109385E+02  1.250000000E+02  0.00000E+00  9.000E+00
      25     1     1     2     0     0 -8.736741079E+01  1.273984202E+02 -8.996067220E+02  9.212929373E+02  1.250000000E+02  0.00000E+00  9.000E+00
      21     1     1     2   512   502  4.996975205E+01 -4.843421397E+01  1.716995889E+02  1.852662895E+02  0.000000000E+00  0.00000E+00  9.000E+00
#rwgt            1           1 -0.10311473301733645                9      118733           0
</event>
<event>
      5   9999  3.79277E-02  3.42144E+01 -1.00000E+00  1.49178E-01
      21    -1     0     0   502   501  0.000000000E+00  0.000000000E+00  5.980342582E+02  5.980342582E+02  0.000000000E+00  0.00000E+00  9.000E+00
      21    -1     0     0   501   511  0.000000000E+00  0.000000000E+00 -1.667972287E+02  1.667972287E+02  0.000000000E+00  0.00000E+00  9.000E+00
      25     1     1     2     0     0  3.264840010E+01 -1.743769731E+02  3.062363584E+02  3.753384526E+02  1.250000000E+02  0.00000E+00  9.000E+00
      25     1     1     2     0     0 -6.681828996E+01  1.761225537E+02  2.033035980E+02  3.040414293E+02  1.250000000E+02  0.00000E+00  9.000E+00
      21     1     1     2   502   511  3.416988986E+01 -1.745580636E+00 -7.830292695E+01  8.545160498E+01  9.536743164E-07  0.00000E+00  9.000E+00
#rwgt            1           1   4.0941715253305803E-002           9      118815           0
</event>
<event>
      5   9999  3.79277E-02  5.19816E+00 -1.00000E+00  2.35604E-01
      -4    -1     0     0     0   501  0.000000000E+00  0.000000000E+00  7.299926846E+02  7.299926846E+02  0.000000000E+00  0.00000E+00  9.000E+00
      21    -1     0     0   501   502  0.000000000E+00  0.000000000E+00 -7.990175338E+01  7.990175338E+01  0.000000000E+00  0.00000E+00  9.000E+00
      25     1     1     2     0     0 -1.195843493E+02  1.511823913E+02  2.334698236E+02  3.275510503E+02  1.250000000E+02  0.00000E+00  9.000E+00
      25     1     1     2     0     0  1.246022417E+02 -1.525394514E+02  3.839571754E+02  4.492684224E+02  1.250000000E+02  0.00000E+00  9.000E+00
      -4     1     1     2     0   502 -5.017892385E+00  1.357060087E+00  3.266393221E+01  3.307496521E+01  4.768371582E-07  0.00000E+00  9.000E+00
#rwgt            1           1   3.1438158418779331E-002           9      118998           0
</event>
<event>
      5   9999  3.79277E-02  1.45998E+02 -1.00000E+00  1.16861E-01
      21    -1     0     0   502   511  0.000000000E+00  0.000000000E+00  1.286665173E+02  1.286665173E+02  0.000000000E+00  0.00000E+00  9.000E+00
      21    -1     0     0   501   502  0.000000000E+00  0.000000000E+00 -1.294623991E+03  1.294623991E+03  0.000000000E+00  0.00000E+00  9.000E+00
      25     1     1     2     0     0 -1.596222245E+02 -4.172211765E+00 -7.963927648E+02  8.218047808E+02  1.250000000E+02  0.00000E+00  9.000E+00
      25     1     1     2     0     0  5.664551041E+01  1.076670543E+02 -4.136942988E+02  4.489642316E+02  1.250000000E+02  0.00000E+00  9.000E+00
      21     1     1     2   501   511  1.029767140E+02 -1.034948425E+02  4.412958973E+01  1.525214960E+02  3.015782986E-06  0.00000E+00  9.000E+00
#rwgt            2          11   4.5955088926445935E-003           9      119491           0
</event>
<event>
      5   9999  3.79277E-02  7.98857E+00 -1.00000E+00  2.07752E-01
      21    -1     0     0   512   501  0.000000000E+00  0.000000000E+00  6.332166190E+01  6.332166190E+01  0.000000000E+00  0.00000E+00  9.000E+00
      21    -1     0     0   501   502  0.000000000E+00  0.000000000E+00 -5.403665930E+02  5.403665930E+02  0.000000000E+00  0.00000E+00  9.000E+00
      25     1     1     2     0     0  5.727146229E+01  7.025916577E+01 -3.800000715E+02  4.101724334E+02  1.250000000E+02  0.00000E+00  9.000E+00
      25     1     1     2     0     0 -5.793731179E+01 -7.821993890E+01 -8.721608706E+01  1.808500395E+02  1.250000000E+02  0.00000E+00  9.000E+00
      21     1     1     2   512   502  6.658495077E-01  7.960773130E+00 -9.828772496E+00  1.266578198E+01  3.153981341E-07  0.00000E+00  9.000E+00
#rwgt            1           1   4.4143879488636677E-002           9      119721           0
</event>
<event>
      5   9999  3.79277E-02  3.18594E+01 -1.00000E+00  1.51248E-01
      21    -1     0     0   502   511  0.000000000E+00  0.000000000E+00  8.633998502E+02  8.633998502E+02  0.000000000E+00  0.00000E+00  9.000E+00
      21    -1     0     0   501   502  0.000000000E+00  0.000000000E+00 -5.021570497E+01  5.021570497E+01  0.000000000E+00  0.00000E+00  9.000E+00
      25     1     1     2     0     0 -1.219084068E+02  1.584148386E+01  3.538650958E+02  3.949153305E+02  1.250000000E+02  0.00000E+00  9.000E+00
      25     1     1     2     0     0  1.407997100E+02  9.812814642E+00  2.865033004E+02  3.429722887E+02  1.250000000E+02  0.00000E+00  9.000E+00
      21     1     1     2   501   511 -1.889130323E+01 -2.565429850E+01  1.728157490E+02  1.757279360E+02  1.907348633E-06  0.00000E+00  9.000E+00
#rwgt            1           1   3.7870373420862184E-002           9      120009           0
</event>
<event>
      5   9999  3.79277E-02  9.67066E+01 -1.00000E+00  1.24486E-01
      21    -1     0     0   512   501  0.000000000E+00  0.000000000E+00  2.632301693E+03  2.632301693E+03  0.000000000E+00  0.00000E+00  9.000E+00
      21    -1     0     0   501   502  0.000000000E+00  0.000000000E+00 -5.889774214E+01  5.889774214E+01  0.000000000E+00  0.00000E+00  9.000E+00
      25     1     1     2     0     0 -2.600747285E+01 -1.465462781E+02  3.820402607E+02  4.286396634E+02  1.250000000E+02  0.00000E+00  9.000E+00
      25     1     1     2     0     0  7.042522609E+01  6.064382981E+01  1.415703763E+02  2.104864794E+02  1.250000000E+02  0.00000E+00  9.000E+00
      21     1     1     2   512   502 -4.441775324E+01  8.590244827E+01  2.049793314E+03  2.052073292E+03  3.051757812E-05  0.00000E+00  9.000E+00
#rwgt            1           1   3.6549158037645517E-002           9      120135           0
</event>
<event>
      5   9999  3.79277E-02  4.40217E+01 -1.00000E+00  1.42306E-01
      21    -1     0     0   502   501  0.000000000E+00  0.000000000E+00  5.264584186E+01  5.264584186E+01  0.000000000E+00  0.00000E+00  9.000E+00
      21    -1     0     0   511   502  0.000000000E+00  0.000000000E+00 -7.783371670E+02  7.783371670E+02  0.000000000E+00  0.00000E+00  9.000E+00
      25     1     1     2     0     0 -1.058487277E+02  6.147391074E+01 -1.914999950E+02  2.593843537E+02  1.250000000E+02  0.00000E+00  9.000E+00
      25     1     1     2     0     0  6.350625831E+01 -7.351660356E+01 -3.924337278E+02  4.231630496E+02  1.250000000E+02  0.00000E+00  9.000E+00
      21     1     1     2   511   501  4.234246942E+01  1.204269282E+01 -1.417576023E+02  1.484356055E+02  2.697398305E-06  0.00000E+00  9.000E+00
#rwgt            1           1   4.1991983060006753E-002           9      120240           0
</event>
<event>
      5   9999  3.79277E-02  3.06367E+01 -1.00000E+00  1.52409E-01
      21    -1     0     0   502   501  0.000000000E+00  0.000000000E+00  7.541770613E+01  7.541770613E+01  0.000000000E+00  0.00000E+00  9.000E+00
      21    -1     0     0   501   512  0.000000000E+00  0.000000000E+00 -5.030847612E+02  5.030847612E+02  0.000000000E+00  0.00000E+00  9.000E+00
      25     1     1     2     0     0  7.152973709E-01  6.484111337E+01 -3.537361377E+02  3.807349954E+02  1.250000000E+02  0.00000E+00  9.000E+00
      25     1     1     2     0     0 -1.173564168E+01 -3.625511344E+01 -1.524487612E+01  1.315658192E+02  1.250000000E+02  0.00000E+00  9.000E+00
      21     1     1     2   502   512  1.102034431E+01 -2.858599993E+01 -5.868604130E+01  6.620165273E+01  6.743495762E-07  0.00000E+00  9.000E+00
#rwgt            1           1   4.4983709512518982E-002           9      120390           0
</event>
<event>
      5   9999  3.79277E-02  7.01284E+00 -1.00000E+00  2.15441E-01
      21    -1     0     0   511   501  0.000000000E+00  0.000000000E+00  8.448957568E+02  8.448957568E+02  0.000000000E+00  0.00000E+00  9.000E+00
      21    -1     0     0   501   502  0.000000000E+00  0.000000000E+00 -5.554676915E+01  5.554676915E+01  0.000000000E+00  0.00000E+00  9.000E+00
      25     1     1     2     0     0 -6.624151864E+01  1.291537470E+02  2.027567800E+02  2.789335781E+02  1.250000000E+02  0.00000E+00  9.000E+00
      25     1     1     2     0     0  6.684534439E+01 -1.221669538E+02  4.877091642E+02  5.223775392E+02  1.250000000E+02  0.00000E+00  9.000E+00
      21     1     1     2   511   502 -6.038257568E-01 -6.986793273E+00  9.888304344E+01  9.913140858E+01  1.348699152E-06  0.00000E+00  9.000E+00
#rwgt            1           1   5.3206593632152174E-002           9      120597           0
</event>
<event>
      5   9999  3.79277E-02  1.06811E+02 -1.00000E+00  1.22554E-01
      21    -1     0     0   502   512  0.000000000E+00  0.000000000E+00  1.119368382E+02  1.119368382E+02  0.000000000E+00  0.00000E+00  9.000E+00
      21    -1     0     0   501   502  0.000000000E+00  0.000000000E+00 -8.982747058E+02  8.982747058E+02  0.000000000E+00  0.00000E+00  9.000E+00
      25     1     1     2     0     0  3.897960631E+01 -1.400309840E+01 -7.180812783E+02  7.300556272E+02  1.250000000E+02  0.00000E+00  9.000E+00
      25     1     1     2     0     0 -6.886184461E+00 -8.787226005E+01 -8.016048742E+01  1.726836917E+02  1.250000000E+02  0.00000E+00  9.000E+00
      21     1     1     2   501   512 -3.209342185E+01  1.018753585E+02  1.190389808E+01  1.074722251E+02  1.526623782E-06  0.00000E+00  9.000E+00
#rwgt            1           1   4.3266014084462338E-002           9      120856           0
</event>
<event>
      5   9999  3.79277E-02  8.49307E+01 -1.00000E+00  1.27105E-01
      21    -1     0     0   502   501  0.000000000E+00  0.000000000E+00  4.213495206E+02  4.213495206E+02  0.000000000E+00  0.00000E+00  9.000E+00
      21    -1     0     0   511   502  0.000000000E+00  0.000000000E+00 -1.453898050E+02  1.453898050E+02  0.000000000E+00  0.00000E+00  9.000E+00
      25     1     1     2     0     0 -7.404828149E+01  1.265106335E+01  5.323016809E+00  1.459333132E+02  1.250000000E+02  0.00000E+00  9.000E+00
      25     1     1     2     0     0  1.248764073E+02  5.539099309E+01  2.796510924E+02  3.353982896E+02  1.250000000E+02  0.00000E+00  9.000E+00
      21     1     1     2   511   501 -5.082812584E+01 -6.804205644E+01 -9.014393630E+00  8.540772279E+01  1.250277577E-06  0.00000E+00  9.000E+00
#rwgt            1           1   3.1171222578163738E-002           9      120904           0
</event>
<event>
      5   9999  3.79277E-02  1.17435E+01 -1.00000E+00  1.88020E-01
      21    -1     0     0   512   501  0.000000000E+00  0.000000000E+00  2.056266734E+02  2.056266734E+02  0.000000000E+00  0.00000E+00  9.000E+00
      21    -1     0     0   501   502  0.000000000E+00  0.000000000E+00 -1.980586364E+02  1.980586364E+02  0.000000000E+00  0.00000E+00  9.000E+00
      25     1     1     2     0     0  1.223567423E+02 -9.027891306E+01 -1.083488396E+01  1.971391621E+02  1.250000000E+02  0.00000E+00  9.000E+00
      25     1     1     2     0     0 -1.107134710E+02  8.874766541E+01  5.613253999E+00  1.891827936E+02  1.250000000E+02  0.00000E+00  9.000E+00
      21     1     1     2   512   502 -1.164327130E+01  1.531247652E+00  1.278966700E+01  1.736335417E+01  2.384185791E-07  0.00000E+00  9.000E+00
#rwgt            1           1   3.2760828962954285E-002           9      121060           0
</event>
<event>
      5   9999  3.79277E-02  7.66387E+01 -1.00000E+00  1.29258E-01
      21    -1     0     0   502   501  0.000000000E+00  0.000000000E+00  4.404113513E+02  4.404113513E+02  0.000000000E+00  0.00000E+00  9.000E+00
      21    -1     0     0   511   502  0.000000000E+00  0.000000000E+00 -4.660964977E+02  4.660964977E+02  0.000000000E+00  0.00000E+00  9.000E+00
      25     1     1     2     0     0 -1.447128884E+02  9.251627462E+01  1.998266178E+02  2.916449182E+02  1.250000000E+02  0.00000E+00  9.000E+00
      25     1     1     2     0     0  1.319713553E+02 -1.694415330E+01  1.471006010E+02  2.344506979E+02  1.250000000E+02  0.00000E+00  9.000E+00
      21     1     1     2   511   501  1.274153317E+01 -7.557212132E+01 -3.726123653E+02  3.804122329E+02  7.629394531E-06  0.00000E+00  9.000E+00
#rwgt            1           1   3.4448688227637012E-002           9      121278           0
</event>
<event>
      5   9999  3.79277E-02  3.79068E+01 -1.00000E+00  1.46303E-01
      21    -1     0     0   502   501  0.000000000E+00  0.000000000E+00  1.170974278E+03  1.170974278E+03  0.000000000E+00  0.00000E+00  9.000E+00
      21    -1     0     0   512   502  0.000000000E+00  0.000000000E+00 -7.219164139E+01  7.219164139E+01  0.000000000E+00  0.00000E+00  9.000E+00
      25     1     1     2     0     0 -1.707755803E+02 -1.124606089E+02  3.119516883E+02  3.933834557E+02  1.250000000E+02  0.00000E+00  9.000E+00
      25     1     1     2     0     0  1.328916319E+02  1.111454731E+02  7.830720245E+02  8.116897791E+02  1.250000000E+02  0.00000E+00  9.000E+00
      21     1     1     2   512   501  3.788394845E+01  1.315135870E+00  3.758924174E+00  3.809268491E+01  6.405766386E-07  0.00000E+00  9.000E+00
#rwgt            1           1   3.8704995520085488E-002           9      121496           0
</event>
<event>
      5   9999  3.79277E-02  2.26744E+01 -1.00000E+00  1.61994E-01
      21    -1     0     0   502   501  0.000000000E+00  0.000000000E+00  4.912411496E+02  4.912411496E+02  0.000000000E+00  0.00000E+00  9.000E+00
      21    -1     0     0   501   511  0.000000000E+00  0.000000000E+00 -6.578724993E+02  6.578724993E+02  0.000000000E+00  0.00000E+00  9.000E+00
      25     1     1     2     0     0  9.278212266E+01 -2.577756585E+01  3.943505200E+02  4.247473812E+02  1.250000000E+02  0.00000E+00  9.000E+00
      25     1     1     2     0     0 -8.987545342E+01  4.826492513E+01  1.575272995E+00  1.613523524E+02  1.250000000E+02  0.00000E+00  9.000E+00
      21     1     1     2   502   511 -2.906669238E+00 -2.248735929E+01 -5.625571427E+02  5.630139154E+02  0.000000000E+00  0.00000E+00  9.000E+00
#rwgt            1           1   4.2384103076926812E-002           9      121658           0
</event>
<event>
      5   9999  3.79277E-02  4.43901E+01 -1.00000E+00  1.42090E-01
      21    -1     0     0   502   501  0.000000000E+00  0.000000000E+00  5.172393940E+02  5.172393940E+02  0.000000000E+00  0.00000E+00  9.000E+00
      21    -1     0     0   501   512  0.000000000E+00  0.000000000E+00 -2.326786991E+02  2.326786991E+02  0.000000000E+00  0.00000E+00  9.000E+00
      25     1     1     2     0     0 -1.341989316E+02  1.297301503E+02  1.225331710E+02  2.558879504E+02  1.250000000E+02  0.00000E+00  9.000E+00
      25     1     1     2     0     0  1.767086665E+02 -1.425130609E+02  2.718449630E+02  3.755803632E+02  1.250000000E+02  0.00000E+00  9.000E+00
      21     1     1     2   502   512 -4.250973488E+01  1.278291054E+01 -1.098174391E+02  1.184497796E+02  1.907348633E-06  0.00000E+00  9.000E+00
#rwgt            1           1   4.3391106372090690E-002           9      121825           0
</event>
<event>
      5   9999  3.79277E-02  3.32072E+01 -1.00000E+00  1.50038E-01
      21    -1     0     0   502   501  0.000000000E+00  0.000000000E+00  1.095865242E+03  1.095865242E+03  0.000000000E+00  0.00000E+00  9.000E+00
      21    -1     0     0   511   502  0.000000000E+00  0.000000000E+00 -5.291671758E+01  5.291671758E+01  0.000000000E+00  0.00000E+00  9.000E+00
      25     1     1     2     0     0  1.112758218E+02  1.178407814E+02  5.877864442E+02  6.224039382E+02  1.250000000E+02  0.00000E+00  9.000E+00
      25     1     1     2     0     0 -1.275816822E+02 -1.467689611E+02  3.971008745E+02  4.594913689E+02  1.250000000E+02  0.00000E+00  9.000E+00
      21     1     1     2   511   501  1.630586040E+01  2.892817968E+01  5.806120540E+01  6.688665215E+01  9.536743164E-07  0.00000E+00  9.000E+00
#rwgt            1           1   2.8408123925027336E-002           9      121936           0
</event>
<event>
      5   9999  3.79277E-02  1.10608E+02 -1.00000E+00  1.21890E-01
      21    -1     0     0   512   501  0.000000000E+00  0.000000000E+00  2.974368716E+01  2.974368716E+01  0.000000000E+00  0.00000E+00  9.000E+00
      21    -1     0     0   501   502  0.000000000E+00  0.000000000E+00 -2.707510005E+03  2.707510005E+03  0.000000000E+00  0.00000E+00  9.000E+00
      25     1     1     2     0     0 -1.737856409E+02  1.419111646E+02 -1.071112598E+03  1.101475114E+03  1.250000000E+02  0.00000E+00  9.000E+00
      25     1     1     2     0     0  6.966523030E+01 -1.045872866E+02 -1.246029893E+03  1.258573493E+03  1.250000000E+02  0.00000E+00  9.000E+00
      21     1     1     2   512   502  1.041204106E+02 -3.732387792E+01 -3.606238265E+02  3.772050848E+02  3.814697266E-06  0.00000E+00  9.000E+00
#rwgt            1           1   8.2136652448299000E-002           9      122130           0
</event>
<event>
      5   9999  3.79277E-02  4.68113E+01 -1.00000E+00  1.40728E-01
      21    -1     0     0   511   501  0.000000000E+00  0.000000000E+00  1.382470960E+02  1.382470960E+02  0.000000000E+00  0.00000E+00  9.000E+00
      21    -1     0     0   501   502  0.000000000E+00  0.000000000E+00 -5.278230480E+02  5.278230480E+02  0.000000000E+00  0.00000E+00  9.000E+00
      25     1     1     2     0     0 -1.128657751E+02  5.846098529E+01  1.608935772E+00  1.782805617E+02  1.250000000E+02  0.00000E+00  9.000E+00
      25     1     1     2     0     0  1.420230180E+02 -9.508273533E+01 -3.865541662E+02  4.407498016E+02  1.250000000E+02  0.00000E+00  9.000E+00
      21     1     1     2   511   502 -2.915724290E+01  3.662175005E+01 -4.630721596E+00  4.703978074E+01  3.769728732E-07  0.00000E+00  9.000E+00
#rwgt            1           1   6.5340792558052918E-002           9      122215           0
</event>
<event>
      5   9999  3.79277E-02  1.71141E+01 -1.00000E+00  1.72154E-01
      21    -1     0     0   502   501  0.000000000E+00  0.000000000E+00  6.624566714E+01  6.624566714E+01  0.000000000E+00  0.00000E+00  9.000E+00
      21    -1     0     0   501   512  0.000000000E+00  0.000000000E+00 -8.599059213E+02  8.599059213E+02  0.000000000E+00  0.00000E+00  9.000E+00
      25     1     1     2     0     0  7.407159123E+01  1.652388449E+02 -3.180122542E+02  3.867134214E+02  1.250000000E+02  0.00000E+00  9.000E+00
      25     1     1     2     0     0 -7.662136172E+01 -1.821619153E+02 -4.141563600E+02  4.756093848E+02  1.250000000E+02  0.00000E+00  9.000E+00
      21     1     1     2   502   512  2.549770491E+00  1.692307040E+01 -6.149163999E+01  6.382878214E+01  1.168007728E-06  0.00000E+00  9.000E+00
#rwgt            1           1   3.7645491331352733E-002           9      122318           0
</event>
<event>
      5   9999  3.79277E-02  1.50132E+02 -1.00000E+00  1.16379E-01
      21    -1     0     0   502   501  0.000000000E+00  0.000000000E+00  2.068359430E+02  2.068359430E+02  0.000000000E+00  0.00000E+00  9.000E+00
      -2    -1     0     0     0   502  0.000000000E+00  0.000000000E+00 -5.572638166E+02  5.572638166E+02  0.000000000E+00  0.00000E+00  9.000E+00
      25     1     1     2     0     0  9.160743828E+01 -4.185523625E+01 -1.443907278E+02  2.159107821E+02  1.250000000E+02  0.00000E+00  9.000E+00
      25     1     1     2     0     0 -1.824805526E+02 -7.765019491E+01  6.065587215E+01  2.421421890E+02  1.250000000E+02  0.00000E+00  9.000E+00
      -2     1     1     2     0   501  9.087311435E+01  1.195054312E+02 -2.666930179E+02  3.060467886E+02  3.814697266E-06  0.00000E+00  9.000E+00
#rwgt            1           1   3.7206274877823707E-002           9      122643           0
</event>
<event>
      5   9999 -3.79277E-02  9.86752E+01 -1.00000E+00  1.24089E-01
      21    -1     0     0   502   501  0.000000000E+00  0.000000000E+00  3.064012076E+02  3.064012076E+02  0.000000000E+00  0.00000E+00  9.000E+00
      21    -1     0     0   501   511  0.000000000E+00  0.000000000E+00 -5.632622016E+02  5.632622016E+02  0.000000000E+00  0.00000E+00  9.000E+00
      25     1     1     2     0     0  3.674324134E+01  1.916099902E+02 -3.812806814E+01  2.348259008E+02  1.250000000E+02  0.00000E+00  9.000E+00
      25     1     1     2     0     0  4.712226569E+01 -1.396159839E+02  1.553651922E+02  2.479444975E+02  1.250000000E+02  0.00000E+00  9.000E+00
      21     1     1     2   502   511 -8.386550703E+01 -5.199400628E+01 -3.740981180E+02  3.868930109E+02  7.629394531E-06  0.00000E+00  9.000E+00
#rwgt            1           1  -4.6944086205807693E-002           9      122709           0
</event>
<event>
      5   9999  3.79277E-02  5.28900E+01 -1.00000E+00  1.37697E-01
      21    -1     0     0   502   501  0.000000000E+00  0.000000000E+00  4.550090045E+02  4.550090045E+02  0.000000000E+00  0.00000E+00  9.000E+00
      21    -1     0     0   501   512  0.000000000E+00  0.000000000E+00 -1.869724967E+02  1.869724967E+02  0.000000000E+00  0.00000E+00  9.000E+00
      25     1     1     2     0     0  3.149311327E+01 -5.630232129E+00  3.915080666E+02  4.122221269E+02  1.250000000E+02  0.00000E+00  9.000E+00
      25     1     1     2     0     0  6.319066714E+00 -3.135074682E+01 -4.813910326E+01  1.377140995E+02  1.250000000E+02  0.00000E+00  9.000E+00
      21     1     1     2   502   512 -3.781217998E+01  3.698097895E+01 -7.533245558E+01  9.204527485E+01  1.651812370E-06  0.00000E+00  9.000E+00
#rwgt            1           1   3.9792147323849378E-002           9      122777           0
</event>
<event>
      5   9999 -3.79277E-02  2.64814E+01 -1.00000E+00  1.56901E-01
      21    -1     0     0   511   501  0.000000000E+00  0.000000000E+00  1.543689392E+02  1.543689392E+02  0.000000000E+00  0.00000E+00  9.000E+00
      21    -1     0     0   501   502  0.000000000E+00  0.000000000E+00 -4.660518165E+02  4.660518165E+02  0.000000000E+00  0.00000E+00  9.000E+00
      25     1     1     2     0     0  9.793550944E+01  1.472829334E+02 -1.083154908E+02  2.421587744E+02  1.250000000E+02  0.00000E+00  9.000E+00
      25     1     1     2     0     0 -7.164361099E+01 -1.441203961E+02 -2.512742714E+02  3.235231909E+02  1.250000000E+02  0.00000E+00  9.000E+00
      21     1     1     2   511   502 -2.629189845E+01 -3.162537287E+00  4.790688482E+01  5.473879044E+01  9.536743164E-07  0.00000E+00  9.000E+00
#rwgt            1           1 -0.10192598911082783                9      122929           0
</event>
<event>
      5   9999  3.79277E-02  3.32425E+01 -1.00000E+00  1.50007E-01
      21    -1     0     0   502   501  0.000000000E+00  0.000000000E+00  6.882877621E+02  6.882877621E+02  0.000000000E+00  0.00000E+00  9.000E+00
      21    -1     0     0   501   512  0.000000000E+00  0.000000000E+00 -3.491883810E+02  3.491883810E+02  0.000000000E+00  0.00000E+00  9.000E+00
      25     1     1     2     0     0  1.832925519E+01 -3.731619949E+02  4.207760366E+02  5.764228561E+02  1.250000000E+02  0.00000E+00  9.000E+00
      25     1     1     2     0     0 -4.307594209E+01  3.953580533E+02 -5.952848161E+01  4.211082607E+02  1.250000000E+02  0.00000E+00  9.000E+00
      21     1     1     2   502   512  2.474668690E+01 -2.219605844E+01 -2.214817389E+01  3.994502634E+01  7.907449699E-07  0.00000E+00  9.000E+00
#rwgt            1           1   6.2634743989650951E-002           9      123003           0
</event>
<event>
      5   9999  3.79277E-02  2.04735E+01 -1.00000E+00  1.65535E-01
      21    -1     0     0   502   501  0.000000000E+00  0.000000000E+00  1.229685436E+03  1.229685436E+03  0.000000000E+00  0.00000E+00  9.000E+00
      21    -1     0     0   501   511  0.000000000E+00  0.000000000E+00 -5.614901399E+01  5.614901399E+01  0.000000000E+00  0.00000E+00  9.000E+00
      25     1     1     2     0     0 -6.538874100E+01  5.971900942E+01  7.808492850E+02  7.957340344E+02  1.250000000E+02  0.00000E+00  9.000E+00
      25     1     1     2     0     0  8.167451166E+01 -7.212617154E+01  4.225328846E+02  4.539074234E+02  1.250000000E+02  0.00000E+00  9.000E+00
      21     1     1     2   502   511 -1.628577066E+01  1.240716212E+01 -2.984574788E+01  3.619299192E+01  9.536743164E-07  0.00000E+00  9.000E+00
#rwgt            1           1   5.1412232444957913E-002           9      123231           0
</event>
<event>
      5   9999  3.79277E-02  8.52477E+01 -1.00000E+00  1.27028E-01
      -1    -1     0     0     0   501  0.000000000E+00  0.000000000E+00  5.887247076E+02  5.887247076E+02  0.000000000E+00  0.00000E+00  9.000E+00
      21    -1     0     0   501   502  0.000000000E+00  0.000000000E+00 -1.372191898E+02  1.372191898E+02  0.000000000E+00  0.00000E+00  9.000E+00
      25     1     1     2     0     0 -1.779198043E+02 -3.303358107E+01  7.131899340E+01  2.312100194E+02  1.250000000E+02  0.00000E+00  9.000E+00
      25     1     1     2     0     0  1.495251546E+02 -4.734627025E+01  1.535371286E+02  2.525828399E+02  1.250000000E+02  0.00000E+00  9.000E+00
      -1     1     1     2     0   502  2.839464974E+01  8.037985132E+01  2.266493959E+02  2.421510382E+02  2.697398305E-06  0.00000E+00  9.000E+00
#rwgt            1           1   3.2471510742095866E-002           9      123463           0
</event>
<event>
      5   9999  3.79277E-02  4.02980E+01 -1.00000E+00  1.44640E-01
      21    -1     0     0   502   501  0.000000000E+00  0.000000000E+00  2.147310701E+02  2.147310701E+02  0.000000000E+00  0.00000E+00  9.000E+00
      21    -1     0     0   501   511  0.000000000E+00  0.000000000E+00 -4.406317837E+02  4.406317837E+02  0.000000000E+00  0.00000E+00  9.000E+00
      25     1     1     2     0     0  1.481126724E+02 -1.123605837E+01  1.225011326E+02  2.295542206E+02  1.250000000E+02  0.00000E+00  9.000E+00
      25     1     1     2     0     0 -1.526563147E+02 -2.880502099E+01 -3.179405870E+02  3.752930808E+02  1.250000000E+02  0.00000E+00  9.000E+00
      21     1     1     2   502   511  4.543642273E+00  4.004107936E+01 -3.046125907E+01  5.051555232E+01  7.539457465E-07  0.00000E+00  9.000E+00
#rwgt            1           1   2.9230758325505611E-002           9      123585           0
</event>
<event>
      5   9999  3.79277E-02  7.38124E+01 -1.00000E+00  1.30065E-01
      21    -1     0     0   502   501  0.000000000E+00  0.000000000E+00  3.126072939E+01  3.126072939E+01  0.000000000E+00  0.00000E+00  9.000E+00
       2    -1     0     0   501     0  0.000000000E+00  0.000000000E+00 -3.119911787E+03  3.119911787E+03  0.000000000E+00  0.00000E+00  9.000E+00
      25     1     1     2     0     0 -9.197867209E+01  9.545448652E+01 -9.377147455E+02  9.552515789E+02  1.250000000E+02  0.00000E+00  9.000E+00
      25     1     1     2     0     0  1.830428089E+01 -9.094260424E+01 -2.564368580E+02  2.999841097E+02  1.250000000E+02  0.00000E+00  9.000E+00
       2     1     1     2   502     0  7.367439120E+01 -4.511882280E+00 -1.894499454E+03  1.895936827E+03  0.000000000E+00  0.00000E+00  9.000E+00
#rwgt            2          13   4.2789128445150756E-004           9      123746           0
</event>
<event>
      5   9999  3.79277E-02  9.41841E+01 -1.00000E+00  1.25010E-01
      21    -1     0     0   502   501  0.000000000E+00  0.000000000E+00  3.677234986E+02  3.677234986E+02  0.000000000E+00  0.00000E+00  9.000E+00
      21    -1     0     0   501   511  0.000000000E+00  0.000000000E+00 -3.164860342E+02  3.164860342E+02  0.000000000E+00  0.00000E+00  9.000E+00
      25     1     1     2     0     0  1.352885919E+02  2.379174104E+01  2.364983159E+02  3.007083362E+02  1.250000000E+02  0.00000E+00  9.000E+00
      25     1     1     2     0     0 -1.582192829E+02 -1.151417570E+02 -8.855951695E+01  2.485130856E+02  1.250000000E+02  0.00000E+00  9.000E+00
      21     1     1     2   502   511  2.293069097E+01  9.135001599E+01 -9.670133455E+01  1.349881110E+02  1.907348633E-06  0.00000E+00  9.000E+00
#rwgt            1           1   3.8315746385088764E-002           9      123855           0
</event>
<event>
      5   9999  3.79277E-02  3.25726E+02 -1.00000E+00  1.04444E-01
      21    -1     0     0   512   501  0.000000000E+00  0.000000000E+00  7.256830671E+02  7.256830671E+02  0.000000000E+00  0.00000E+00  9.000E+00
      21    -1     0     0   501   502  0.000000000E+00  0.000000000E+00 -9.474776605E+02  9.474776605E+02  0.000000000E+00  0.00000E+00  9.000E+00
      25     1     1     2     0     0  2.476832763E+02  2.278731677E+02  1.422835916E+02  3.861901169E+02  1.250000000E+02  0.00000E+00  9.000E+00
      25     1     1     2     0     0 -5.580653821E+02 -3.266672992E+02 -5.950907729E+02  8.876409878E+02  1.250000000E+02  0.00000E+00  9.000E+00
      21     1     1     2   512   502  3.103821058E+02  9.879413152E+01  2.310125879E+02  3.993296230E+02  7.629394531E-06  0.00000E+00  9.000E+00
#rwgt            2          11   4.0257123154832739E-003           9      123982           0
</event>
<event>
      5   9999  3.79277E-02  2.80411E+01 -1.00000E+00  1.55105E-01
      21    -1     0     0   502   501  0.000000000E+00  0.000000000E+00  4.409308779E+02  4.409308779E+02  0.000000000E+00  0.00000E+00  9.000E+00
      21    -1     0     0   501   511  0.000000000E+00  0.000000000E+00 -1.764159339E+02  1.764159339E+02  0.000000000E+00  0.00000E+00  9.000E+00
      25     1     1     2     0     0  1.120830834E+02  1.811788130E+02  2.738346776E+01  2.485220999E+02  1.250000000E+02  0.00000E+00  9.000E+00
      25     1     1     2     0     0 -1.272450804E+02 -1.575903736E+02  2.430316025E+02  3.401696579E+02  1.250000000E+02  0.00000E+00  9.000E+00
      21     1     1     2   502   511  1.516199705E+01 -2.358843945E+01 -5.900126267E+00  2.865505400E+01  4.042583694E-07  0.00000E+00  9.000E+00
#rwgt            1           1   3.5131355557792100E-002           9      124152           0
</event>
<event>
      5   9999  3.79277E-02  5.17334E+01 -1.00000E+00  1.38236E-01
       1    -1     0     0   502     0  0.000000000E+00  0.000000000E+00  2.445187137E+02  2.445187137E+02  0.000000000E+00  0.00000E+00  9.000E+00
      21    -1     0     0   501   502  0.000000000E+00  0.000000000E+00 -4.165135937E+02  4.165135937E+02  0.000000000E+00  0.00000E+00  9.000E+00
      25     1     1     2     0     0 -9.944650709E+01 -6.318887392E+00  2.918244579E+01  1.624996962E+02  1.250000000E+02  0.00000E+00  9.000E+00
      25     1     1     2     0     0  1.490453549E+02  2.102586273E+01 -3.165248862E+02  3.721150472E+02  1.250000000E+02  0.00000E+00  9.000E+00
       1     1     1     2   501     0 -4.959884778E+01 -1.470697533E+01  1.153475604E+02  1.264175641E+02  1.907348633E-06  0.00000E+00  9.000E+00
#rwgt            1           1   4.0672591679312357E-002           9      124322           0
</event>
<event>
      5   9999  3.79277E-02  2.94793E+01 -1.00000E+00  1.53570E-01
      21    -1     0     0   502   501  0.000000000E+00  0.000000000E+00  3.164656577E+02  3.164656577E+02  0.000000000E+00  0.00000E+00  9.000E+00
      21    -1     0     0   511   502  0.000000000E+00  0.000000000E+00 -2.002577273E+02  2.002577273E+02  0.000000000E+00  0.00000E+00  9.000E+00
      25     1     1     2     0     0 -8.523736655E+00 -1.170027814E+02  2.269416018E+02  2.844113140E+02  1.250000000E+02  0.00000E+00  9.000E+00
      25     1     1     2     0     0 -2.069416653E+01  1.130854950E+02 -7.409951314E+01  1.852898150E+02  1.250000000E+02  0.00000E+00  9.000E+00
      21     1     1     2   511   501  2.921790319E+01  3.917286426E+00 -3.663415829E+01  4.702225593E+01  4.768371582E-07  0.00000E+00  9.000E+00
#rwgt            1           1   2.9569835458210788E-002           9      124377           0
</event>
<event>
      5   9999  3.79277E-02  1.86956E+02 -1.00000E+00  1.12725E-01
      21    -1     0     0   502   512  0.000000000E+00  0.000000000E+00  1.766695304E+02  1.766695304E+02  0.000000000E+00  0.00000E+00  9.000E+00
      21    -1     0     0   501   502  0.000000000E+00  0.000000000E+00 -8.644219951E+02  8.644219951E+02  0.000000000E+00  0.00000E+00  9.000E+00
      25     1     1     2     0     0 -2.120715722E+02 -8.924174961E+01 -1.226622456E+02  2.891530185E+02  1.250000000E+02  0.00000E+00  9.000E+00
      25     1     1     2     0     0  2.397726189E+02 -9.565047748E+01 -4.460311724E+02  5.302911741E+02  1.250000000E+02  0.00000E+00  9.000E+00
      21     1     1     2   501   512 -2.770104669E+01  1.848922271E+02 -1.190590467E+02  2.216473330E+02  5.560829062E-06  0.00000E+00  9.000E+00
#rwgt            1           1   4.7229160206962717E-002           9      124573           0
</event>
<event>
      5   9999  3.79277E-02  5.49041E+01 -1.00000E+00  1.36796E-01
      21    -1     0     0   502   501  0.000000000E+00  0.000000000E+00  4.538313324E+01  4.538313324E+01  0.000000000E+00  0.00000E+00  9.000E+00
      -2    -1     0     0     0   502  0.000000000E+00  0.000000000E+00 -1.677338398E+03  1.677338398E+03  0.000000000E+00  0.00000E+00  9.000E+00
      25     1     1     2     0     0 -3.928445535E+01  5.005456410E+01 -1.063768458E+02  1.760390898E+02  1.250000000E+02  0.00000E+00  9.000E+00
      25     1     1     2     0     0  9.247312703E+01 -6.367150751E+01 -7.246177905E+02  7.438422429E+02  1.250000000E+02  0.00000E+00  9.000E+00
      -2     1     1     2     0   501 -5.318867168E+01  1.361694341E+01 -8.009606288E+02  8.028401988E+02  1.525878906E-05  0.00000E+00  9.000E+00
#rwgt            1           1   4.9010051326792731E-002           9      124664           0
</event>
<event>
      5   9999  3.79277E-02  2.83499E+01 -1.00000E+00  1.54766E-01
      21    -1     0     0   502   511  0.000000000E+00  0.000000000E+00  1.397570558E+03  1.397570558E+03  0.000000000E+00  0.00000E+00  9.000E+00
      21    -1     0     0   501   502  0.000000000E+00  0.000000000E+00 -2.365104482E+01  2.365104482E+01  0.000000000E+00  0.00000E+00  9.000E+00
      25     1     1     2     0     0 -2.502548106E+01  4.389835138E+01  9.060042824E+02  9.159814953E+02  1.250000000E+02  0.00000E+00  9.000E+00
      25     1     1     2     0     0  2.739952861E+01 -1.564806905E+01  2.146281909E+02  2.503714372E+02  1.250000000E+02  0.00000E+00  9.000E+00
      21     1     1     2   501   511 -2.374047551E+00 -2.825028232E+01  2.532870395E+02  2.548686699E+02  5.394796609E-06  0.00000E+00  9.000E+00
#rwgt            1           1   2.4092204853723289E-002           9      124753           0
</event>
<event>
      5   9999  3.79277E-02  6.07167E+01 -1.00000E+00  1.34428E-01
      21    -1     0     0   502   501  0.000000000E+00  0.000000000E+00  2.902056951E+02  2.902056951E+02  0.000000000E+00  0.00000E+00  9.000E+00
      21    -1     0     0   501   512  0.000000000E+00  0.000000000E+00 -2.637836148E+02  2.637836148E+02  0.000000000E+00  0.00000E+00  9.000E+00
      25     1     1     2     0     0 -1.484842257E+02  1.668168922E+02  1.023023287E+02  2.756196786E+02  1.250000000E+02  0.00000E+00  9.000E+00
      25     1     1     2     0     0  1.110585851E+02 -1.190064548E+02 -4.442369720E+01  2.099881198E+02  1.250000000E+02  0.00000E+00  9.000E+00
      21     1     1     2   502   512  3.742564065E+01 -4.781043739E+01 -3.145655119E+01  6.838151149E+01  1.066240300E-06  0.00000E+00  9.000E+00
#rwgt            1           1   3.5456433745834535E-002           9      124890           0
</event>
<event>
      5   9999  3.79277E-02  1.15531E+01 -1.00000E+00  1.88778E-01
      21    -1     0     0   511   501  0.000000000E+00  0.000000000E+00  8.762296517E+02  8.762296517E+02  0.000000000E+00  0.00000E+00  9.000E+00
      21    -1     0     0   501   502  0.000000000E+00  0.000000000E+00 -1.500311778E+02  1.500311778E+02  0.000000000E+00  0.00000E+00  9.000E+00
      25     1     1     2     0     0  9.179476448E+01 -6.689036283E+01 -2.287748646E+01  1.704376097E+02  1.250000000E+02  0.00000E+00  9.000E+00
      25     1     1     2     0     0 -9.942182832E+01  5.821269132E+01  8.216246048E+01  1.888096589E+02  1.250000000E+02  0.00000E+00  9.000E+00
      21     1     1     2   511   502  7.627063839E+00  8.677671515E+00  6.669134998E+02  6.670135608E+02  1.321449896E-05  0.00000E+00  9.000E+00
#rwgt            1           1   4.3514452322380444E-002           9      125025           0
</event>
<event>
      5   9999 -3.79277E-02  3.04621E+01 -1.00000E+00  1.52580E-01
      21    -1     0     0   502   512  0.000000000E+00  0.000000000E+00  5.351418801E+02  5.351418801E+02  0.000000000E+00  0.00000E+00  9.000E+00
      21    -1     0     0   501   502  0.000000000E+00  0.000000000E+00 -2.521131131E+02  2.521131131E+02  0.000000000E+00  0.00000E+00  9.000E+00
      25     1     1     2     0     0  9.814283019E+01 -2.329789749E+01  6.159125251E-01  1.606243646E+02  1.250000000E+02  0.00000E+00  9.000E+00
      25     1     1     2     0     0 -1.185778084E+02  4.588878931E+01 -1.252082587E+02  2.178728658E+02  1.250000000E+02  0.00000E+00  9.000E+00
      21     1     1     2   501   512  2.043497817E+01 -2.259089182E+01  4.076211132E+02  4.087577628E+02  5.394796609E-06  0.00000E+00  9.000E+00
#rwgt            1           1  -4.4767558804075298E-002           9      125229           0
</event>
<event>
      5   9999  3.79277E-02  1.00939E+01 -1.00000E+00  1.95289E-01
       2    -1     0     0   502     0  0.000000000E+00  0.000000000E+00  5.082993611E+02  5.082993611E+02  0.000000000E+00  0.00000E+00  9.000E+00
      21    -1     0     0   501   502  0.000000000E+00  0.000000000E+00 -2.483061158E+02  2.483061158E+02  0.000000000E+00  0.00000E+00  9.000E+00
      25     1     1     2     0     0  1.325685748E+02  4.051259180E+01 -7.265771130E+01  2.002993763E+02  1.250000000E+02  0.00000E+00  9.000E+00
      25     1     1     2     0     0 -1.416530123E+02 -4.491252658E+01 -2.740471213E+01  1.961089727E+02  1.250000000E+02  0.00000E+00  9.000E+00
       2     1     1     2   501     0  9.084437452E+00  4.399934779E+00  3.600556687E+02  3.601971280E+02  3.814697266E-06  0.00000E+00  9.000E+00
#rwgt            1           1   4.3910263904458714E-002           9      125365           0
</event>
<event>
      5   9999  3.79277E-02  1.65318E+01 -1.00000E+00  1.73496E-01
      21    -1     0     0   502   501  0.000000000E+00  0.000000000E+00  2.258395880E+03  2.258395880E+03  0.000000000E+00  0.00000E+00  9.000E+00
      -2    -1     0     0     0   502  0.000000000E+00  0.000000000E+00 -3.219154187E+01  3.219154187E+01  0.000000000E+00  0.00000E+00  9.000E+00
      25     1     1     2     0     0  2.838530384E+01  7.560900988E+01  3.620359059E+02  3.914300002E+02  1.250000000E+02  0.00000E+00  9.000E+00
      25     1     1     2     0     0 -3.866617746E+01 -8.855516520E+01  1.873515941E+03  1.880165970E+03  1.250000000E+02  0.00000E+00  9.000E+00
      -2     1     1     2     0   501  1.028087362E+01  1.294615533E+01 -9.347509627E+00  1.899145167E+01  1.549720764E-06  0.00000E+00  9.000E+00
#rwgt            1           1   8.9994623187542588E-002           9      125596           0
</event>
<event>
      5   9999  3.79277E-02  2.15535E+01 -1.00000E+00  1.63732E-01
      -3    -1     0     0     0   501  0.000000000E+00  0.000000000E+00  5.625813091E+02  5.625813091E+02  0.000000000E+00  0.00000E+00  9.000E+00
      21    -1     0     0   501   502  0.000000000E+00  0.000000000E+00 -2.230608460E+02  2.230608460E+02  0.000000000E+00  0.00000E+00  9.000E+00
      25     1     1     2     0     0  5.110088640E+01 -1.339642383E+02 -1.203215363E+02  2.250777417E+02  1.250000000E+02  0.00000E+00  9.000E+00
      25     1     1     2     0     0 -3.753097751E+01  1.507096920E+02  1.487932519E+02  2.487698080E+02  1.250000000E+02  0.00000E+00  9.000E+00
      -3     1     1     2     0   502 -1.356990889E+01 -1.674545375E+01  3.110487474E+02  3.117946054E+02  3.814697266E-06  0.00000E+00  9.000E+00
#rwgt            1           1  0.21178478630220984                9      125844           0
</event>
<event>
      5   9999  3.79277E-02  1.27126E+01 -1.00000E+00  1.84432E-01
      21    -1     0     0   511   501  0.000000000E+00  0.000000000E+00  5.537816672E+02  5.537816672E+02  0.000000000E+00  0.00000E+00  9.000E+00
      21    -1     0     0   501   502  0.000000000E+00  0.000000000E+00 -1.029372270E+02  1.029372270E+02  0.000000000E+00  0.00000E+00  9.000E+00
      25     1     1     2     0     0  6.820305378E+01  1.788948171E+02  2.177167724E+02  3.157223545E+02  1.250000000E+02  0.00000E+00  9.000E+00
      25     1     1     2     0     0 -8.047038945E+01 -1.822298304E+02  2.136260528E+02  3.177173038E+02  1.250000000E+02  0.00000E+00  9.000E+00
      21     1     1     2   511   502  1.226733567E+01  3.335013246E+00  1.950161497E+01  2.327923590E+01  2.384185791E-07  0.00000E+00  9.000E+00
#rwgt            1           1   3.7223874442699818E-002           9      126003           0
</event>
<event>
      5   9999  3.79277E-02  2.49954E+02 -1.00000E+00  1.08233E-01
       1    -1     0     0   502     0  0.000000000E+00  0.000000000E+00  1.977793308E+03  1.977793308E+03  0.000000000E+00  0.00000E+00  9.000E+00
      21    -1     0     0   501   502  0.000000000E+00  0.000000000E+00 -1.576828802E+02  1.576828802E+02  0.000000000E+00  0.00000E+00  9.000E+00
      25     1     1     2     0     0 -1.585312764E+02 -2.548242931E+02  4.159723049E+02  5.279446414E+02  1.250000000E+02  0.00000E+00  9.000E+00
      25     1     1     2     0     0 -9.102493683E+01  2.407366524E+02  1.392921709E+02  3.182247379E+02  1.250000000E+02  0.00000E+00  9.000E+00
       1     1     1     2   501     0  2.495562132E+02  1.408764073E+01  1.264845952E+03  1.289306808E+03  0.000000000E+00  0.00000E+00  9.000E+00
#rwgt            1           1   4.0569071200959789E-002           9      126313           0
</event>
<event>
      5   9999  3.79277E-02  3.00851E+01 -1.00000E+00  1.52954E-01
      21    -1     0     0   502   501  0.000000000E+00  0.000000000E+00  9.389038104E+02  9.389038104E+02  0.000000000E+00  0.00000E+00  9.000E+00
      21    -1     0     0   511   502  0.000000000E+00  0.000000000E+00 -1.912232700E+02  1.912232700E+02  0.000000000E+00  0.00000E+00  9.000E+00
      25     1     1     2     0     0  9.088574306E+01  5.302050689E+00  9.505362721E+01  1.815172776E+02  1.250000000E+02  0.00000E+00  9.000E+00
      25     1     1     2     0     0 -6.814934909E+01  1.439990396E+01  7.926133656E+02  8.054269914E+02  1.250000000E+02  0.00000E+00  9.000E+00
      21     1     1     2   511   501 -2.273639398E+01 -1.970195465E+01 -1.399864524E+02  1.431828114E+02  0.000000000E+00  0.00000E+00  9.000E+00
#rwgt            1           1   5.0876056885482121E-002           9      126435           0
</event>
<event>
      5   9999  3.79277E-02  1.37286E+02 -1.00000E+00  1.17939E-01
      21    -1     0     0   502   501  0.000000000E+00  0.000000000E+00  5.359090452E+02  5.359090452E+02  0.000000000E+00  0.00000E+00  9.000E+00
      21    -1     0     0   512   502  0.000000000E+00  0.000000000E+00 -1.806851889E+02  1.806851889E+02  0.000000000E+00  0.00000E+00  9.000E+00
      25     1     1     2     0     0  3.061526225E+01  9.143777960E+01  2.710974500E+00  1.578939872E+02  1.250000000E+02  0.00000E+00  9.000E+00
      25     1     1     2     0     0  5.274764098E+01  1.764063304E+01  3.925386895E+02  4.156983622E+02  1.250000000E+02  0.00000E+00  9.000E+00
      21     1     1     2   512   501 -8.336290323E+01 -1.090784126E+02 -4.002580775E+01  1.430018847E+02  2.132480600E-06  0.00000E+00  9.000E+00
#rwgt            1           1   2.4946353824460914E-002           9      126730           0
</event>
<event>
      5   9999 -3.79277E-02  3.18457E+01 -1.00000E+00  1.51260E-01
      21    -1     0     0   502   501  0.000000000E+00  0.000000000E+00  5.260037895E+01  5.260037895E+01  0.000000000E+00  0.00000E+00  9.000E+00
      21    -1     0     0   511   502  0.000000000E+00  0.000000000E+00 -1.355421594E+03  1.355421594E+03  0.000000000E+00  0.00000E+00  9.000E+00
      25     1     1     2     0     0  2.165649786E+02 -6.650822901E+01 -5.346431737E+02  5.939630103E+02  1.250000000E+02  0.00000E+00  9.000E+00
      25     1     1     2     0     0 -1.866243373E+02  7.735750737E+01 -6.740105583E+02  7.146524049E+02  1.250000000E+02  0.00000E+00  9.000E+00
      21     1     1     2   511   501 -2.994064126E+01 -1.084927836E+01 -9.416748331E+01  9.940655789E+01  0.000000000E+00  0.00000E+00  9.000E+00
#rwgt            1           1 -0.14491912817826075                9      126803           0
</event>
<event>
      5   9999  3.79277E-02  8.25387E+01 -1.00000E+00  1.27696E-01
      21    -1     0     0   502   501  0.000000000E+00  0.000000000E+00  8.841407717E+01  8.841407717E+01  0.000000000E+00  0.00000E+00  9.000E+00
      21    -1     0     0   501   512  0.000000000E+00  0.000000000E+00 -9.300402431E+02  9.300402431E+02  0.000000000E+00  0.00000E+00  9.000E+00
      25     1     1     2     0     0 -1.468488682E+02  6.664041795E+01 -7.488504243E+01  2.173437484E+02  1.250000000E+02  0.00000E+00  9.000E+00
      25     1     1     2     0     0  7.443870968E+01 -2.702464196E+01 -4.453486736E+02  4.692887105E+02  1.250000000E+02  0.00000E+00  9.000E+00
      21     1     1     2   502   512  7.241015856E+01 -3.961577600E+01 -3.213924500E+02  3.318218613E+02  0.000000000E+00  0.00000E+00  9.000E+00
#rwgt            1           1   4.0546981246829129E-002           9      127099           0
</event>
<event>
      5   9999  3.79277E-02  5.31510E+01 -1.00000E+00  1.37578E-01
      21    -1     0     0   502   511  0.000000000E+00  0.000000000E+00  1.231495686E+02  1.231495686E+02  0.000000000E+00  0.00000E+00  9.000E+00
      21    -1     0     0   501   502  0.000000000E+00  0.000000000E+00 -1.710253202E+03  1.710253202E+03  0.000000000E+00  0.00000E+00  9.000E+00
      25     1     1     2     0     0  3.011576389E+02  1.075422438E+02 -1.167504646E+03  1.216944270E+03  1.250000000E+02  0.00000E+00  9.000E+00
      25     1     1     2     0     0 -3.490509719E+02 -1.305911928E+02 -3.346024593E+02  5.162116295E+02  1.250000000E+02  0.00000E+00  9.000E+00
      21     1     1     2   501   511  4.789333301E+01  2.304894895E+01 -8.499652764E+01  1.002468708E+02  1.651812370E-06  0.00000E+00  9.000E+00
#rwgt            1           1   3.6915182673841168E-002           9      127197           0
</event>
<event>
      5   9999  3.79277E-02  5.45270E+01 -1.00000E+00  1.36961E-01
       2    -1     0     0   502     0  0.000000000E+00  0.000000000E+00  8.761736299E+02  8.761736299E+02  0.000000000E+00  0.00000E+00  9.000E+00
      21    -1     0     0   501   502  0.000000000E+00  0.000000000E+00 -5.712902601E+02  5.712902601E+02  0.000000000E+00  0.00000E+00  9.000E+00
      25     1     1     2     0     0  1.425472625E+02 -2.928430419E+02 -1.998120622E+02  4.020281450E+02  1.250000000E+02  0.00000E+00  9.000E+00
      25     1     1     2     0     0 -9.273993451E+01  2.706523723E+02 -1.787867195E+02  3.597820079E+02  1.250000000E+02  0.00000E+00  9.000E+00
       2     1     1     2   501     0 -4.980732796E+01  2.219066953E+01  6.834821515E+02  6.856537370E+02  7.629394531E-06  0.00000E+00  9.000E+00
#rwgt            1           1   5.4172862847653089E-002           9      127317           0
</event>
<event>
      5   9999  3.79277E-02  1.49834E+02 -1.00000E+00  1.16413E-01
      21    -1     0     0   502   501  0.000000000E+00  0.000000000E+00  1.947695268E+02  1.947695268E+02  0.000000000E+00  0.00000E+00  9.000E+00
      21    -1     0     0   501   511  0.000000000E+00  0.000000000E+00 -4.723761652E+02  4.723761652E+02  0.000000000E+00  0.00000E+00  9.000E+00
      25     1     1     2     0     0 -2.462543390E+02  7.722577084E+01 -1.477028808E+02  3.225618703E+02  1.250000000E+02  0.00000E+00  9.000E+00
      25     1     1     2     0     0  1.112087311E+02 -1.231960023E+01 -5.157369901E+01  1.755106859E+02  1.250000000E+02  0.00000E+00  9.000E+00
      21     1     1     2   502   511  1.350456079E+02 -6.490617061E+01 -7.833005865E+01  1.690731359E+02  3.162979880E-06  0.00000E+00  9.000E+00
#rwgt            1           1   4.3007797522689774E-002           9      127636           0
</event>
<event>
      5   9999  3.79277E-02  8.20147E+00 -1.00000E+00  2.06268E-01
      21    -1     0     0   512   501  0.000000000E+00  0.000000000E+00  1.460364492E+02  1.460364492E+02  0.000000000E+00  0.00000E+00  9.000E+00
      21    -1     0     0   501   502  0.000000000E+00  0.000000000E+00 -4.064426513E+02  4.064426513E+02  0.000000000E+00  0.00000E+00  9.000E+00
      25     1     1     2     0     0  1.200815084E+02  4.665084511E+01 -1.290314618E+02  2.210655743E+02  1.250000000E+02  0.00000E+00  9.000E+00
      25     1     1     2     0     0 -1.257783273E+02 -4.075081323E+01 -1.953239410E+02  2.669405520E+02  1.250000000E+02  0.00000E+00  9.000E+00
      21     1     1     2   512   502  5.696818893E+00 -5.900031878E+00  6.394920067E+01  6.447297409E+01  9.536743164E-07  0.00000E+00  9.000E+00
#rwgt            1           1   4.9426665004499229E-002           9      127711           0
</event>
<event>
      5   9999  3.79277E-02  1.47416E+01 -1.00000E+00  1.78097E-01
      21    -1     0     0   502   511  0.000000000E+00  0.000000000E+00  1.034611961E+03  1.034611961E+03  0.000000000E+00  0.00000E+00  9.000E+00
      21    -1     0     0   501   502  0.000000000E+00  0.000000000E+00 -8.610421831E+01  8.610421831E+01  0.000000000E+00  0.00000E+00  9.000E+00
      25     1     1     2     0     0  1.683688419E+02 -1.184429542E+02  1.743301489E+02  2.973092685E+02  1.250000000E+02  0.00000E+00  9.000E+00
      25     1     1     2     0     0 -1.773507464E+02  1.067535767E+02  5.762478642E+02  6.249289675E+02  1.250000000E+02  0.00000E+00  9.000E+00
      21     1     1     2   501   511  8.981904581E+00  1.168937745E+01  1.979297291E+02  1.984779429E+02  3.814697266E-06  0.00000E+00  9.000E+00
#rwgt            1           1   8.3330811644307168E-002           9      127977           0
</event>
<event>
      5   9999 -3.79277E-02  1.77894E+01 -1.00000E+00  1.70678E-01
      21    -1     0     0   512   501  0.000000000E+00  0.000000000E+00  7.589330393E+02  7.589330393E+02  0.000000000E+00  0.00000E+00  9.000E+00
      21    -1     0     0   501   502  0.000000000E+00  0.000000000E+00 -6.991007345E+01  6.991007345E+01  0.000000000E+00  0.00000E+00  9.000E+00
      25     1     1     2     0     0  1.469738954E+02  3.203892009E+01  4.731942803E+02  5.120211375E+02  1.250000000E+02  0.00000E+00  9.000E+00
      25     1     1     2     0     0 -1.636675463E+02 -2.589192249E+01  1.721615262E+02  2.696702588E+02  1.250000000E+02  0.00000E+00  9.000E+00
      21     1     1     2   512   502  1.669365093E+01 -6.146997608E+00  4.366715939E+01  4.715171651E+01  6.743495762E-07  0.00000E+00  9.000E+00
#rwgt            1           1 -0.19098184366423837                9      128235           0
</event>
<event>
      5   9999  3.79277E-02  8.38278E+01 -1.00000E+00  1.27375E-01
      21    -1     0     0   511   501  0.000000000E+00  0.000000000E+00  9.716864187E+02  9.716864187E+02  0.000000000E+00  0.00000E+00  9.000E+00
      21    -1     0     0   501   502  0.000000000E+00  0.000000000E+00 -6.306319718E+02  6.306319718E+02  0.000000000E+00  0.00000E+00  9.000E+00
      25     1     1     2     0     0  1.667059198E+02 -6.381673237E+01 -4.803380454E+01  2.231494687E+02  1.250000000E+02  0.00000E+00  9.000E+00
      25     1     1     2     0     0 -1.922421050E+02  1.436603671E+02 -4.558336814E+02  5.300987390E+02  1.250000000E+02  0.00000E+00  9.000E+00
      21     1     1     2   511   502  2.553618519E+01 -7.984363475E+01  8.449219328E+02  8.490701828E+02  0.000000000E+00  0.00000E+00  9.000E+00
#rwgt            1           1   2.1245575098712444E-002           9      128404           0
</event>
<event>
      5   9999  3.79277E-02  2.71893E+01 -1.00000E+00  1.56068E-01
      21    -1     0     0   512   501  0.000000000E+00  0.000000000E+00  2.411218602E+02  2.411218602E+02  0.000000000E+00  0.00000E+00  9.000E+00
      21    -1     0     0   501   502  0.000000000E+00  0.000000000E+00 -2.244539697E+02  2.244539697E+02  0.000000000E+00  0.00000E+00  9.000E+00
      25     1     1     2     0     0 -1.309478528E+02 -9.556861460E+01 -4.417811598E+01  2.094215991E+02  1.250000000E+02  0.00000E+00  9.000E+00
      25     1     1     2     0     0  1.107841638E+02  1.138082209E+02  1.476962544E+01  2.026538525E+02  1.250000000E+02  0.00000E+00  9.000E+00
      21     1     1     2   512   502  2.016368897E+01 -1.823960626E+01  4.607638100E+01  5.350037828E+01  6.743495762E-07  0.00000E+00  9.000E+00
#rwgt            1           1   2.4158914156367436E-002           9      128582           0
</event>
<event>
      5   9999  3.79277E-02  2.38752E+01 -1.00000E+00  1.60263E-01
      21    -1     0     0   502   501  0.000000000E+00  0.000000000E+00  1.348879799E+02  1.348879799E+02  0.000000000E+00  0.00000E+00  9.000E+00
      21    -1     0     0   501   511  0.000000000E+00  0.000000000E+00 -3.095584401E+02  3.095584401E+02  0.000000000E+00  0.00000E+00  9.000E+00
      25     1     1     2     0     0  2.008878114E+01 -1.085360134E+02 -6.614692378E+01  1.793991106E+02  1.250000000E+02  0.00000E+00  9.000E+00
      25     1     1     2     0     0 -1.695810420E+01  1.322051122E+02 -3.280358383E+01  1.856524821E+02  1.250000000E+02  0.00000E+00  9.000E+00
      21     1     1     2   502   511 -3.130676935E+00 -2.366909879E+01 -7.571995258E+01  7.939482725E+01  9.536743164E-07  0.00000E+00  9.000E+00
#rwgt            1           1   3.5087306100827519E-002           9      128807           0
</event>
<event>
      5   9999  3.79277E-02  5.67629E+00 -1.00000E+00  2.29279E-01
      21    -1     0     0   502   512  0.000000000E+00  0.000000000E+00  2.014062448E+02  2.014062448E+02  0.000000000E+00  0.00000E+00  9.000E+00
      21    -1     0     0   501   502  0.000000000E+00  0.000000000E+00 -2.699391129E+02  2.699391129E+02  0.000000000E+00  0.00000E+00  9.000E+00
      25     1     1     2     0     0 -1.537171445E+02  2.180612242E+01 -1.054094936E+02  2.254786660E+02  1.250000000E+02  0.00000E+00  9.000E+00
      25     1     1     2     0     0  1.484277118E+02 -2.386577224E+01 -1.273878862E+01  1.959276332E+02  1.250000000E+02  0.00000E+00  9.000E+00
      21     1     1     2   501   512  5.289432674E+00  2.059649825E+00  4.961541405E+01  4.993905852E+01  6.743495762E-07  0.00000E+00  9.000E+00
#rwgt            1           1   1.7498064399525729E-002           9      128963           0
</event>
<event>
      5   9999  3.79277E-02  7.42961E+00 -1.00000E+00  2.11961E-01
      21    -1     0     0   502   511  0.000000000E+00  0.000000000E+00  4.999285682E+02  4.999285682E+02  0.000000000E+00  0.00000E+00  9.000E+00
      21    -1     0     0   501   502  0.000000000E+00  0.000000000E+00 -6.127082222E+02  6.127082222E+02  0.000000000E+00  0.00000E+00  9.000E+00
      25     1     1     2     0     0 -2.727618336E+01 -1.670285568E+02 -3.616723229E+02  4.184189266E+02  1.250000000E+02  0.00000E+00  9.000E+00
      25     1     1     2     0     0  3.006905685E+01  1.601438633E+02 -1.752698799E+02  2.699902516E+02  1.250000000E+02  0.00000E+00  9.000E+00
      21     1     1     2   501   511 -2.792873484E+00  6.884693438E+00  4.241625488E+02  4.242276122E+02  5.394796609E-06  0.00000E+00  9.000E+00
#rwgt            1           1   4.7367917214729056E-002           9      129334           0
</event>
<event>
      5   9999  3.79277E-02  1.60175E+02 -1.00000E+00  1.15275E-01
      21    -1     0     0   502   512  0.000000000E+00  0.000000000E+00  5.976815749E+02  5.976815749E+02  0.000000000E+00  0.00000E+00  9.000E+00
      21    -1     0     0   501   502  0.000000000E+00  0.000000000E+00 -1.364979734E+02  1.364979734E+02  0.000000000E+00  0.00000E+00  9.000E+00
      25     1     1     2     0     0 -2.618516829E+01  1.124446773E+01  2.578994410E+02  2.880090672E+02  1.250000000E+02  0.00000E+00  9.000E+00
      25     1     1     2     0     0  1.061503788E+02 -1.500305551E+02  5.749380505E+01  2.295813756E+02  1.250000000E+02  0.00000E+00  9.000E+00
      21     1     1     2   501   512 -7.996521055E+01  1.387860873E+02  1.457903554E+02  2.165891056E+02  0.000000000E+00  0.00000E+00  9.000E+00
#rwgt            1           1   4.1906248101082122E-002           9      129635           0
</event>
<event>
      5   9999  3.79277E-02  7.25210E+00 -1.00000E+00  2.13405E-01
      21    -1     0     0   511   501  0.000000000E+00  0.000000000E+00  2.746199776E+02  2.746199776E+02  0.000000000E+00  0.00000E+00  9.000E+00
      21    -1     0     0   501   502  0.000000000E+00  0.000000000E+00 -1.318054677E+02  1.318054677E+02  0.000000000E+00  0.00000E+00  9.000E+00
      25     1     1     2     0     0  1.488104395E+01 -9.771521232E+01 -1.899203317E+01  1.604849074E+02  1.250000000E+02  0.00000E+00  9.000E+00
      25     1     1     2     0     0 -1.139519238E+01  9.135582152E+01  1.021321739E+02  1.858271172E+02  1.250000000E+02  0.00000E+00  9.000E+00
      21     1     1     2   511   502 -3.485851567E+00  6.359390800E+00  5.967436915E+01  6.011342068E+01  9.536743164E-07  0.00000E+00  9.000E+00
#rwgt            1           1   4.0906126955490459E-002           9      129740           0
</event>
<event>
      5   9999  3.79277E-02  9.92974E+00 -1.00000E+00  1.96112E-01
      21    -1     0     0   512   501  0.000000000E+00  0.000000000E+00  1.908494954E+03  1.908494954E+03  0.000000000E+00  0.00000E+00  9.000E+00
      21    -1     0     0   501   502  0.000000000E+00  0.000000000E+00 -8.308300313E+01  8.308300313E+01  0.000000000E+00  0.00000E+00  9.000E+00
      25     1     1     2     0     0  6.000684100E+01  9.735096986E+01  4.059457159E+01  1.742152449E+02  1.250000000E+02  0.00000E+00  9.000E+00
      25     1     1     2     0     0 -5.075681917E+01 -1.009616239E+02  4.204603114E+02  4.529695107E+02  1.250000000E+02  0.00000E+00  9.000E+00
      21     1     1     2   512   502 -9.250021824E+00  3.610654003E+00  1.364357068E+03  1.364393201E+03  1.525878906E-05  0.00000E+00  9.000E+00
#rwgt            1           1   4.3534783444946698E-002           9      130123           0
</event>
<event>
      5   9999  3.79277E-02  4.42283E+01 -1.00000E+00  1.42185E-01
      21    -1     0     0   511   501  0.000000000E+00  0.000000000E+00  8.310367872E+02  8.310367872E+02  0.000000000E+00  0.00000E+00  9.000E+00
      21    -1     0     0   501   502  0.000000000E+00  0.000000000E+00 -1.257099717E+02  1.257099717E+02  0.000000000E+00  0.00000E+00  9.000E+00
      25     1     1     2     0     0  1.415973687E+01 -4.799117065E-01 -7.015397426E+01  1.440392605E+02  1.250000000E+02  0.00000E+00  9.000E+00
      25     1     1     2     0     0  2.482044293E+01 -2.041715595E+01  2.170245547E+02  2.525026178E+02  1.250000000E+02  0.00000E+00  9.000E+00
      21     1     1     2   511   502 -3.898017979E+01  2.089706766E+01  5.584562351E+02  5.602048807E+02  7.629394531E-06  0.00000E+00  9.000E+00
#rwgt            1           1   2.5338017010453667E-002           9      130447           0
</event>
<event>
      5   9999  3.79277E-02  2.72529E+01 -1.00000E+00  1.55994E-01
      21    -1     0     0   512   501  0.000000000E+00  0.000000000E+00  8.232784769E+01  8.232784769E+01  0.000000000E+00  0.00000E+00  9.000E+00
      21    -1     0     0   501   502  0.000000000E+00  0.000000000E+00 -8.113743667E+02  8.113743667E+02  0.000000000E+00  0.00000E+00  9.000E+00
      25     1     1     2     0     0 -1.936636076E+02 -4.644826438E+00 -2.070211466E+02  3.098546796E+02  1.250000000E+02  0.00000E+00  9.000E+00
      25     1     1     2     0     0  1.731094396E+02 -1.325064247E+01 -5.118459675E+02  5.547555786E+02  1.250000000E+02  0.00000E+00  9.000E+00
      21     1     1     2   512   502  2.055416799E+01  1.789546891E+01 -1.017940494E+01  2.909195618E+01  5.057621821E-07  0.00000E+00  9.000E+00
#rwgt            1           1   4.3499249044043571E-002           9      130537           0
</event>
<event>
      5   9999  3.79277E-02  8.13168E+01 -1.00000E+00  1.28007E-01
      21    -1     0     0   502   501  0.000000000E+00  0.000000000E+00  5.610997214E+02  5.610997214E+02  0.000000000E+00  0.00000E+00  9.000E+00
       2    -1     0     0   501     0  0.000000000E+00  0.000000000E+00 -4.225561639E+02  4.225561639E+02  0.000000000E+00  0.00000E+00  9.000E+00
      25     1     1     2     0     0 -7.038495675E+01  6.596276005E+00  5.200699828E+02  5.395325199E+02  1.250000000E+02  0.00000E+00  9.000E+00
      25     1     1     2     0     0  2.188024278E+01 -7.186279365E+01 -2.534899964E+02  2.924468916E+02  1.250000000E+02  0.00000E+00  9.000E+00
       2     1     1     2   502     0  4.850471397E+01  6.526651765E+01 -1.280364289E+02  1.516764739E+02  1.907348633E-06  0.00000E+00  9.000E+00
#rwgt            2          13   8.2385761078770378E-005           9      130725           0
</event>
<event>
      5   9999  3.79277E-02  2.90058E+01 -1.00000E+00  1.54063E-01
      21    -1     0     0   502   511  0.000000000E+00  0.000000000E+00  3.045971335E+02  3.045971335E+02  0.000000000E+00  0.00000E+00  9.000E+00
      21    -1     0     0   501   502  0.000000000E+00  0.000000000E+00 -8.365249211E+02  8.365249211E+02  0.000000000E+00  0.00000E+00  9.000E+00
      25     1     1     2     0     0 -5.874264234E+01  8.197751774E+01 -5.462030358E+01  1.696448909E+02  1.250000000E+02  0.00000E+00  9.000E+00
      25     1     1     2     0     0  7.473088739E+01 -5.777600200E+01 -7.150286264E+02  7.319929703E+02  1.250000000E+02  0.00000E+00  9.000E+00
      21     1     1     2   501   511 -1.598824505E+01 -2.420151574E+01  2.377211424E+02  2.394841934E+02  0.000000000E+00  0.00000E+00  9.000E+00
#rwgt            1           1   3.6621156682236207E-002           9      130759           0
</event>
<event>
      5   9999  3.79277E-02  1.37893E+01 -1.00000E+00  1.80897E-01
      21    -1     0     0   502   501  0.000000000E+00  0.000000000E+00  1.502476899E+02  1.502476899E+02  0.000000000E+00  0.00000E+00  9.000E+00
      21    -1     0     0   512   502  0.000000000E+00  0.000000000E+00 -3.489499192E+02  3.489499192E+02  0.000000000E+00  0.00000E+00  9.000E+00
      25     1     1     2     0     0 -2.287037557E+01 -1.756538402E+02 -9.101447939E+01  2.351296688E+02  1.250000000E+02  0.00000E+00  9.000E+00
      25     1     1     2     0     0  1.203734814E+01  1.841855931E+02 -8.719619391E+01  2.393687672E+02  1.250000000E+02  0.00000E+00  9.000E+00
      21     1     1     2   512   501  1.083302743E+01 -8.531752877E+00 -2.049155595E+01  2.469917317E+01  0.000000000E+00  0.00000E+00  9.000E+00
#rwgt            1           1   4.4419031420148657E-002           9      130918           0
</event>
<event>
      5   9999  3.79277E-02  1.66364E+02 -1.00000E+00  1.14639E-01
      21    -1     0     0   502   501  0.000000000E+00  0.000000000E+00  5.907813169E+01  5.907813169E+01  0.000000000E+00  0.00000E+00  9.000E+00
       2    -1     0     0   501     0  0.000000000E+00  0.000000000E+00 -1.734360050E+03  1.734360050E+03  0.000000000E+00  0.00000E+00  9.000E+00
      25     1     1     2     0     0  6.428670790E+01 -3.908418394E+01 -3.838756525E+02  4.106651566E+02  1.250000000E+02  0.00000E+00  9.000E+00
      25     1     1     2     0     0 -7.520968444E+01 -1.269209796E+02 -1.979054058E+02  2.766893228E+02  1.250000000E+02  0.00000E+00  9.000E+00
       2     1     1     2   502     0  1.092297654E+01  1.660051635E+02 -1.093500860E+03  1.106083702E+03  1.525878906E-05  0.00000E+00  9.000E+00
#rwgt            1           1   6.3527377509411870E-002           9      131152           0
</event>
<event>
      5   9999  3.79277E-02  4.13508E+01 -1.00000E+00  1.43951E-01
       1    -1     0     0   502     0  0.000000000E+00  0.000000000E+00  1.130743580E+03  1.130743580E+03  0.000000000E+00  0.00000E+00  9.000E+00
      21    -1     0     0   501   502  0.000000000E+00  0.000000000E+00 -4.129215256E+01  4.129215256E+01  0.000000000E+00  0.00000E+00  9.000E+00
      25     1     1     2     0     0  5.868600614E+01  9.514235105E+01  5.588004230E+02  5.834201119E+02  1.250000000E+02  0.00000E+00  9.000E+00
      25     1     1     2     0     0 -8.932689277E+01 -6.737504884E+01  2.275449177E+02  2.827019288E+02  1.250000000E+02  0.00000E+00  9.000E+00
       1     1     1     2   501     0  3.064088664E+01 -2.776730222E+01  3.031060870E+02  3.059136921E+02  5.394796609E-06  0.00000E+00  9.000E+00
#rwgt            1           1   4.2449887868627155E-002           9      131269           0
</event>
<event>
      5   9999  3.79277E-02  4.84842E+01 -1.00000E+00  1.39843E-01
      21    -1     0     0   502   511  0.000000000E+00  0.000000000E+00  5.218735766E+02  5.218735766E+02  0.000000000E+00  0.00000E+00  9.000E+00
      21    -1     0     0   501   502  0.000000000E+00  0.000000000E+00 -9.077919777E+01  9.077919777E+01  0.000000000E+00  0.00000E+00  9.000E+00
      25     1     1     2     0     0  4.159950871E+00  4.120173628E+01 -1.491198941E+01  1.325226611E+02  1.250000000E+02  0.00000E+00  9.000E+00
      25     1     1     2     0     0 -7.365905248E-01  7.161455351E+00  2.708979974E+02  2.984335002E+02  1.250000000E+02  0.00000E+00  9.000E+00
      21     1     1     2   501   511 -3.423360346E+00 -4.836319163E+01  1.751083708E+02  1.816966132E+02  3.814697266E-06  0.00000E+00  9.000E+00
#rwgt            1           1   3.2416733784208791E-002           9      131377           0
</event>
<event>
      5   9999  3.79277E-02  4.79129E+01 -1.00000E+00  1.40140E-01
      21    -1     0     0   502   501  0.000000000E+00  0.000000000E+00  8.700418484E+01  8.700418484E+01  0.000000000E+00  0.00000E+00  9.000E+00
      21    -1     0     0   512   502  0.000000000E+00  0.000000000E+00 -6.503518210E+02  6.503518210E+02  0.000000000E+00  0.00000E+00  9.000E+00
      25     1     1     2     0     0 -9.467709040E+01 -8.438659318E+01 -1.389641795E+02  2.258780462E+02  1.250000000E+02  0.00000E+00  9.000E+00
      25     1     1     2     0     0  1.300599314E+02  1.166929260E+02 -2.452384385E+02  3.260363729E+02  1.250000000E+02  0.00000E+00  9.000E+00
      21     1     1     2   512   501 -3.538284098E+01 -3.230633286E+01 -1.791450181E+02  1.854415868E+02  1.907348633E-06  0.00000E+00  9.000E+00
#rwgt            1           1   3.7252403222794689E-002           9      131544           0
</event>
<event>
      5   9999  3.79277E-02  6.47968E+01 -1.00000E+00  1.32942E-01
      21    -1     0     0   502   501  0.000000000E+00  0.000000000E+00  1.444265725E+03  1.444265725E+03  0.000000000E+00  0.00000E+00  9.000E+00
      21    -1     0     0   501   511  0.000000000E+00  0.000000000E+00 -2.297127653E+02  2.297127653E+02  0.000000000E+00  0.00000E+00  9.000E+00
      25     1     1     2     0     0  9.407068273E+01 -4.465936460E+01  1.587040768E+02  2.272789832E+02  1.250000000E+02  0.00000E+00  9.000E+00
      25     1     1     2     0     0 -7.624558285E+01 -1.763738926E+01  1.241415738E+03  1.250144992E+03  1.250000000E+02  0.00000E+00  9.000E+00
      21     1     1     2   502   511 -1.782509988E+01  6.229675386E+01 -1.855668551E+02  1.965545151E+02  2.697398305E-06  0.00000E+00  9.000E+00
#rwgt            1           1   3.8598408591725829E-002           9      131713           0
</event>
<event>
      5   9999  3.79277E-02  1.83415E+01 -1.00000E+00  1.69532E-01
      21    -1     0     0   502   512  0.000000000E+00  0.000000000E+00  1.126668574E+02  1.126668574E+02  0.000000000E+00  0.00000E+00  9.000E+00
      21    -1     0     0   501   502  0.000000000E+00  0.000000000E+00 -7.580608138E+02  7.580608138E+02  0.000000000E+00  0.00000E+00  9.000E+00
      25     1     1     2     0     0  2.027117978E+02 -1.180309557E+02 -4.945812282E+02  5.614792702E+02  1.250000000E+02  0.00000E+00  9.000E+00
      25     1     1     2     0     0 -1.870899838E+02  1.084200158E+02 -1.489636557E+02  2.908139140E+02  1.250000000E+02  0.00000E+00  9.000E+00
      21     1     1     2   501   512 -1.562181407E+01  9.610939931E+00 -1.849072464E+00  1.843448698E+01  3.009887021E-07  0.00000E+00  9.000E+00
#rwgt            1           1   3.4663222960665596E-002           9      132080           0
</event>
<event>
      5   9999  3.79277E-02  1.49304E+01 -1.00000E+00  1.77574E-01
      21    -1     0     0   502   501  0.000000000E+00  0.000000000E+00  1.828959354E+02  1.828959354E+02  0.000000000E+00  0.00000E+00  9.000E+00
       1    -1     0     0   501     0  0.000000000E+00  0.000000000E+00 -1.197890435E+03  1.197890435E+03  0.000000000E+00  0.00000E+00  9.000E+00
      25     1     1     2     0     0 -3.688376560E+01  7.923976677E+00 -1.851515027E+02  2.265596622E+02  1.250000000E+02  0.00000E+00  9.000E+00
      25     1     1     2     0     0  4.318915824E+01 -2.145759945E+01  1.344552259E+02  1.898129072E+02  1.250000000E+02  0.00000E+00  9.000E+00
       1     1     1     2   502     0 -6.305392642E+00  1.353362277E+01 -9.642982234E+02  9.644138015E+02  1.868812365E-05  0.00000E+00  9.000E+00
#rwgt            1           1   4.1725021638384631E-002           9      132252           0
</event>
<event>
      5   9999  3.79277E-02  8.44927E+00 -1.00000E+00  2.04616E-01
      21    -1     0     0   502   501  0.000000000E+00  0.000000000E+00  5.139314917E+01  5.139314917E+01  0.000000000E+00  0.00000E+00  9.000E+00
      21    -1     0     0   511   502  0.000000000E+00  0.000000000E+00 -1.002742852E+03  1.002742852E+03  0.000000000E+00  0.00000E+00  9.000E+00
      25     1     1     2     0     0  1.466961623E+02 -5.469796799E+01 -2.575235758E+02  3.262744609E+02  1.250000000E+02  0.00000E+00  9.000E+00
      25     1     1     2     0     0 -1.392839318E+02  5.875370589E+01 -5.525829021E+02  5.863658204E+02  1.250000000E+02  0.00000E+00  9.000E+00
      21     1     1     2   511   501 -7.412230504E+00 -4.055737906E+00 -1.412432253E+02  1.414957203E+02  1.907348633E-06  0.00000E+00  9.000E+00
#rwgt            1           1   4.3726641057626102E-002           9      132555           0
</event>
<event>
      5   9999 -3.79277E-02  4.25374E+01 -1.00000E+00  1.43203E-01
      21    -1     0     0   502   512  0.000000000E+00  0.000000000E+00  1.673258786E+02  1.673258786E+02  0.000000000E+00  0.00000E+00  9.000E+00
      21    -1     0     0   501   502  0.000000000E+00  0.000000000E+00 -5.531798051E+02  5.531798051E+02  0.000000000E+00  0.00000E+00  9.000E+00
      25     1     1     2     0     0  6.225535617E+01  5.631725812E+01 -1.669412535E+02  2.248149129E+02  1.250000000E+02  0.00000E+00  9.000E+00
      25     1     1     2     0     0 -7.882350192E+01 -9.549540913E+01 -3.315198783E+02  3.753171290E+02  1.250000000E+02  0.00000E+00  9.000E+00
      21     1     1     2   501   512  1.656814575E+01  3.917815100E+01  1.126072053E+02  1.203736418E+02  1.348699152E-06  0.00000E+00  9.000E+00
#rwgt            1           1  -2.6881681248856024E-002           9      132862           0
</event>
<event>
      5   9999  3.79277E-02  3.37981E+01 -1.00000E+00  1.49529E-01
      21    -1     0     0   511   501  0.000000000E+00  0.000000000E+00  1.753664719E+03  1.753664719E+03  0.000000000E+00  0.00000E+00  9.000E+00
      21    -1     0     0   501   502  0.000000000E+00  0.000000000E+00 -6.859993072E+01  6.859993072E+01  0.000000000E+00  0.00000E+00  9.000E+00
      25     1     1     2     0     0  2.637571213E+02  6.102885024E+01  8.140024113E+02  8.669009547E+02  1.250000000E+02  0.00000E+00  9.000E+00
      25     1     1     2     0     0 -2.969567352E+02 -6.736122845E+01  6.192774721E+02  7.013204868E+02  1.250000000E+02  0.00000E+00  9.000E+00
      21     1     1     2   511   502  3.319961392E+01  6.332378219E+00  2.517849050E+02  2.540432085E+02  3.814697266E-06  0.00000E+00  9.000E+00
#rwgt            1           1   3.3920334620002053E-002           9      132984           0
</event>
<event>
      5   9999  3.79277E-02  5.42311E+01 -1.00000E+00  1.37092E-01
      21    -1     0     0   512   501  0.000000000E+00  0.000000000E+00  4.120881052E+02  4.120881052E+02  0.000000000E+00  0.00000E+00  9.000E+00
      21    -1     0     0   501   502  0.000000000E+00  0.000000000E+00 -1.762960075E+02  1.762960075E+02  0.000000000E+00  0.00000E+00  9.000E+00
      25     1     1     2     0     0  4.836900953E+01  2.409083363E+01 -1.249381092E+02  1.848092543E+02  1.250000000E+02  0.00000E+00  9.000E+00
      25     1     1     2     0     0  5.139732449E+00 -1.526918924E+01  2.678704597E+02  2.960390990E+02  1.250000000E+02  0.00000E+00  9.000E+00
      21     1     1     2   512   502 -5.350874197E+01 -8.821644391E+00  9.285974728E+01  1.075357594E+02  1.348699152E-06  0.00000E+00  9.000E+00
#rwgt            1           1   3.1371010217963104E-002           9      133266           0
</event>
<event>
      5   9999  3.79277E-02  8.74429E+01 -1.00000E+00  1.26507E-01
      21    -1     0     0   502   501  0.000000000E+00  0.000000000E+00  1.757894702E+02  1.757894702E+02  0.000000000E+00  0.00000E+00  9.000E+00
       1    -1     0     0   501     0  0.000000000E+00  0.000000000E+00 -2.149839646E+03  2.149839646E+03  0.000000000E+00  0.00000E+00  9.000E+00
      25     1     1     2     0     0  2.033925838E+01 -1.644083262E+00 -3.068342334E+02  3.319467355E+02  1.250000000E+02  0.00000E+00  9.000E+00
      25     1     1     2     0     0 -1.033527937E+02  2.912143807E+01  1.203013168E+02  2.040276083E+02  1.250000000E+02  0.00000E+00  9.000E+00
       1     1     1     2   502     0  8.301353533E+01 -2.747735480E+01 -1.787517259E+03  1.789654772E+03  0.000000000E+00  0.00000E+00  9.000E+00
#rwgt            1           1   2.8194473676737473E-002           9      133423           0
</event>
<event>
      5   9999  3.79277E-02  1.09207E+01 -1.00000E+00  1.91437E-01
      21    -1     0     0   502   511  0.000000000E+00  0.000000000E+00  1.846002040E+02  1.846002040E+02  0.000000000E+00  0.00000E+00  9.000E+00
      21    -1     0     0   501   502  0.000000000E+00  0.000000000E+00 -3.106619782E+02  3.106619782E+02  0.000000000E+00  0.00000E+00  9.000E+00
      25     1     1     2     0     0 -1.215384067E+01 -1.206790776E+02 -1.839118223E+02  2.532976786E+02  1.250000000E+02  0.00000E+00  9.000E+00
      25     1     1     2     0     0  1.582650377E+01  1.103944562E+02 -1.510369695E+01  1.681979068E+02  1.250000000E+02  0.00000E+00  9.000E+00
      21     1     1     2   501   511 -3.672663101E+00  1.028462142E+01  7.295374504E+01  7.376659683E+01  9.536743164E-07  0.00000E+00  9.000E+00
#rwgt            1           1   2.3841686126530887E-002           9      133601           0
</event>
<event>
      5   9999  3.79277E-02  1.83941E+02 -1.00000E+00  1.12988E-01
      21    -1     0     0   502   501  0.000000000E+00  0.000000000E+00  2.234185719E+02  2.234185719E+02  0.000000000E+00  0.00000E+00  9.000E+00
       2    -1     0     0   501     0  0.000000000E+00  0.000000000E+00 -6.367185563E+02  6.367185563E+02  0.000000000E+00  0.00000E+00  9.000E+00
      25     1     1     2     0     0 -8.852223877E-01  1.606907255E+01  9.824075047E+01  1.597975086E+02  1.250000000E+02  0.00000E+00  9.000E+00
      25     1     1     2     0     0 -1.721838025E+02 -7.837138451E+01 -9.662059935E+01  2.464748993E+02  1.250000000E+02  0.00000E+00  9.000E+00
       2     1     1     2   502     0  1.730690249E+02  6.230231197E+01 -4.149201355E+02  4.538647203E+02  5.394796609E-06  0.00000E+00  9.000E+00
#rwgt            1           1   4.5083618994875986E-002           9      133811           0
</event>
<event>
      5   9999  3.79277E-02  5.34915E+01 -1.00000E+00  1.37423E-01
      21    -1     0     0   502   501  0.000000000E+00  0.000000000E+00  4.270189643E+01  4.270189643E+01  0.000000000E+00  0.00000E+00  9.000E+00
       2    -1     0     0   501     0  0.000000000E+00  0.000000000E+00 -1.663047379E+03  1.663047379E+03  0.000000000E+00  0.00000E+00  9.000E+00
      25     1     1     2     0     0 -1.316147028E+01 -4.936595925E+01 -7.658531202E+02  7.776671679E+02  1.250000000E+02  0.00000E+00  9.000E+00
      25     1     1     2     0     0  2.874152606E+01 -1.806330573E+00 -7.879448259E+01  1.505420494E+02  1.250000000E+02  0.00000E+00  9.000E+00
       2     1     1     2   502     0 -1.558005578E+01  5.117228982E+01 -7.756978797E+02  7.775400581E+02  1.525878906E-05  0.00000E+00  9.000E+00
#rwgt            1           1   4.5478401088063239E-002           9      133869           0
</event>
<event>
      5   9999  3.79277E-02  4.74925E+01 -1.00000E+00  1.40363E-01
      21    -1     0     0   502   501  0.000000000E+00  0.000000000E+00  3.984155205E+02  3.984155205E+02  0.000000000E+00  0.00000E+00  9.000E+00
      21    -1     0     0   511   502  0.000000000E+00  0.000000000E+00 -2.288076196E+02  2.288076196E+02  0.000000000E+00  0.00000E+00  9.000E+00
      25     1     1     2     0     0  2.854713876E+01 -1.633776988E+02  5.125876611E+01  2.139151063E+02  1.250000000E+02  0.00000E+00  9.000E+00
      25     1     1     2     0     0 -7.559199111E+01  1.698826961E+02  2.119050950E+02  3.083878222E+02  1.250000000E+02  0.00000E+00  9.000E+00
      21     1     1     2   511   501  4.704485236E+01 -6.504997368E+00 -9.355596022E+01  1.049202117E+02  1.348699152E-06  0.00000E+00  9.000E+00
#rwgt            1           1   3.8890512282923860E-002           9      134093           0
</event>
<event>
      5   9999  3.79277E-02  2.48679E+01 -1.00000E+00  1.58923E-01
      21    -1     0     0   502   501  0.000000000E+00  0.000000000E+00  3.903067206E+02  3.903067206E+02  0.000000000E+00  0.00000E+00  9.000E+00
      21    -1     0     0   512   502  0.000000000E+00  0.000000000E+00 -1.736281756E+02  1.736281756E+02  0.000000000E+00  0.00000E+00  9.000E+00
      25     1     1     2     0     0 -1.351665885E+02 -5.193735893E+01 -6.251508487E+01  2.012476875E+02  1.250000000E+02  0.00000E+00  9.000E+00
      25     1     1     2     0     0  1.304465481E+02  2.752150051E+01  2.836475689E+02  3.374235887E+02  1.250000000E+02  0.00000E+00  9.000E+00
      21     1     1     2   512   501  4.720040421E+00  2.441585842E+01 -4.453938968E+00  2.526362002E+01  1.685873940E-07  0.00000E+00  9.000E+00
#rwgt            1           1   3.5538637838370364E-002           9      134181           0
</event>
<event>
      5   9999  3.79277E-02  3.81448E+01 -1.00000E+00  1.46131E-01
      21    -1     0     0   511   501  0.000000000E+00  0.000000000E+00  2.296135425E+02  2.296135425E+02  0.000000000E+00  0.00000E+00  9.000E+00
      21    -1     0     0   501   502  0.000000000E+00  0.000000000E+00 -7.584689030E+02  7.584689030E+02  0.000000000E+00  0.00000E+00  9.000E+00
      25     1     1     2     0     0  1.833265364E+02 -4.400722653E-02 -5.035034843E+02  5.502266621E+02  1.250000000E+02  0.00000E+00  9.000E+00
      25     1     1     2     0     0 -1.608657091E+02  3.087474481E+01 -1.830472249E+02  2.756126136E+02  1.250000000E+02  0.00000E+00  9.000E+00
      21     1     1     2   511   502 -2.246082736E+01 -3.083073759E+01  1.576953488E+02  1.622431699E+02  0.000000000E+00  0.00000E+00  9.000E+00
#rwgt            1           1   2.0995666191326416E-002           9      134390           0
</event>
<event>
      5   9999 -3.79277E-02  1.19172E+02 -1.00000E+00  1.20496E-01
      21    -1     0     0   502   512  0.000000000E+00  0.000000000E+00  8.457827058E+01  8.457827058E+01  0.000000000E+00  0.00000E+00  9.000E+00
      21    -1     0     0   501   502  0.000000000E+00  0.000000000E+00 -1.250558471E+03  1.250558471E+03  0.000000000E+00  0.00000E+00  9.000E+00
      25     1     1     2     0     0  1.599412998E+02 -1.882787694E+01 -4.490911303E+02  4.931972746E+02  1.250000000E+02  0.00000E+00  9.000E+00
      25     1     1     2     0     0 -2.164996632E+02 -8.606777619E+01 -6.577500584E+02  7.089004906E+02  1.250000000E+02  0.00000E+00  9.000E+00
      21     1     1     2   501   512  5.655836345E+01  1.048956531E+02 -5.913901166E+01  1.330389763E+02  1.907348633E-06  0.00000E+00  9.000E+00
#rwgt            1           1 -0.19021833947179811                9      134517           0
</event>
<event>
      5   9999  3.79277E-02  3.96639E+01 -1.00000E+00  1.45068E-01
      21    -1     0     0   502   511  0.000000000E+00  0.000000000E+00  4.167915457E+02  4.167915457E+02  0.000000000E+00  0.00000E+00  9.000E+00
      21    -1     0     0   501   502  0.000000000E+00  0.000000000E+00 -7.556689888E+02  7.556689888E+02  0.000000000E+00  0.00000E+00  9.000E+00
      25     1     1     2     0     0 -2.043558048E+02  2.235110752E+01 -4.701256020E+02  5.281135755E+02  1.250000000E+02  0.00000E+00  9.000E+00
      25     1     1     2     0     0  1.733319417E+02  2.362163995E+00 -2.106947320E+02  3.001113326E+02  1.250000000E+02  0.00000E+00  9.000E+00
      21     1     1     2   501   511  3.102386309E+01 -2.471327152E+01  3.419428909E+02  3.442356264E+02  5.394796609E-06  0.00000E+00  9.000E+00
#rwgt            1           1   6.2520300688272121E-002           9      134614           0
</event>
<event>
      5   9999 -3.79277E-02  2.39733E+01 -1.00000E+00  1.60127E-01
      21    -1     0     0   502   501  0.000000000E+00  0.000000000E+00  2.404400445E+03  2.404400445E+03  0.000000000E+00  0.00000E+00  9.000E+00
      21    -1     0     0   512   502  0.000000000E+00  0.000000000E+00 -1.016969229E+03  1.016969229E+03  0.000000000E+00  0.00000E+00  9.000E+00
      25     1     1     2     0     0  3.034819945E+02 -2.393110245E+02  1.453003781E+03  1.508713384E+03  1.250000000E+02  0.00000E+00  9.000E+00
      25     1     1     2     0     0 -3.146718282E+02  2.181094702E+02  8.794714840E+02  9.673082196E+02  1.250000000E+02  0.00000E+00  9.000E+00
      21     1     1     2   512   501  1.118983374E+01  2.120155432E+01 -9.450440492E+02  9.453480698E+02  2.157918644E-05  0.00000E+00  9.000E+00
#rwgt            1           1 -0.43209151584728900                9      134715           0
</event>
<event>
      5   9999  3.79277E-02  4.85638E+01 -1.00000E+00  1.39802E-01
      21    -1     0     0   502   501  0.000000000E+00  0.000000000E+00  2.537334961E+02  2.537334961E+02  0.000000000E+00  0.00000E+00  9.000E+00
      21    -1     0     0   511   502  0.000000000E+00  0.000000000E+00 -6.766356874E+02  6.766356874E+02  0.000000000E+00  0.00000E+00  9.000E+00
      25     1     1     2     0     0  2.707280502E+02  1.205971206E+02 -3.336271895E+02  4.634322434E+02  1.250000000E+02  0.00000E+00  9.000E+00
      25     1     1     2     0     0 -2.617992942E+02 -7.286118558E+01  6.422573290E+01  3.059371955E+02  1.250000000E+02  0.00000E+00  9.000E+00
      21     1     1     2   511   501 -8.928756033E+00 -4.773593501E+01 -1.535007348E+02  1.609997446E+02  1.907348633E-06  0.00000E+00  9.000E+00
#rwgt            1           1   4.6880598336483309E-002           9      134936           0
</event>
<event>
      5   9999  3.79277E-02  3.97799E+01 -1.00000E+00  1.44989E-01
      21    -1     0     0   502   512  0.000000000E+00  0.000000000E+00  3.556888626E+02  3.556888626E+02  0.000000000E+00  0.00000E+00  9.000E+00
      21    -1     0     0   501   502  0.000000000E+00  0.000000000E+00 -1.707530222E+02  1.707530222E+02  0.000000000E+00  0.00000E+00  9.000E+00
      25     1     1     2     0     0 -8.147229026E+00 -4.790484188E+01  2.052054262E+02  2.451438724E+02  1.250000000E+02  0.00000E+00  9.000E+00
      25     1     1     2     0     0  4.720983449E+01  4.038456231E+01 -1.135176795E+02  1.799192733E+02  1.250000000E+02  0.00000E+00  9.000E+00
      21     1     1     2   501   512 -3.906260547E+01  7.520279567E+00  9.324809379E+01  1.013787391E+02  1.907348633E-06  0.00000E+00  9.000E+00
#rwgt            1           1   2.4290347736725032E-002           9      135116           0
</event>
<event>
      5   9999  3.79277E-02  4.86005E+01 -1.00000E+00  1.39783E-01
      21    -1     0     0   511   501  0.000000000E+00  0.000000000E+00  3.548831869E+02  3.548831869E+02  0.000000000E+00  0.00000E+00  9.000E+00
      21    -1     0     0   501   502  0.000000000E+00  0.000000000E+00 -1.533426793E+02  1.533426793E+02  0.000000000E+00  0.00000E+00  9.000E+00
      25     1     1     2     0     0 -1.192446019E+02 -3.178197733E+01 -2.175127226E+01  1.769957260E+02  1.250000000E+02  0.00000E+00  9.000E+00
      25     1     1     2     0     0  1.257910149E+02  7.993955801E+01  1.629823603E+02  2.537754167E+02  1.250000000E+02  0.00000E+00  9.000E+00
      21     1     1     2   511   502 -6.546412989E+00 -4.815758069E+01  6.030941949E+01  7.745472341E+01  9.536743164E-07  0.00000E+00  9.000E+00
#rwgt            1           1   4.1180178567004629E-002           9      135216           0
</event>
<event>
      5   9999  3.79277E-02  1.87082E+02 -1.00000E+00  1.12714E-01
      21    -1     0     0   502   501  0.000000000E+00  0.000000000E+00  2.604875822E+02  2.604875822E+02  0.000000000E+00  0.00000E+00  9.000E+00
      21    -1     0     0   512   502  0.000000000E+00  0.000000000E+00 -6.013345103E+02  6.013345103E+02  0.000000000E+00  0.00000E+00  9.000E+00
      25     1     1     2     0     0 -1.043437299E+02  1.243064014E+02  1.535052850E+02  2.559854838E+02  1.250000000E+02  0.00000E+00  9.000E+00
      25     1     1     2     0     0 -7.215862735E+01 -6.228577736E+01 -2.817909072E+02  3.226724360E+02  1.250000000E+02  0.00000E+00  9.000E+00
      21     1     1     2   512   501  1.765023572E+02 -6.202062405E+01 -2.125613060E+02  2.831641727E+02  3.814697266E-06  0.00000E+00  9.000E+00
#rwgt            1           1   4.1093618985168355E-002           9      135316           0
</event>
<event>
      5   9999  3.79277E-02  1.07531E+01 -1.00000E+00  1.92181E-01
      21    -1     0     0   502   501  0.000000000E+00  0.000000000E+00  4.811810563E+01  4.811810563E+01  0.000000000E+00  0.00000E+00  9.000E+00
      21    -1     0     0   501   511  0.000000000E+00  0.000000000E+00 -1.296504588E+03  1.296504588E+03  0.000000000E+00  0.00000E+00  9.000E+00
      25     1     1     2     0     0 -1.384362215E+02  9.989035756E+01 -3.895983066E+02  4.433446870E+02  1.250000000E+02  0.00000E+00  9.000E+00
      25     1     1     2     0     0  1.488927406E+02 -9.738243178E+01 -5.375485192E+02  5.798584282E+02  1.250000000E+02  0.00000E+00  9.000E+00
      21     1     1     2   502   511 -1.045651915E+01 -2.507925788E+00 -3.212396562E+02  3.214195781E+02  3.814697266E-06  0.00000E+00  9.000E+00
#rwgt            1           1   9.2750682491721543E-003           9      135398           0
</event>
<event>
      5   9999  3.79277E-02  1.03145E+02 -1.00000E+00  1.23226E-01
      21    -1     0     0   512   501  0.000000000E+00  0.000000000E+00  2.818238629E+02  2.818238629E+02  0.000000000E+00  0.00000E+00  9.000E+00
      21    -1     0     0   501   502  0.000000000E+00  0.000000000E+00 -4.047577642E+02  4.047577642E+02  0.000000000E+00  0.00000E+00  9.000E+00
      25     1     1     2     0     0  2.636346774E+01  6.272643669E+01  1.038190283E+02  1.761619395E+02  1.250000000E+02  0.00000E+00  9.000E+00
      25     1     1     2     0     0 -1.254543531E+02 -9.135999981E+01 -3.162915310E+02  3.738325519E+02  1.250000000E+02  0.00000E+00  9.000E+00
      21     1     1     2   512   502  9.909088538E+01  2.863356311E+01  8.953860139E+01  1.365871357E+02  1.907348633E-06  0.00000E+00  9.000E+00
#rwgt            1           1   4.4307916595539149E-002           9      135625           0
</event>
<event>
      5   9999  3.79277E-02  1.46952E+02 -1.00000E+00  1.16748E-01
      21    -1     0     0   502   511  0.000000000E+00  0.000000000E+00  1.657816882E+02  1.657816882E+02  0.000000000E+00  0.00000E+00  9.000E+00
      21    -1     0     0   501   502  0.000000000E+00  0.000000000E+00 -5.967488412E+02  5.967488412E+02  0.000000000E+00  0.00000E+00  9.000E+00
      25     1     1     2     0     0  2.611307258E+02  3.770555760E+01 -1.476714245E+02  3.271739822E+02  1.250000000E+02  0.00000E+00  9.000E+00
      25     1     1     2     0     0 -1.273911517E+02  2.319342153E+01 -1.877175874E+02  2.600564034E+02  1.250000000E+02  0.00000E+00  9.000E+00
      21     1     1     2   501   511 -1.337395741E+02 -6.089897913E+01 -9.557814116E+01  1.753001438E+02  1.348699152E-06  0.00000E+00  9.000E+00
#rwgt            1           1  0.20921931252716022                9      135778           0
</event>
<event>
      5   9999  3.79277E-02  8.07297E+01 -1.00000E+00  1.28159E-01
      21    -1     0     0   502   512  0.000000000E+00  0.000000000E+00  9.311352396E+01  9.311352396E+01  0.000000000E+00  0.00000E+00  9.000E+00
      21    -1     0     0   501   502  0.000000000E+00  0.000000000E+00 -1.884215708E+03  1.884215708E+03  0.000000000E+00  0.00000E+00  9.000E+00
      25     1     1     2     0     0  2.007491460E+02  6.869877476E+00 -1.658946404E+03  1.675731359E+03  1.250000000E+02  0.00000E+00  9.000E+00
      25     1     1     2     0     0 -1.234611440E+02 -3.019032251E+01 -4.721549406E+01  1.844136994E+02  1.250000000E+02  0.00000E+00  9.000E+00
      21     1     1     2   501   512 -7.728800198E+01  2.332044503E+01 -8.494028547E+01  1.171841734E+02  1.348699152E-06  0.00000E+00  9.000E+00
#rwgt            1           1   3.7548533519964476E-002           9      135832           0
</event>
<event>
      5   9999  3.79277E-02  5.54262E+00 -1.00000E+00  2.30956E-01
      21    -1     0     0   502   501  0.000000000E+00  0.000000000E+00  8.535705281E+02  8.535705281E+02  0.000000000E+00  0.00000E+00  9.000E+00
      21    -1     0     0   501   511  0.000000000E+00  0.000000000E+00 -6.604266574E+01  6.604266574E+01  0.000000000E+00  0.00000E+00  9.000E+00
      25     1     1     2     0     0  7.223492543E+01  7.928304972E+01  6.699220188E+01  1.778106902E+02  1.250000000E+02  0.00000E+00  9.000E+00
      25     1     1     2     0     0 -6.744808245E+01 -8.207711291E+01  7.162510784E+02  7.347969132E+02  1.250000000E+02  0.00000E+00  9.000E+00
      21     1     1     2   502   511 -4.786842987E+00  2.794063194E+00  4.284582102E+00  7.005590532E+00  1.032382731E-07  0.00000E+00  9.000E+00
#rwgt            1           1   4.9937306043637553E-002           9      135916           0
</event>
<event>
      5   9999  3.79277E-02  1.75799E+02 -1.00000E+00  1.13726E-01
      21    -1     0     0   512   501  0.000000000E+00  0.000000000E+00  4.385566078E+02  4.385566078E+02  0.000000000E+00  0.00000E+00  9.000E+00
      21    -1     0     0   501   502  0.000000000E+00  0.000000000E+00 -3.486933626E+02  3.486933626E+02  0.000000000E+00  0.00000E+00  9.000E+00
      25     1     1     2     0     0  1.404493264E+02  3.335150950E+00  4.096331543E+01  1.924581246E+02  1.250000000E+02  0.00000E+00  9.000E+00
      25     1     1     2     0     0 -2.136144561E+02 -1.631852099E+02 -1.475695467E+02  3.311530156E+02  1.250000000E+02  0.00000E+00  9.000E+00
      21     1     1     2   512   502  7.316512973E+01  1.598500590E+02  1.964694765E+02  2.636388302E+02  2.697398305E-06  0.00000E+00  9.000E+00
#rwgt            1           1   3.0989057248967004E-002           9      136421           0
</event>
<event>
      5   9999  3.79277E-02  5.46217E+01 -1.00000E+00  1.36920E-01
      21    -1     0     0   502   501  0.000000000E+00  0.000000000E+00  1.332026868E+02  1.332026868E+02  0.000000000E+00  0.00000E+00  9.000E+00
       1    -1     0     0   501     0  0.000000000E+00  0.000000000E+00 -2.652156407E+03  2.652156407E+03  0.000000000E+00  0.00000E+00  9.000E+00
      25     1     1     2     0     0  5.673439343E+01 -1.753452599E+02 -1.965496246E+02  2.970210539E+02  1.250000000E+02  0.00000E+00  9.000E+00
      25     1     1     2     0     0 -1.078544707E+02  1.561029047E+02 -7.354994143E+01  2.388206389E+02  1.250000000E+02  0.00000E+00  9.000E+00
       1     1     1     2   502     0  5.112007725E+01  1.924235517E+01 -2.248854154E+03  2.249517401E+03  3.051757812E-05  0.00000E+00  9.000E+00
#rwgt            1           1   2.9893515162099829E-002           9      136469           0
</event>
<event>
      5   9999  3.79277E-02  2.01536E+01 -1.00000E+00  1.66095E-01
      21    -1     0     0   511   501  0.000000000E+00  0.000000000E+00  4.820508081E+01  4.820508081E+01  0.000000000E+00  0.00000E+00  9.000E+00
      21    -1     0     0   501   502  0.000000000E+00  0.000000000E+00 -1.520320935E+03  1.520320935E+03  0.000000000E+00  0.00000E+00  9.000E+00
      25     1     1     2     0     0 -9.239694823E+01  1.334623164E+02 -1.135710901E+03  1.154042303E+03  1.250000000E+02  0.00000E+00  9.000E+00
      25     1     1     2     0     0  1.018778354E+02 -1.512466134E+02 -2.973531566E+02  3.705381642E+02  1.250000000E+02  0.00000E+00  9.000E+00
      21     1     1     2   511   502 -9.480887201E+00  1.778429698E+01 -3.905179662E+01  4.394554881E+01  4.768371582E-07  0.00000E+00  9.000E+00
#rwgt            1           1   3.7220137388164098E-002           9      136565           0
</event>
<event>
      5   9999  3.79277E-02  2.34308E+01 -1.00000E+00  1.60889E-01
      21    -1     0     0   512   501  0.000000000E+00  0.000000000E+00  3.024925274E+02  3.024925274E+02  0.000000000E+00  0.00000E+00  9.000E+00
      21    -1     0     0   501   502  0.000000000E+00  0.000000000E+00 -1.660230115E+02  1.660230115E+02  0.000000000E+00  0.00000E+00  9.000E+00
      25     1     1     2     0     0  8.375541104E+01  2.974519239E+01  1.530305569E+02  2.166635564E+02  1.250000000E+02  0.00000E+00  9.000E+00
      25     1     1     2     0     0 -7.997876177E+01 -5.286963472E+01 -8.535935875E+01  1.791731585E+02  1.250000000E+02  0.00000E+00  9.000E+00
      21     1     1     2   512   502 -3.776649264E+00  2.312444234E+01  6.879831775E+01  7.267882386E+01  1.348699152E-06  0.00000E+00  9.000E+00
#rwgt            1           1   3.3418489220769690E-002           9      136806           0
</event>
<event>
      5   9999  3.79277E-02  5.81145E+01 -1.00000E+00  1.35449E-01
      -1    -1     0     0     0   501  0.000000000E+00  0.000000000E+00  8.820455589E+01  8.820455589E+01  0.000000000E+00  0.00000E+00  9.000E+00
      21    -1     0     0   501   502  0.000000000E+00  0.000000000E+00 -1.550837766E+03  1.550837766E+03  0.000000000E+00  0.00000E+00  9.000E+00
      25     1     1     2     0     0 -1.281955434E+02 -5.951645655E+00 -9.435795064E+02  9.604357367E+02  1.250000000E+02  0.00000E+00  9.000E+00
      25     1     1     2     0     0  1.713729595E+02 -3.294580443E+01 -5.650766160E+02  6.044755572E+02  1.250000000E+02  0.00000E+00  9.000E+00
      -1     1     1     2     0   502 -4.317741605E+01  3.889745009E+01  4.602291221E+01  7.413102811E+01  1.907348633E-06  0.00000E+00  9.000E+00
#rwgt            1           1   3.9764087109750941E-002           9      136982           0
</event>
<event>
      5   9999  3.79277E-02  1.26905E+02 -1.00000E+00  1.19346E-01
       2    -1     0     0   502     0  0.000000000E+00  0.000000000E+00  1.311065393E+03  1.311065393E+03  0.000000000E+00  0.00000E+00  9.000E+00
      21    -1     0     0   501   502  0.000000000E+00  0.000000000E+00 -3.678234271E+02  3.678234271E+02  0.000000000E+00  0.00000E+00  9.000E+00
      25     1     1     2     0     0 -2.555515866E+02  8.351782407E+01 -1.357019233E+01  2.968012642E+02  1.250000000E+02  0.00000E+00  9.000E+00
      25     1     1     2     0     0  2.021542633E+02  3.160644463E+01 -1.402047622E+02  2.777547279E+02  1.250000000E+02  0.00000E+00  9.000E+00
       2     1     1     2   501     0  5.339732325E+01 -1.151242687E+02  1.097016920E+03  1.104332828E+03  2.642899792E-05  0.00000E+00  9.000E+00
#rwgt            2          18   2.4569954349805715E-003           9      137204           0
</event>
<event>
      5   9999  3.79277E-02  2.44173E+02 -1.00000E+00  1.08581E-01
      21    -1     0     0   502   511  0.000000000E+00  0.000000000E+00  3.465121207E+02  3.465121207E+02  0.000000000E+00  0.00000E+00  9.000E+00
      21    -1     0     0   501   502  0.000000000E+00  0.000000000E+00 -6.999377945E+02  6.999377945E+02  0.000000000E+00  0.00000E+00  9.000E+00
      25     1     1     2     0     0 -1.779749522E+02  8.573248177E+01 -1.609079314E+02  2.837983517E+02  1.250000000E+02  0.00000E+00  9.000E+00
      25     1     1     2     0     0  2.436771886E+02  1.494347867E+02 -3.525014055E+02  4.707351364E+02  1.250000000E+02  0.00000E+00  9.000E+00
      21     1     1     2   501   511 -6.570223645E+01 -2.351672685E+02  1.599836631E+02  2.919164272E+02  2.697398305E-06  0.00000E+00  9.000E+00
#rwgt            2          11   2.5762604587519630E-003           9      137508           0
</event>
<event>
      5   9999  3.79277E-02  6.55521E+01 -1.00000E+00  1.32681E-01
      21    -1     0     0   512   501  0.000000000E+00  0.000000000E+00  1.887673072E+03  1.887673072E+03  0.000000000E+00  0.00000E+00  9.000E+00
      21    -1     0     0   501   502  0.000000000E+00  0.000000000E+00 -5.544184475E+01  5.544184475E+01  0.000000000E+00  0.00000E+00  9.000E+00
      25     1     1     2     0     0  1.598226511E+02 -1.437864905E+02  4.145969049E+02  4.834598517E+02  1.250000000E+02  0.00000E+00  9.000E+00
      25     1     1     2     0     0 -2.214278638E+02  1.213840295E+02  1.121576540E+03  1.156426961E+03  1.250000000E+02  0.00000E+00  9.000E+00
      21     1     1     2   512   502  6.160521262E+01  2.240246094E+01  2.960577823E+02  3.032281038E+02  0.000000000E+00  0.00000E+00  9.000E+00
#rwgt            1           1   4.4850110683016288E-002           9      137633           0
</event>
<event>
      5   9999  3.79277E-02  2.83079E+01 -1.00000E+00  1.54812E-01
      21    -1     0     0   511   501  0.000000000E+00  0.000000000E+00  3.979718281E+02  3.979718281E+02  0.000000000E+00  0.00000E+00  9.000E+00
      21    -1     0     0   501   502  0.000000000E+00  0.000000000E+00 -3.230541268E+02  3.230541268E+02  0.000000000E+00  0.00000E+00  9.000E+00
      25     1     1     2     0     0  2.419578824E+02  6.955300164E+01  4.628364208E+01  2.848656041E+02  1.250000000E+02  0.00000E+00  9.000E+00
      25     1     1     2     0     0 -2.205037924E+02 -5.108521750E+01 -1.198568589E+02  2.849952430E+02  1.250000000E+02  0.00000E+00  9.000E+00
      21     1     1     2   511   502 -2.145408999E+01 -1.846778414E+01  1.484909182E+02  1.511651078E+02  1.907348633E-06  0.00000E+00  9.000E+00
#rwgt            1           1  0.11148673476677133                9      137818           0
</event>
<event>
      5   9999  3.79277E-02  1.73870E+01 -1.00000E+00  1.71548E-01
      21    -1     0     0   502   512  0.000000000E+00  0.000000000E+00  2.739694203E+03  2.739694203E+03  0.000000000E+00  0.00000E+00  9.000E+00
      21    -1     0     0   501   502  0.000000000E+00  0.000000000E+00 -3.242371517E+02  3.242371517E+02  0.000000000E+00  0.00000E+00  9.000E+00
      25     1     1     2     0     0  3.386304757E+01 -1.347075387E+02 -4.909616401E+01  1.932052285E+02  1.250000000E+02  0.00000E+00  9.000E+00
      25     1     1     2     0     0 -1.703076583E+01  1.390642321E+02 -1.596538411E+02  2.464614708E+02  1.250000000E+02  0.00000E+00  9.000E+00
      21     1     1     2   501   512 -1.683228174E+01 -4.356693372E+00  2.624207057E+03  2.624264656E+03  3.051757812E-05  0.00000E+00  9.000E+00
#rwgt            1           1   4.7575845852381587E-002           9      138051           0
</event>
<event>
      5   9999  3.79277E-02  1.45886E+02 -1.00000E+00  1.16874E-01
      21    -1     0     0   502   511  0.000000000E+00  0.000000000E+00  6.269338613E+02  6.269338613E+02  0.000000000E+00  0.00000E+00  9.000E+00
      21    -1     0     0   501   502  0.000000000E+00  0.000000000E+00 -1.564607924E+02  1.564607924E+02  0.000000000E+00  0.00000E+00  9.000E+00
      25     1     1     2     0     0  2.320731371E+02  9.991287362E+01  2.367723004E+02  3.681394376E+02  1.250000000E+02  0.00000E+00  9.000E+00
      25     1     1     2     0     0 -8.638515695E+01 -1.075119179E+02  7.779358762E+01  2.017375774E+02  1.250000000E+02  0.00000E+00  9.000E+00
      21     1     1     2   501   511 -1.456879801E+02  7.599044322E+00  1.559071808E+02  2.135176387E+02  1.907348633E-06  0.00000E+00  9.000E+00
#rwgt            1           1   3.5372633706265928E-002           9      138189           0
</event>
<event>
      5   9999  3.79277E-02  8.75782E+01 -1.00000E+00  1.26475E-01
      21    -1     0     0   512   501  0.000000000E+00  0.000000000E+00  4.844903645E+02  4.844903645E+02  0.000000000E+00  0.00000E+00  9.000E+00
      21    -1     0     0   501   502  0.000000000E+00  0.000000000E+00 -1.975536740E+02  1.975536740E+02  0.000000000E+00  0.00000E+00  9.000E+00
      25     1     1     2     0     0  8.710833927E+01 -1.790202199E+02  6.412472910E+01  2.436659245E+02  1.250000000E+02  0.00000E+00  9.000E+00
      25     1     1     2     0     0 -1.743613275E+02  1.714803054E+02  1.107132435E+02  2.961246190E+02  1.250000000E+02  0.00000E+00  9.000E+00
      21     1     1     2   512   502  8.725298823E+01  7.539914502E+00  1.120987179E+02  1.422534950E+02  0.000000000E+00  0.00000E+00  9.000E+00
#rwgt            1           1   5.0329012967075884E-002           9      138342           0
</event>
<event>
      5   9999  3.79277E-02  1.22565E+02 -1.00000E+00  1.19980E-01
       2    -1     0     0   502     0  0.000000000E+00  0.000000000E+00  8.622313100E+02  8.622313100E+02  0.000000000E+00  0.00000E+00  9.000E+00
      21    -1     0     0   501   502  0.000000000E+00  0.000000000E+00 -2.504522490E+02  2.504522490E+02  0.000000000E+00  0.00000E+00  9.000E+00
      25     1     1     2     0     0  2.354341658E+02  2.766686822E+02  1.942659788E+02  4.305102515E+02  1.250000000E+02  0.00000E+00  9.000E+00
      25     1     1     2     0     0 -2.016338272E+02 -1.588563363E+02  4.377030459E+01  2.888466296E+02  1.250000000E+02  0.00000E+00  9.000E+00
       2     1     1     2   501     0 -3.380033865E+01 -1.178123458E+02  3.737427777E+02  3.933266780E+02  5.394796609E-06  0.00000E+00  9.000E+00
#rwgt            1           1   3.3008595117337544E-002           9      138414           0
</event>
<event>
      5   9999  3.79277E-02  5.59213E+01 -1.00000E+00  1.36358E-01
      21    -1     0     0   502   511  0.000000000E+00  0.000000000E+00  3.847143328E+02  3.847143328E+02  0.000000000E+00  0.00000E+00  9.000E+00
      21    -1     0     0   501   502  0.000000000E+00  0.000000000E+00 -1.492406376E+02  1.492406376E+02  0.000000000E+00  0.00000E+00  9.000E+00
      25     1     1     2     0     0 -1.492780606E+01 -8.630299418E+01 -7.471973481E+01  1.699384741E+02  1.250000000E+02  0.00000E+00  9.000E+00
      25     1     1     2     0     0 -5.295189063E+00  3.416639042E+01  2.513590792E+02  2.828458378E+02  1.250000000E+02  0.00000E+00  9.000E+00
      21     1     1     2   501   511  2.022299512E+01  5.213660376E+01  5.883435074E+01  8.117065856E+01  1.168007728E-06  0.00000E+00  9.000E+00
#rwgt            1           1   5.2349986390576829E-002           9      138621           0
</event>
<event>
      5   9999  3.79277E-02  3.24152E+01 -1.00000E+00  1.50740E-01
      21    -1     0     0   512   501  0.000000000E+00  0.000000000E+00  5.632852172E+02  5.632852172E+02  0.000000000E+00  0.00000E+00  9.000E+00
      21    -1     0     0   501   502  0.000000000E+00  0.000000000E+00 -3.277029906E+02  3.277029906E+02  0.000000000E+00  0.00000E+00  9.000E+00
      25     1     1     2     0     0  1.735375309E+02 -9.195671996E+01 -1.126872657E+02  2.586401609E+02  1.250000000E+02  0.00000E+00  9.000E+00
      25     1     1     2     0     0 -1.776271720E+02  5.980054650E+01 -5.164083763E+01  2.311261424E+02  1.250000000E+02  0.00000E+00  9.000E+00
      21     1     1     2   512   502  4.089641010E+00  3.215617347E+01  3.999103300E+02  4.012219045E+02  7.629394531E-06  0.00000E+00  9.000E+00
#rwgt            1           1   2.3614393854277035E-002           9      138710           0
</event>
<event>
      5   9999  3.79277E-02  9.71706E+01 -1.00000E+00  1.24391E-01
      21    -1     0     0   502   501  0.000000000E+00  0.000000000E+00  8.390746556E+01  8.390746556E+01  0.000000000E+00  0.00000E+00  9.000E+00
       2    -1     0     0   501     0  0.000000000E+00  0.000000000E+00 -1.408019247E+03  1.408019247E+03  0.000000000E+00  0.00000E+00  9.000E+00
      25     1     1     2     0     0 -4.902671036E+01  1.585979773E+02 -5.793264521E+02  6.154681753E+02  1.250000000E+02  0.00000E+00  9.000E+00
      25     1     1     2     0     0  5.143706282E+01 -6.145726114E+01 -2.552345625E+01  1.506625806E+02  1.250000000E+02  0.00000E+00  9.000E+00
       2     1     1     2   502     0 -2.410352456E+00 -9.714071620E+01 -7.192618732E+02  7.257959568E+02  0.000000000E+00  0.00000E+00  9.000E+00
#rwgt            1           1   4.2064215158586424E-002           9      138834           0
</event>
<event>
      5   9999  3.79277E-02  1.79197E+02 -1.00000E+00  1.13412E-01
      21    -1     0     0   502   501  0.000000000E+00  0.000000000E+00  1.098484613E+02  1.098484613E+02  0.000000000E+00  0.00000E+00  9.000E+00
       2    -1     0     0   501     0  0.000000000E+00  0.000000000E+00 -1.763214360E+03  1.763214360E+03  0.000000000E+00  0.00000E+00  9.000E+00
      25     1     1     2     0     0  2.075553907E+02  2.458304927E+01 -1.908671283E+02  3.094169149E+02  1.250000000E+02  0.00000E+00  9.000E+00
      25     1     1     2     0     0 -7.135686113E+01  9.187093954E+01 -1.187162428E+02  2.079678279E+02  1.250000000E+02  0.00000E+00  9.000E+00
       2     1     1     2   502     0 -1.361985296E+02 -1.164539888E+02 -1.343782528E+03  1.355678078E+03  3.051757812E-05  0.00000E+00  9.000E+00
#rwgt            1           1   4.5700059673160522E-002           9      138897           0
</event>
<event>
      5   9999  3.79277E-02  3.73733E+01 -1.00000E+00  1.46694E-01
      21    -1     0     0   502   511  0.000000000E+00  0.000000000E+00  1.435458248E+03  1.435458248E+03  0.000000000E+00  0.00000E+00  9.000E+00
      21    -1     0     0   501   502  0.000000000E+00  0.000000000E+00 -1.085650093E+02  1.085650093E+02  0.000000000E+00  0.00000E+00  9.000E+00
      25     1     1     2     0     0  8.402061881E+00  5.001181187E+01  2.150286801E+02  2.538387465E+02  1.250000000E+02  0.00000E+00  9.000E+00
      25     1     1     2     0     0 -4.340353769E+01 -6.311373379E+01 -2.838311586E+01  1.493245182E+02  1.250000000E+02  0.00000E+00  9.000E+00
      21     1     1     2   501   511  3.500147581E+01  1.310192192E+01  1.140247675E+03  1.140859993E+03  1.525878906E-05  0.00000E+00  9.000E+00
#rwgt            1           1   4.4679397669691541E-002           9      138953           0
</event>
<event>
      5   9999  3.79277E-02  3.11885E+01 -1.00000E+00  1.51877E-01
      21    -1     0     0   512   501  0.000000000E+00  0.000000000E+00  1.017337218E+03  1.017337218E+03  0.000000000E+00  0.00000E+00  9.000E+00
      21    -1     0     0   501   502  0.000000000E+00  0.000000000E+00 -2.702674833E+02  2.702674833E+02  0.000000000E+00  0.00000E+00  9.000E+00
      25     1     1     2     0     0 -2.757534292E+01  5.194884585E+01  4.947448034E+01  1.467372016E+02  1.250000000E+02  0.00000E+00  9.000E+00
      25     1     1     2     0     0  1.328262650E+01 -7.966958140E+01 -1.963503373E+02  2.463780130E+02  1.250000000E+02  0.00000E+00  9.000E+00
      21     1     1     2   512   502  1.429271641E+01  2.772073554E+01  8.939455917E+02  8.944894867E+02  1.525878906E-05  0.00000E+00  9.000E+00
#rwgt            1           1   4.2669920912378152E-002           9      139051           0
</event>
<event>
      5   9999  3.79277E-02  4.24622E+01 -1.00000E+00  1.43249E-01
      21    -1     0     0   502   511  0.000000000E+00  0.000000000E+00  2.019670417E+02  2.019670417E+02  0.000000000E+00  0.00000E+00  9.000E+00
      21    -1     0     0   501   502  0.000000000E+00  0.000000000E+00 -2.155720847E+02  2.155720847E+02  0.000000000E+00  0.00000E+00  9.000E+00
      25     1     1     2     0     0  5.965673747E+01 -6.491584037E+01 -1.296987572E+01  1.535128996E+02  1.250000000E+02  0.00000E+00  9.000E+00
      25     1     1     2     0     0 -2.786711019E+01  3.676513507E+01 -9.291946284E+01  1.624416128E+02  1.250000000E+02  0.00000E+00  9.000E+00
      21     1     1     2   501   511 -3.178962728E+01  2.815070531E+01  9.228429557E+01  1.015846141E+02  1.348699152E-06  0.00000E+00  9.000E+00
#rwgt            1           1  0.12905538122270532                9      139350           0
</event>
<event>
      5   9999  3.79277E-02  1.87988E+02 -1.00000E+00  1.12636E-01
      21    -1     0     0   502   501  0.000000000E+00  0.000000000E+00  3.383052885E+02  3.383052885E+02  0.000000000E+00  0.00000E+00  9.000E+00
      21    -1     0     0   501   512  0.000000000E+00  0.000000000E+00 -1.728495149E+03  1.728495149E+03  0.000000000E+00  0.00000E+00  9.000E+00
      25     1     1     2     0     0 -5.735171629E+02  2.431831894E+02 -3.181349306E+02  7.105595216E+02  1.250000000E+02  0.00000E+00  9.000E+00
      25     1     1     2     0     0  5.518727667E+02 -5.644548355E+01 -5.109763474E+02  7.645073387E+02  1.250000000E+02  0.00000E+00  9.000E+00
      21     1     1     2   502   512  2.164439617E+01 -1.867377059E+02 -5.610785825E+02  5.917335773E+02  7.629394531E-06  0.00000E+00  9.000E+00
#rwgt            2          11   3.4222196135137170E-003           9      139485           0
</event>
<event>
      5   9999  3.79277E-02  3.73974E+01 -1.00000E+00  1.46676E-01
      21    -1     0     0   502   501  0.000000000E+00  0.000000000E+00  9.823302331E+01  9.823302331E+01  0.000000000E+00  0.00000E+00  9.000E+00
      21    -1     0     0   501   511  0.000000000E+00  0.000000000E+00 -7.570980370E+02  7.570980370E+02  0.000000000E+00  0.00000E+00  9.000E+00
      25     1     1     2     0     0 -1.889553932E+02 -6.035073544E+01 -1.461905213E+02  2.763024075E+02  1.250000000E+02  0.00000E+00  9.000E+00
      25     1     1     2     0     0  1.644646223E+02  8.861314939E+01 -3.831991950E+02  4.442606502E+02  1.250000000E+02  0.00000E+00  9.000E+00
      21     1     1     2   502   511  2.449077087E+01 -2.826241395E+01 -1.294752974E+02  1.347680026E+02  1.907348633E-06  0.00000E+00  9.000E+00
#rwgt            1           1   3.6297517149471208E-002           9      139580           0
</event>
<event>
      5   9999  3.79277E-02  2.56497E+01 -1.00000E+00  1.57921E-01
      21    -1     0     0   512   501  0.000000000E+00  0.000000000E+00  1.253004163E+03  1.253004163E+03  0.000000000E+00  0.00000E+00  9.000E+00
      21    -1     0     0   501   502  0.000000000E+00  0.000000000E+00 -5.485293943E+01  5.485293943E+01  0.000000000E+00  0.00000E+00  9.000E+00
      25     1     1     2     0     0  4.924671116E+01 -1.202064351E+01  6.037438549E+02  6.186286259E+02  1.250000000E+02  0.00000E+00  9.000E+00
      25     1     1     2     0     0 -7.177326830E+01 -2.456669504E-01  6.317471978E+01  1.573769602E+02  1.250000000E+02  0.00000E+00  9.000E+00
      21     1     1     2   512   502  2.252655714E+01  1.226631046E+01  5.312326485E+02  5.318515160E+02  1.078959322E-05  0.00000E+00  9.000E+00
#rwgt            1           1   4.1906712629961831E-002           9      139786           0
</event>
<event>
      5   9999  3.79277E-02  9.31737E+01 -1.00000E+00  1.25225E-01
      21    -1     0     0   502   511  0.000000000E+00  0.000000000E+00  6.090312190E+01  6.090312190E+01  0.000000000E+00  0.00000E+00  9.000E+00
      21    -1     0     0   501   502  0.000000000E+00  0.000000000E+00 -8.512228892E+02  8.512228892E+02  0.000000000E+00  0.00000E+00  9.000E+00
      25     1     1     2     0     0  8.184566503E+00  2.425309326E+00 -1.092159755E+02  1.662107053E+02  1.250000000E+02  0.00000E+00  9.000E+00
      25     1     1     2     0     0 -9.079791955E+01  4.066028247E+01 -6.046202748E+02  6.253704481E+02  1.250000000E+02  0.00000E+00  9.000E+00
      21     1     1     2   501   511  8.261335305E+01 -4.308559180E+01 -7.648351702E+01  1.205448576E+02  1.348699152E-06  0.00000E+00  9.000E+00
#rwgt            1           1   4.9819712159814372E-002           9      139974           0
</event>
<event>
      5   9999  3.79277E-02  3.39576E+01 -1.00000E+00  1.49394E-01
      21    -1     0     0   512   501  0.000000000E+00  0.000000000E+00  1.145288425E+03  1.145288425E+03  0.000000000E+00  0.00000E+00  9.000E+00
      21    -1     0     0   501   502  0.000000000E+00  0.000000000E+00 -7.944588506E+01  7.944588506E+01  0.000000000E+00  0.00000E+00  9.000E+00
      25     1     1     2     0     0 -1.508828760E+01 -1.400493580E+02  1.524619287E+02  2.423037738E+02  1.250000000E+02  0.00000E+00  9.000E+00
      25     1     1     2     0     0  4.464241056E+01  1.233260052E+02  2.064286747E+02  2.746635143E+02  1.250000000E+02  0.00000E+00  9.000E+00
      21     1     1     2   512   502 -2.955412296E+01  1.672335283E+01  7.069519368E+02  7.077670222E+02  1.078959322E-05  0.00000E+00  9.000E+00
#rwgt            1           1   3.9015943196388098E-002           9      140022           0
</event>
<event>
      5   9999  3.79277E-02  1.25524E+02 -1.00000E+00  1.19544E-01
      21    -1     0     0   511   501  0.000000000E+00  0.000000000E+00  1.443859543E+02  1.443859543E+02  0.000000000E+00  0.00000E+00  9.000E+00
      21    -1     0     0   501   502  0.000000000E+00  0.000000000E+00 -3.958874812E+02  3.958874812E+02  0.000000000E+00  0.00000E+00  9.000E+00
      25     1     1     2     0     0  1.726022984E+01  7.644408869E+01 -2.140681298E+02  2.599841888E+02  1.250000000E+02  0.00000E+00  9.000E+00
      25     1     1     2     0     0  5.733212904E+01  2.451261322E+01  2.199252534E+01  1.414090252E+02  1.250000000E+02  0.00000E+00  9.000E+00
      21     1     1     2   511   502 -7.459235888E+01 -1.009567019E+02 -5.942592246E+01  1.388802215E+02  0.000000000E+00  0.00000E+00  9.000E+00
#rwgt            1           1   2.7972988451316145E-002           9      140115           0
</event>
<event>
      5   9999  3.79277E-02  4.78432E+01 -1.00000E+00  1.40177E-01
      -1    -1     0     0     0   501  0.000000000E+00  0.000000000E+00  4.202171827E+02  4.202171827E+02  0.000000000E+00  0.00000E+00  9.000E+00
      21    -1     0     0   501   502  0.000000000E+00  0.000000000E+00 -1.363991516E+02  1.363991516E+02  0.000000000E+00  0.00000E+00  9.000E+00
      25     1     1     2     0     0  2.886892615E+01  1.404533733E+02  4.118470083E+01  1.946323317E+02  1.250000000E+02  0.00000E+00  9.000E+00
      25     1     1     2     0     0 -1.515389574E+00 -1.797058580E+02  1.815703279E+02  2.844104003E+02  1.250000000E+02  0.00000E+00  9.000E+00
      -1     1     1     2     0   502 -2.735353657E+01  3.925248474E+01  6.106300241E+01  7.757360237E+01  6.743495762E-07  0.00000E+00  9.000E+00
#rwgt            1           1   4.0355493862750454E-002           9      140149           0
</event>
<event>
      5   9999  3.79277E-02  2.19912E+01 -1.00000E+00  1.63038E-01
      21    -1     0     0   502   511  0.000000000E+00  0.000000000E+00  6.064502612E+02  6.064502612E+02  0.000000000E+00  0.00000E+00  9.000E+00
      21    -1     0     0   501   502  0.000000000E+00  0.000000000E+00 -9.989622030E+02  9.989622030E+02  0.000000000E+00  0.00000E+00  9.000E+00
      25     1     1     2     0     0  9.298032839E+01 -8.962798493E+01 -1.148832442E+02  2.133112208E+02  1.250000000E+02  0.00000E+00  9.000E+00
      25     1     1     2     0     0 -1.148733543E+02  8.755241463E+01 -8.237149512E+02  8.455723705E+02  1.250000000E+02  0.00000E+00  9.000E+00
      21     1     1     2   501   511  2.189302587E+01  2.075570298E+00  5.460862536E+02  5.465288729E+02  7.629394531E-06  0.00000E+00  9.000E+00
#rwgt            1           1   4.0597040610039575E-002           9      140375           0
</event>
<event>
      5   9999  3.79277E-02  1.53955E+02 -1.00000E+00  1.15947E-01
      21    -1     0     0   502   512  0.000000000E+00  0.000000000E+00  9.740925042E+02  9.740925042E+02  0.000000000E+00  0.00000E+00  9.000E+00
      21    -1     0     0   501   502  0.000000000E+00  0.000000000E+00 -1.636637279E+02  1.636637279E+02  0.000000000E+00  0.00000E+00  9.000E+00
      25     1     1     2     0     0  2.018894043E+01 -2.139992232E+02 -1.685287173E+01  2.492233539E+02  1.250000000E+02  0.00000E+00  9.000E+00
      25     1     1     2     0     0 -4.588447342E+01  6.220393502E+01  2.401521934E+02  2.815542407E+02  1.250000000E+02  0.00000E+00  9.000E+00
      21     1     1     2   501   512  2.569553300E+01  1.517952882E+02  5.871294546E+02  6.069786375E+02  7.629394531E-06  0.00000E+00  9.000E+00
#rwgt            1           1   3.8727319714971800E-002           9      140619           0
</event>
<event>
      5   9999  3.79277E-02  2.28897E+01 -1.00000E+00  1.61674E-01
      21    -1     0     0   511   501  0.000000000E+00  0.000000000E+00  1.166951192E+02  1.166951192E+02  0.000000000E+00  0.00000E+00  9.000E+00
      21    -1     0     0   501   502  0.000000000E+00  0.000000000E+00 -3.777208731E+02  3.777208731E+02  0.000000000E+00  0.00000E+00  9.000E+00
      25     1     1     2     0     0 -2.640574192E+00  1.162160676E+02 -2.250834533E+02  2.824901909E+02  1.250000000E+02  0.00000E+00  9.000E+00
      25     1     1     2     0     0  1.579164394E+01 -1.349507174E+02 -2.421061888E+01  1.862047964E+02  1.250000000E+02  0.00000E+00  9.000E+00
      21     1     1     2   511   502 -1.315106975E+01  1.873464981E+01 -1.173168182E+01  2.572100499E+01  3.769728732E-07  0.00000E+00  9.000E+00
#rwgt            1           1   3.7989503100776860E-002           9      140694           0
</event>
<event>
      5   9999  3.79277E-02  1.26281E+02 -1.00000E+00  1.19435E-01
      21    -1     0     0   502   501  0.000000000E+00  0.000000000E+00  3.347831925E+02  3.347831925E+02  0.000000000E+00  0.00000E+00  9.000E+00
      21    -1     0     0   501   512  0.000000000E+00  0.000000000E+00 -4.314585127E+02  4.314585127E+02  0.000000000E+00  0.00000E+00  9.000E+00
      25     1     1     2     0     0  4.542168326E+01  1.936706208E+02  2.026285655E+02  3.102495354E+02  1.250000000E+02  0.00000E+00  9.000E+00
      25     1     1     2     0     0  6.937757080E+01 -1.410590132E+02 -1.115960602E+02  2.297598163E+02  1.250000000E+02  0.00000E+00  9.000E+00
      21     1     1     2   502   512 -1.147992541E+02 -5.261160757E+01 -1.877078256E+02  2.262323535E+02  0.000000000E+00  0.00000E+00  9.000E+00
#rwgt            1           1   4.3071363746721957E-002           9      140798           0
</event>
<event>
      5   9999  3.79277E-02  2.04183E+01 -1.00000E+00  1.65631E-01
      21    -1     0     0   511   501  0.000000000E+00  0.000000000E+00  2.545910199E+02  2.545910199E+02  0.000000000E+00  0.00000E+00  9.000E+00
      21    -1     0     0   501   502  0.000000000E+00  0.000000000E+00 -1.817341152E+02  1.817341152E+02  0.000000000E+00  0.00000E+00  9.000E+00
      25     1     1     2     0     0 -9.223667121E+00  6.286932858E+01  6.512964634E+01  1.546107996E+02  1.250000000E+02  0.00000E+00  9.000E+00
      25     1     1     2     0     0 -9.069228426E+00 -5.379873347E+01 -1.018693458E+02  1.702319542E+02  1.250000000E+02  0.00000E+00  9.000E+00
      21     1     1     2   511   502  1.829289555E+01 -9.070595106E+00  1.095966041E+02  1.114823813E+02  0.000000000E+00  0.00000E+00  9.000E+00
#rwgt            1           1   3.5750885781467810E-002           9      140873           0
</event>
<event>
      5   9999  3.79277E-02  3.46841E+01 -1.00000E+00  1.48789E-01
      21    -1     0     0   502   501  0.000000000E+00  0.000000000E+00  1.596244143E+02  1.596244143E+02  0.000000000E+00  0.00000E+00  9.000E+00
      21    -1     0     0   501   512  0.000000000E+00  0.000000000E+00 -3.967124383E+02  3.967124383E+02  0.000000000E+00  0.00000E+00  9.000E+00
      25     1     1     2     0     0  8.950743569E+01  1.700824476E+02 -1.441277905E+02  2.708088625E+02  1.250000000E+02  0.00000E+00  9.000E+00
      25     1     1     2     0     0 -5.927449353E+01 -1.870812100E+02 -6.676984775E+01  2.420662250E+02  1.250000000E+02  0.00000E+00  9.000E+00
      21     1     1     2   502   512 -3.023294216E+01  1.699876242E+01 -2.619038572E+01  4.346176503E+01  6.743495762E-07  0.00000E+00  9.000E+00
#rwgt            1           1   1.6632593761980223E-002           9      141093           0
</event>
<event>
      5   9999  3.79277E-02  5.50530E+01 -1.00000E+00  1.36731E-01
      21    -1     0     0   511   501  0.000000000E+00  0.000000000E+00  8.477500135E+02  8.477500135E+02  0.000000000E+00  0.00000E+00  9.000E+00
      21    -1     0     0   501   502  0.000000000E+00  0.000000000E+00 -1.778986821E+02  1.778986821E+02  0.000000000E+00  0.00000E+00  9.000E+00
      25     1     1     2     0     0 -1.433183742E+02  6.622817510E+00  1.300839369E+02  2.305012988E+02  1.250000000E+02  0.00000E+00  9.000E+00
      25     1     1     2     0     0  1.249548286E+02  4.527722091E+01 -6.060644475E+01  1.922547192E+02  1.250000000E+02  0.00000E+00  9.000E+00
      21     1     1     2   511   502  1.836354558E+01 -5.190003842E+01  6.003738393E+02  6.028926776E+02  1.078959322E-05  0.00000E+00  9.000E+00
#rwgt            1           1   3.7925180711875436E-002           9      141217           0
</event>
<event>
      5   9999  3.79277E-02  1.12670E+02 -1.00000E+00  1.21542E-01
      21    -1     0     0   502   501  0.000000000E+00  0.000000000E+00  1.596824781E+03  1.596824781E+03  0.000000000E+00  0.00000E+00  9.000E+00
       2    -1     0     0   501     0  0.000000000E+00  0.000000000E+00 -4.559761683E+02  4.559761683E+02  0.000000000E+00  0.00000E+00  9.000E+00
      25     1     1     2     0     0  1.353033351E+02 -1.327962368E+02  9.922761387E+02  1.017928666E+03  1.250000000E+02  0.00000E+00  9.000E+00
      25     1     1     2     0     0 -1.676129726E+02  2.407343460E+02  5.402401412E+02  6.273209259E+02  1.250000000E+02  0.00000E+00  9.000E+00
       2     1     1     2   502     0  3.230963746E+01 -1.079381092E+02 -3.916676669E+02  4.075513580E+02  5.394796609E-06  0.00000E+00  9.000E+00
#rwgt            1           1   3.7897618757742474E-002           9      141371           0
</event>
<event>
      5   9999  3.79277E-02  1.93427E+01 -1.00000E+00  1.67575E-01
      21    -1     0     0   502   501  0.000000000E+00  0.000000000E+00  7.204473215E+01  7.204473215E+01  0.000000000E+00  0.00000E+00  9.000E+00
      21    -1     0     0   501   511  0.000000000E+00  0.000000000E+00 -8.296457830E+02  8.296457830E+02  0.000000000E+00  0.00000E+00  9.000E+00
      25     1     1     2     0     0 -1.454267032E+02 -4.522413670E+01 -3.167713135E+02  3.730458599E+02  1.250000000E+02  0.00000E+00  9.000E+00
      25     1     1     2     0     0  1.634157989E+02  3.811542228E+01 -2.080810274E+02  2.950935830E+02  1.250000000E+02  0.00000E+00  9.000E+00
      21     1     1     2   502   511 -1.798909563E+01  7.108714419E+00 -2.327487100E+02  2.335510723E+02  2.697398305E-06  0.00000E+00  9.000E+00
#rwgt            1           1   3.5714842871150357E-002           9      141520           0
</event>
<event>
      5   9999  3.79277E-02  2.11418E+01 -1.00000E+00  1.64404E-01
      21    -1     0     0   502   501  0.000000000E+00  0.000000000E+00  1.881706934E+03  1.881706934E+03  0.000000000E+00  0.00000E+00  9.000E+00
      21    -1     0     0   501   512  0.000000000E+00  0.000000000E+00 -3.301398675E+01  3.301398675E+01  0.000000000E+00  0.00000E+00  9.000E+00
      25     1     1     2     0     0 -1.477830619E+01  1.256666126E+02  3.390025738E+02  3.828292582E+02  1.250000000E+02  0.00000E+00  9.000E+00
      25     1     1     2     0     0  7.243127885E+00 -1.059132427E+02  1.499465649E+03  1.508407209E+03  1.250000000E+02  0.00000E+00  9.000E+00
      21     1     1     2   502   512  7.535178303E+00 -1.975336992E+01  1.022472444E+01  2.348445284E+01  8.259061849E-07  0.00000E+00  9.000E+00
#rwgt            1           1  0.28354546576017386                9      141645           0
</event>
<event>
      5   9999 -3.79277E-02  2.87989E+01 -1.00000E+00  1.54283E-01
      21    -1     0     0   502   501  0.000000000E+00  0.000000000E+00  6.456141797E+02  6.456141797E+02  0.000000000E+00  0.00000E+00  9.000E+00
      21    -1     0     0   511   502  0.000000000E+00  0.000000000E+00 -4.329208643E+02  4.329208643E+02  0.000000000E+00  0.00000E+00  9.000E+00
      25     1     1     2     0     0  1.108062991E+02  8.475081076E+01  4.688314283E+02  5.048649760E+02  1.250000000E+02  0.00000E+00  9.000E+00
      25     1     1     2     0     0 -8.303711066E+01 -9.238293939E+01  1.091237762E+02  2.072746192E+02  1.250000000E+02  0.00000E+00  9.000E+00
      21     1     1     2   511   501 -2.776918849E+01  7.632128631E+00 -3.652618891E+02  3.663954487E+02  5.394796609E-06  0.00000E+00  9.000E+00
#rwgt            1           1  -8.7117907760934893E-002           9      141849           0
</event>
<event>
      5   9999  3.79277E-02  1.18971E+02 -1.00000E+00  1.20527E-01
      21    -1     0     0   502   501  0.000000000E+00  0.000000000E+00  1.060860285E+03  1.060860285E+03  0.000000000E+00  0.00000E+00  9.000E+00
      21    -1     0     0   512   502  0.000000000E+00  0.000000000E+00 -7.369751009E+01  7.369751009E+01  0.000000000E+00  0.00000E+00  9.000E+00
      25     1     1     2     0     0 -5.917698645E+01  1.508070062E+02  7.814836995E+02  8.078282252E+02  1.250000000E+02  0.00000E+00  9.000E+00
      25     1     1     2     0     0  3.657940462E+01 -3.400205095E+01  1.169369068E+02  1.783071296E+02  1.250000000E+02  0.00000E+00  9.000E+00
      21     1     1     2   512   501  2.259758184E+01 -1.168049552E+02  8.874216853E+01  1.484224402E+02  9.536743164E-07  0.00000E+00  9.000E+00
#rwgt            1           1   3.8220639321268367E-002           9      141983           0
</event>
<event>
      5   9999  3.79277E-02  1.76874E+02 -1.00000E+00  1.13626E-01
      21    -1     0     0   502   511  0.000000000E+00  0.000000000E+00  5.957993627E+02  5.957993627E+02  0.000000000E+00  0.00000E+00  9.000E+00
      21    -1     0     0   501   502  0.000000000E+00  0.000000000E+00 -4.365938498E+02  4.365938498E+02  0.000000000E+00  0.00000E+00  9.000E+00
      25     1     1     2     0     0 -2.525793745E+01  3.026829367E+02 -7.402146222E+01  3.366884323E+02  1.250000000E+02  0.00000E+00  9.000E+00
      25     1     1     2     0     0 -6.207246490E+01 -4.564944237E+02  1.511201994E+02  5.007019716E+02  1.250000000E+02  0.00000E+00  9.000E+00
      21     1     1     2   501   511  8.733040236E+01  1.538114870E+02  8.210677576E+01  1.950028085E+02  3.015782986E-06  0.00000E+00  9.000E+00
#rwgt            1           1   3.5880385634014259E-002           9      142033           0
</event>
<event>
      5   9999  3.79277E-02  5.92778E+01 -1.00000E+00  1.34985E-01
      21    -1     0     0   512   501  0.000000000E+00  0.000000000E+00  2.414780824E+02  2.414780824E+02  0.000000000E+00  0.00000E+00  9.000E+00
      21    -1     0     0   501   502  0.000000000E+00  0.000000000E+00 -3.313050431E+02  3.313050431E+02  0.000000000E+00  0.00000E+00  9.000E+00
      25     1     1     2     0     0  1.719184048E+01 -3.099440097E+01  1.656743802E+02  2.105450368E+02  1.250000000E+02  0.00000E+00  9.000E+00
      25     1     1     2     0     0  1.333703564E+01  8.180623985E+01 -2.627247821E+02  3.025218150E+02  1.250000000E+02  0.00000E+00  9.000E+00
      21     1     1     2   512   502 -3.052887612E+01 -5.081183888E+01  7.223441250E+00  5.971627375E+01  1.000932194E-06  0.00000E+00  9.000E+00
#rwgt            1           1   2.7315961206898855E-002           9      142301           0
</event>
<event>
      5   9999  3.79277E-02  3.54469E+01 -1.00000E+00  1.48172E-01
      21    -1     0     0   502   501  0.000000000E+00  0.000000000E+00  2.876746354E+03  2.876746354E+03  0.000000000E+00  0.00000E+00  9.000E+00
      21    -1     0     0   501   511  0.000000000E+00  0.000000000E+00 -2.967844439E+02  2.967844439E+02  0.000000000E+00  0.00000E+00  9.000E+00
      25     1     1     2     0     0 -5.167363606E+01 -2.202372419E+02  2.315143679E+03  2.329525673E+03  1.250000000E+02  0.00000E+00  9.000E+00
      25     1     1     2     0     0  1.810790997E+01  2.316314556E+02  5.217384178E+02  5.846511817E+02  1.250000000E+02  0.00000E+00  9.000E+00
      21     1     1     2   502   511  3.356572609E+01 -1.139421370E+01 -2.569201861E+02  2.593539437E+02  1.009274029E-05  0.00000E+00  9.000E+00
#rwgt            1           1   4.9370372781103365E-002           9      142450           0
</event>
<event>
      5   9999  3.79277E-02  6.87897E+01 -1.00000E+00  1.31605E-01
      21    -1     0     0   502   501  0.000000000E+00  0.000000000E+00  8.853720479E+02  8.853720479E+02  0.000000000E+00  0.00000E+00  9.000E+00
       2    -1     0     0   501     0  0.000000000E+00  0.000000000E+00 -3.197577664E+03  3.197577664E+03  0.000000000E+00  0.00000E+00  9.000E+00
      25     1     1     2     0     0 -2.447120430E+02 -2.541398034E+01  1.261019853E+02  3.034082482E+02  1.250000000E+02  0.00000E+00  9.000E+00
      25     1     1     2     0     0  2.224361187E+02 -3.966913522E+01  6.453627257E+02  6.951039598E+02  1.250000000E+02  0.00000E+00  9.000E+00
       2     1     1     2   502     0  2.227592427E+01  6.508311555E+01 -3.083670327E+03  3.084437504E+03  6.103515625E-05  0.00000E+00  9.000E+00
#rwgt            1           1   4.1649019946471390E-002           9      142593           0
</event>
<event>
      5   9999  3.79277E-02  4.82391E+01 -1.00000E+00  1.39970E-01
      21    -1     0     0   502   501  0.000000000E+00  0.000000000E+00  1.632161757E+02  1.632161757E+02  0.000000000E+00  0.00000E+00  9.000E+00
      21    -1     0     0   511   502  0.000000000E+00  0.000000000E+00 -8.529226731E+02  8.529226731E+02  0.000000000E+00  0.00000E+00  9.000E+00
      25     1     1     2     0     0  2.926902329E+02 -4.417051951E+01 -3.028447015E+02  4.415410745E+02  1.250000000E+02  0.00000E+00  9.000E+00
      25     1     1     2     0     0 -3.341313745E+02  6.886154873E+01 -2.845947109E+02  4.615244715E+02  1.250000000E+02  0.00000E+00  9.000E+00
      21     1     1     2   511   501  4.144114158E+01 -2.469102922E+01 -1.022670850E+02  1.130733028E+02  0.000000000E+00  0.00000E+00  9.000E+00
#rwgt            1           1   3.9330684851921240E-002           9      142724           0
</event>
<event>
      5   9999  3.79277E-02  1.34042E+01 -1.00000E+00  1.82113E-01
      21    -1     0     0   502   501  0.000000000E+00  0.000000000E+00  1.205244362E+02  1.205244362E+02  0.000000000E+00  0.00000E+00  9.000E+00
       2    -1     0     0   501     0  0.000000000E+00  0.000000000E+00 -8.290478634E+02  8.290478634E+02  0.000000000E+00  0.00000E+00  9.000E+00
      25     1     1     2     0     0 -2.147372100E+02  4.377342637E+01 -1.227558019E+02  2.805747122E+02  1.250000000E+02  0.00000E+00  9.000E+00
      25     1     1     2     0     0  2.202028732E+02 -5.601267626E+01 -3.645787897E+02  4.474029718E+02  1.250000000E+02  0.00000E+00  9.000E+00
       2     1     1     2   502     0 -5.465663118E+00  1.223924989E+01 -2.211888355E+02  2.215946156E+02  2.697398305E-06  0.00000E+00  9.000E+00
#rwgt            1           1   3.2445925100569969E-002           9      142892           0
</event>
<event>
      5   9999 -3.79277E-02  1.43122E+01 -1.00000E+00  1.79326E-01
      21    -1     0     0   511   501  0.000000000E+00  0.000000000E+00  9.710976229E+01  9.710976229E+01  0.000000000E+00  0.00000E+00  9.000E+00
      21    -1     0     0   501   502  0.000000000E+00  0.000000000E+00 -6.901607413E+02  6.901607413E+02  0.000000000E+00  0.00000E+00  9.000E+00
      25     1     1     2     0     0 -1.872242507E+02  9.898889907E+01 -2.247270754E+02  3.331350786E+02  1.250000000E+02  0.00000E+00  9.000E+00
      25     1     1     2     0     0  1.804464429E+02 -8.638333535E+01 -3.709305030E+02  4.395878040E+02  1.250000000E+02  0.00000E+00  9.000E+00
      21     1     1     2   511   502  6.777807789E+00 -1.260556373E+01  2.606599364E+00  1.454762096E+01  9.884312124E-08  0.00000E+00  9.000E+00
#rwgt            1           1 -0.16490217435230048                9      143202           0
</event>
<event>
      5   9999  3.79277E-02  1.28120E+01 -1.00000E+00  1.84087E-01
      21    -1     0     0   502   512  0.000000000E+00  0.000000000E+00  2.244447949E+02  2.244447949E+02  0.000000000E+00  0.00000E+00  9.000E+00
      21    -1     0     0   501   502  0.000000000E+00  0.000000000E+00 -1.225946414E+02  1.225946414E+02  0.000000000E+00  0.00000E+00  9.000E+00
      25     1     1     2     0     0 -2.946669636E+01  5.035016295E+01 -1.555530544E+01  1.388178397E+02  1.250000000E+02  0.00000E+00  9.000E+00
      25     1     1     2     0     0  3.014917089E+01 -3.755640299E+01  5.549116207E+01  1.449956033E+02  1.250000000E+02  0.00000E+00  9.000E+00
      21     1     1     2   501   512 -6.824745360E-01 -1.279375996E+01  6.191429685E+01  6.322599323E+01  6.743495762E-07  0.00000E+00  9.000E+00
#rwgt            1           1   3.9328378863212866E-002           9      143516           0
</event>
<event>
      5   9999 -3.79277E-02  1.97861E+01 -1.00000E+00  1.66755E-01
      21    -1     0     0   502   501  0.000000000E+00  0.000000000E+00  7.000483097E+01  7.000483097E+01  0.000000000E+00  0.00000E+00  9.000E+00
      -1    -1     0     0     0   502  0.000000000E+00  0.000000000E+00 -1.039271353E+03  1.039271353E+03  0.000000000E+00  0.00000E+00  9.000E+00
      25     1     1     2     0     0 -1.088287535E+02  9.926949621E+01 -1.962886188E+02  2.754130576E+02  1.250000000E+02  0.00000E+00  9.000E+00
      25     1     1     2     0     0  1.197503645E+02 -8.277080846E+01 -2.740542194E+02  3.345472637E+02  1.250000000E+02  0.00000E+00  9.000E+00
      -1     1     1     2     0   501 -1.092161098E+01 -1.649868775E+01 -4.989236835E+02  4.993158622E+02  7.629394531E-06  0.00000E+00  9.000E+00
#rwgt            1           1  -7.4574315775512823E-002           9      143714           0
</event>
<event>
      5   9999  3.79277E-02  5.20004E+01 -1.00000E+00  1.38110E-01
      21    -1     0     0   502   501  0.000000000E+00  0.000000000E+00  2.095586166E+02  2.095586166E+02  0.000000000E+00  0.00000E+00  9.000E+00
      21    -1     0     0   501   511  0.000000000E+00  0.000000000E+00 -2.605776145E+02  2.605776145E+02  0.000000000E+00  0.00000E+00  9.000E+00
      25     1     1     2     0     0 -1.057626339E+02  3.129366546E+01 -3.780970707E+01  1.709374218E+02  1.250000000E+02  0.00000E+00  9.000E+00
      25     1     1     2     0     0  1.565776606E+02 -4.233312894E+01  5.631464863E+01  2.123793711E+02  1.250000000E+02  0.00000E+00  9.000E+00
      21     1     1     2   502   511 -5.081502667E+01  1.103946348E+01 -6.952393950E+01  8.681943822E+01  9.536743164E-07  0.00000E+00  9.000E+00
#rwgt            1           1   4.1063527101271459E-002           9      143922           0
</event>
<event>
      5   9999  3.79277E-02  1.39873E+01 -1.00000E+00  1.80292E-01
      21    -1     0     0   512   501  0.000000000E+00  0.000000000E+00  3.741980680E+02  3.741980680E+02  0.000000000E+00  0.00000E+00  9.000E+00
      21    -1     0     0   501   502  0.000000000E+00  0.000000000E+00 -1.128448644E+02  1.128448644E+02  0.000000000E+00  0.00000E+00  9.000E+00
      25     1     1     2     0     0 -9.254455330E+01 -7.313656055E+01  1.501799623E+02  2.282377531E+02  1.250000000E+02  0.00000E+00  9.000E+00
      25     1     1     2     0     0  7.866723693E+01  7.138605521E+01  1.849854804E+01  1.650808872E+02  1.250000000E+02  0.00000E+00  9.000E+00
      21     1     1     2   512   502  1.387731637E+01  1.750505342E+00  9.267469317E+01  9.372429211E+01  0.000000000E+00  0.00000E+00  9.000E+00
#rwgt            1           1   4.0103735026064159E-002           9      144073           0
</event>
<event>
      5   9999  3.79277E-02  3.26039E+01 -1.00000E+00  1.50571E-01
      21    -1     0     0   502   501  0.000000000E+00  0.000000000E+00  7.308668940E+02  7.308668940E+02  0.000000000E+00  0.00000E+00  9.000E+00
      21    -1     0     0   511   502  0.000000000E+00  0.000000000E+00 -6.084892046E+01  6.084892046E+01  0.000000000E+00  0.00000E+00  9.000E+00
      25     1     1     2     0     0 -1.057481229E+02 -3.985040024E+01  3.930693842E+02  4.276672313E+02  1.250000000E+02  0.00000E+00  9.000E+00
      25     1     1     2     0     0  1.084940700E+02  7.362380144E+00  2.857232172E+02  3.302846117E+02  1.250000000E+02  0.00000E+00  9.000E+00
      21     1     1     2   511   501 -2.745947097E+00  3.248802010E+01 -8.774627914E+00  3.376397148E+01  1.685873940E-07  0.00000E+00  9.000E+00
#rwgt            1           1   3.0552766886297104E-002           9      144384           0
</event>
<event>
      5   9999  3.79277E-02  1.91400E+01 -1.00000E+00  1.67960E-01
      21    -1     0     0   512   501  0.000000000E+00  0.000000000E+00  3.685270224E+02  3.685270224E+02  0.000000000E+00  0.00000E+00  9.000E+00
      21    -1     0     0   501   502  0.000000000E+00  0.000000000E+00 -1.077342423E+03  1.077342423E+03  0.000000000E+00  0.00000E+00  9.000E+00
      25     1     1     2     0     0  4.888601674E+01  1.281732207E+02 -8.286176766E+02  8.491469079E+02  1.250000000E+02  0.00000E+00  9.000E+00
      25     1     1     2     0     0 -6.022437564E+01 -1.127531250E+02 -2.046262501E+02  2.717299116E+02  1.250000000E+02  0.00000E+00  9.000E+00
      21     1     1     2   512   502  1.133835891E+01 -1.542009572E+01  3.244285266E+02  3.249926255E+02  5.394796609E-06  0.00000E+00  9.000E+00
#rwgt            1           1   4.5839791867418649E-002           9      144617           0
</event>
<event>
      5   9999  3.79277E-02  1.06082E+01 -1.00000E+00  1.92839E-01
      21    -1     0     0   511   501  0.000000000E+00  0.000000000E+00  5.409661880E+01  5.409661880E+01  0.000000000E+00  0.00000E+00  9.000E+00
      21    -1     0     0   501   502  0.000000000E+00  0.000000000E+00 -4.781495158E+02  4.781495158E+02  0.000000000E+00  0.00000E+00  9.000E+00
      25     1     1     2     0     0  2.146616299E+01  2.822520605E+01 -2.059719843E+02  2.435301146E+02  1.250000000E+02  0.00000E+00  9.000E+00
      25     1     1     2     0     0 -2.639096505E+01 -3.762098302E+01 -2.342003870E+02  2.694190837E+02  1.250000000E+02  0.00000E+00  9.000E+00
      21     1     1     2   511   502  4.924802059E+00  9.395776962E+00  1.611947426E+01  1.929693630E+01  2.384185791E-07  0.00000E+00  9.000E+00
#rwgt            1           1   1.1311764404643409E-002           9      144967           0
</event>
<event>
      5   9999  3.79277E-02  9.92142E+01 -1.00000E+00  1.23982E-01
      21    -1     0     0   502   512  0.000000000E+00  0.000000000E+00  1.982001849E+03  1.982001849E+03  0.000000000E+00  0.00000E+00  9.000E+00
      21    -1     0     0   501   502  0.000000000E+00  0.000000000E+00 -1.209372027E+02  1.209372027E+02  0.000000000E+00  0.00000E+00  9.000E+00
      25     1     1     2     0     0 -1.611196401E+01 -8.157124981E+01  7.302446678E+02  7.455170951E+02  1.250000000E+02  0.00000E+00  9.000E+00
      25     1     1     2     0     0  1.123145246E+02  1.058309378E+02 -2.247967950E+01  1.998626424E+02  1.250000000E+02  0.00000E+00  9.000E+00
      21     1     1     2   501   512 -9.620256055E+01 -2.425968796E+01  1.153299658E+03  1.157559315E+03  0.000000000E+00  0.00000E+00  9.000E+00
#rwgt            1           1   3.9155637510150318E-002           9      145257           0
</event>
<event>
      5   9999  3.79277E-02  1.15332E+01 -1.00000E+00  1.88858E-01
      21    -1     0     0   511   501  0.000000000E+00  0.000000000E+00  9.135609397E+02  9.135609397E+02  0.000000000E+00  0.00000E+00  9.000E+00
      21    -1     0     0   501   502  0.000000000E+00  0.000000000E+00 -7.833355365E+01  7.833355365E+01  0.000000000E+00  0.00000E+00  9.000E+00
      25     1     1     2     0     0  1.879073865E+02  4.127479124E+01  6.296485944E+02  6.701456161E+02  1.250000000E+02  0.00000E+00  9.000E+00
      25     1     1     2     0     0 -1.794550662E+02 -3.342792076E+01  1.556515108E+02  2.705068197E+02  1.250000000E+02  0.00000E+00  9.000E+00
      21     1     1     2   511   502 -8.452320347E+00 -7.846870486E+00  4.992728079E+01  5.124205756E+01  6.743495762E-07  0.00000E+00  9.000E+00
#rwgt            1           1   3.5329607087167460E-002           9      145324           0
</event>
<event>
      5   9999  3.79277E-02  2.37347E+01 -1.00000E+00  1.60459E-01
      21    -1     0     0   512   501  0.000000000E+00  0.000000000E+00  1.708091179E+02  1.708091179E+02  0.000000000E+00  0.00000E+00  9.000E+00
      21    -1     0     0   501   502  0.000000000E+00  0.000000000E+00 -3.497075792E+02  3.497075792E+02  0.000000000E+00  0.00000E+00  9.000E+00
      25     1     1     2     0     0  1.918919388E+02  4.893729492E+00 -1.551316804E+02  2.766537601E+02  1.250000000E+02  0.00000E+00  9.000E+00
      25     1     1     2     0     0 -1.713485168E+02  6.993428296E+00 -3.885212977E+01  2.157399134E+02  1.250000000E+02  0.00000E+00  9.000E+00
      21     1     1     2   512   502 -2.054342196E+01 -1.188715779E+01  1.508534879E+01  2.812302356E+01  4.460403188E-07  0.00000E+00  9.000E+00
#rwgt            1           1  0.13941837418749495                9      145618           0
</event>
<event>
      5   9999  3.79277E-02  2.01274E+01 -1.00000E+00  1.66142E-01
      21    -1     0     0   502   501  0.000000000E+00  0.000000000E+00  9.442490077E+01  9.442490077E+01  0.000000000E+00  0.00000E+00  9.000E+00
      21    -1     0     0   511   502  0.000000000E+00  0.000000000E+00 -7.920177766E+02  7.920177766E+02  0.000000000E+00  0.00000E+00  9.000E+00
      25     1     1     2     0     0  1.324229622E+02 -1.226209887E+02 -1.177189434E+02  2.491074013E+02  1.250000000E+02  0.00000E+00  9.000E+00
      25     1     1     2     0     0 -1.259841172E+02  1.416907178E+02 -4.315911151E+02  4.876926777E+02  1.250000000E+02  0.00000E+00  9.000E+00
      21     1     1     2   511   501 -6.438844985E+00 -1.906972916E+01 -1.482828174E+02  1.496425983E+02  3.814697266E-06  0.00000E+00  9.000E+00
#rwgt            1           1   3.7288867406217598E-002           9      145799           0
</event>
<event>
      5   9999  3.79277E-02  1.33149E+01 -1.00000E+00  1.82402E-01
      21    -1     0     0   502   501  0.000000000E+00  0.000000000E+00  4.234417593E+01  4.234417593E+01  0.000000000E+00  0.00000E+00  9.000E+00
      21    -1     0     0   501   512  0.000000000E+00  0.000000000E+00 -1.774460230E+03  1.774460230E+03  0.000000000E+00  0.00000E+00  9.000E+00
      25     1     1     2     0     0  1.418466132E+02  4.532299301E+01 -2.864485171E+02  3.461970369E+02  1.250000000E+02  0.00000E+00  9.000E+00
      25     1     1     2     0     0 -1.505098271E+02 -5.543415313E+01 -8.213656173E+02  8.461634775E+02  1.250000000E+02  0.00000E+00  9.000E+00
      21     1     1     2   502   512  8.663213949E+00  1.011116012E+01 -6.243019191E+02  6.244438911E+02  0.000000000E+00  0.00000E+00  9.000E+00
#rwgt            1           1   4.7095394454952887E-002           9      145964           0
</event>
<event>
      5   9999  3.79277E-02  9.08420E+01 -1.00000E+00  1.25734E-01
      21    -1     0     0   502   501  0.000000000E+00  0.000000000E+00  3.195991729E+02  3.195991729E+02  0.000000000E+00  0.00000E+00  9.000E+00
      21    -1     0     0   511   502  0.000000000E+00  0.000000000E+00 -8.454993845E+02  8.454993845E+02  0.000000000E+00  0.00000E+00  9.000E+00
      25     1     1     2     0     0 -2.234823180E+02  1.310901912E+02  8.055314159E+01  2.987353232E+02  1.250000000E+02  0.00000E+00  9.000E+00
      25     1     1     2     0     0  2.834998480E+02 -1.992822689E+02 -1.447483458E+02  3.958063543E+02  1.250000000E+02  0.00000E+00  9.000E+00
      21     1     1     2   511   501 -6.001752996E+01  6.819207763E+01 -4.617050074E+02  4.705568799E+02  0.000000000E+00  0.00000E+00  9.000E+00
#rwgt            1           1  0.14610911564198251                9      146183           0
</event>
<event>
      5   9999  3.79277E-02  3.47341E+01 -1.00000E+00  1.48748E-01
      21    -1     0     0   502   501  0.000000000E+00  0.000000000E+00  2.370872729E+02  2.370872729E+02  0.000000000E+00  0.00000E+00  9.000E+00
       2    -1     0     0   501     0  0.000000000E+00  0.000000000E+00 -1.395210500E+03  1.395210500E+03  0.000000000E+00  0.00000E+00  9.000E+00
      25     1     1     2     0     0 -3.077852530E+02 -3.394730065E+02 -2.794082411E+02  5.510604770E+02  1.250000000E+02  0.00000E+00  9.000E+00
      25     1     1     2     0     0  3.333013766E+02  3.159063241E+02 -4.627148636E+02  6.637896190E+02  1.250000000E+02  0.00000E+00  9.000E+00
       2     1     1     2   502     0 -2.551612363E+01  2.356668234E+01 -4.160001226E+02  4.174476770E+02  5.394796609E-06  0.00000E+00  9.000E+00
#rwgt            1           1   7.7695011812020029E-002           9      146318           0
</event>
<event>
      5   9999  3.79277E-02  8.95376E+01 -1.00000E+00  1.26026E-01
      -2    -1     0     0     0   501  0.000000000E+00  0.000000000E+00  2.868179483E+02  2.868179483E+02  0.000000000E+00  0.00000E+00  9.000E+00
      21    -1     0     0   501   502  0.000000000E+00  0.000000000E+00 -7.789865818E+02  7.789865818E+02  0.000000000E+00  0.00000E+00  9.000E+00
      25     1     1     2     0     0 -4.737315205E+01 -1.564278814E+02 -1.310108955E+02  2.439318601E+02  1.250000000E+02  0.00000E+00  9.000E+00
      25     1     1     2     0     0 -2.076124951E+01  2.145199149E+02 -5.549956024E+02  6.083542899E+02  1.250000000E+02  0.00000E+00  9.000E+00
      -2     1     1     2     0   502  6.813440156E+01 -5.809203350E+01  1.938378644E+02  2.135183802E+02  3.814697266E-06  0.00000E+00  9.000E+00
#rwgt            1           1  0.38761724545135628                9      146500           0
</event>
<event>
      5   9999  3.79277E-02  9.59455E+01 -1.00000E+00  1.24642E-01
      21    -1     0     0   502   501  0.000000000E+00  0.000000000E+00  2.619040235E+02  2.619040235E+02  0.000000000E+00  0.00000E+00  9.000E+00
      21    -1     0     0   511   502  0.000000000E+00  0.000000000E+00 -4.031532952E+02  4.031532952E+02  0.000000000E+00  0.00000E+00  9.000E+00
      25     1     1     2     0     0 -1.932329718E+02 -1.172278969E+02  1.129301425E+02  2.818857540E+02  1.250000000E+02  0.00000E+00  9.000E+00
      25     1     1     2     0     0  9.819792049E+01  1.040415971E+02 -1.821875746E+02  2.632200559E+02  1.250000000E+02  0.00000E+00  9.000E+00
      21     1     1     2   511   501  9.503505133E+01  1.318629986E+01 -7.199183962E+01  1.199515088E+02  1.348699152E-06  0.00000E+00  9.000E+00
#rwgt            1           1  0.13339925328495669                9      146574           0
</event>
<event>
      5   9999  3.79277E-02  1.02518E+02 -1.00000E+00  1.23344E-01
      21    -1     0     0   502   501  0.000000000E+00  0.000000000E+00  4.676904421E+02  4.676904421E+02  0.000000000E+00  0.00000E+00  9.000E+00
      21    -1     0     0   512   502  0.000000000E+00  0.000000000E+00 -1.522363847E+03  1.522363847E+03  0.000000000E+00  0.00000E+00  9.000E+00
      25     1     1     2     0     0 -2.077837551E+02 -1.718630319E+02  9.102881853E+01  3.108411755E+02  1.250000000E+02  0.00000E+00  9.000E+00
      25     1     1     2     0     0  1.773511505E+02  7.396623366E+01  2.152202872E+02  3.144347410E+02  1.250000000E+02  0.00000E+00  9.000E+00
      21     1     1     2   512   501  3.043260457E+01  9.789679822E+01 -1.360922511E+03  1.364778373E+03  1.525878906E-05  0.00000E+00  9.000E+00
#rwgt            1           1   3.8848422560427233E-002           9      146675           0
</event>
<event>
      5   9999  3.79277E-02  1.55884E+01 -1.00000E+00  1.75824E-01
       1    -1     0     0   502     0  0.000000000E+00  0.000000000E+00  1.467575392E+03  1.467575392E+03  0.000000000E+00  0.00000E+00  9.000E+00
      21    -1     0     0   501   502  0.000000000E+00  0.000000000E+00 -4.071608770E+02  4.071608770E+02  0.000000000E+00  0.00000E+00  9.000E+00
      25     1     1     2     0     0 -1.402654910E+02  1.171198656E+01 -2.687640453E+02  3.281321238E+02  1.250000000E+02  0.00000E+00  9.000E+00
      25     1     1     2     0     0  1.523349108E+02 -1.846567453E+00 -1.932583566E+01  1.980096533E+02  1.250000000E+02  0.00000E+00  9.000E+00
       1     1     1     2   501     0 -1.206941980E+01 -9.865419102E+00  1.348504396E+03  1.348594492E+03  2.157918644E-05  0.00000E+00  9.000E+00
#rwgt            1           1   2.3497183649430379E-002           9      146813           0
</event>
<event>
      5   9999  3.79277E-02  2.33247E+01 -1.00000E+00  1.61041E-01
      -2    -1     0     0     0   501  0.000000000E+00  0.000000000E+00  6.425741480E+02  6.425741480E+02  0.000000000E+00  0.00000E+00  9.000E+00
      21    -1     0     0   501   502  0.000000000E+00  0.000000000E+00 -1.504075245E+02  1.504075245E+02  0.000000000E+00  0.00000E+00  9.000E+00
      25     1     1     2     0     0  8.708788970E+01  1.014787201E+02 -5.963626464E+01  1.925193892E+02  1.250000000E+02  0.00000E+00  9.000E+00
      25     1     1     2     0     0 -9.804111418E+01 -8.088576656E+01  3.105104790E+02  3.580451437E+02  1.250000000E+02  0.00000E+00  9.000E+00
      -2     1     1     2     0   502  1.095322447E+01 -2.059295353E+01  2.412924091E+02  2.424171396E+02  3.814697266E-06  0.00000E+00  9.000E+00
#rwgt            1           1   4.6491848761850335E-002           9      147252           0
</event>
<event>
      5   9999  3.79277E-02  1.30621E+02 -1.00000E+00  1.18825E-01
      21    -1     0     0   502   511  0.000000000E+00  0.000000000E+00  9.691162997E+02  9.691162997E+02  0.000000000E+00  0.00000E+00  9.000E+00
      21    -1     0     0   501   502  0.000000000E+00  0.000000000E+00 -1.234368050E+02  1.234368050E+02  0.000000000E+00  0.00000E+00  9.000E+00
      25     1     1     2     0     0 -1.695557291E+02 -4.511344333E+01  1.179716306E+02  2.456148890E+02  1.250000000E+02  0.00000E+00  9.000E+00
      25     1     1     2     0     0  1.111846106E+02 -7.173937687E+01  1.038800223E+02  2.095820003E+02  1.250000000E+02  0.00000E+00  9.000E+00
      21     1     1     2   501   511  5.837111851E+01  1.168528202E+02  6.238278418E+02  6.373562154E+02  7.629394531E-06  0.00000E+00  9.000E+00
#rwgt            1           1   3.9618849143974129E-002           9      147564           0
</event>
<event>
      5   9999  3.79277E-02  3.00079E+02 -1.00000E+00  1.05588E-01
      21    -1     0     0   502   501  0.000000000E+00  0.000000000E+00  2.686679431E+02  2.686679431E+02  0.000000000E+00  0.00000E+00  9.000E+00
      21    -1     0     0   512   502  0.000000000E+00  0.000000000E+00 -6.226967015E+02  6.226967015E+02  0.000000000E+00  0.00000E+00  9.000E+00
      25     1     1     2     0     0  5.106900722E+01  2.725562554E+02 -2.322670474E+02  3.827112974E+02  1.250000000E+02  0.00000E+00  9.000E+00
      25     1     1     2     0     0 -5.231247399E+01  2.752042663E+01  6.750784963E+01  1.538709803E+02  1.250000000E+02  0.00000E+00  9.000E+00
      21     1     1     2   512   501  1.243466771E+00 -3.000766820E+02 -1.892695606E+02  3.547823669E+02  5.394796609E-06  0.00000E+00  9.000E+00
#rwgt            1           1   4.4408320540374580E-002           9      147660           0
</event>
<event>
      5   9999  3.79277E-02  3.92699E+01 -1.00000E+00  1.45338E-01
      21    -1     0     0   502   501  0.000000000E+00  0.000000000E+00  1.485528038E+02  1.485528038E+02  0.000000000E+00  0.00000E+00  9.000E+00
      21    -1     0     0   501   511  0.000000000E+00  0.000000000E+00 -2.387232108E+02  2.387232108E+02  0.000000000E+00  0.00000E+00  9.000E+00
      25     1     1     2     0     0  7.508269408E+01 -7.087819182E+01 -7.847511145E+00  1.623197846E+02  1.250000000E+02  0.00000E+00  9.000E+00
      25     1     1     2     0     0 -1.036036530E+02  4.388407352E+01 -5.435737854E+01  1.767462968E+02  1.250000000E+02  0.00000E+00  9.000E+00
      21     1     1     2   502   511  2.852095888E+01  2.699411830E+01 -2.796551732E+01  4.820993339E+01  4.768371582E-07  0.00000E+00  9.000E+00
#rwgt            1           1   5.3176788381725855E-002           9      147735           0
</event>
<event>
      5   9999  3.79277E-02  1.22775E+02 -1.00000E+00  1.19948E-01
      21    -1     0     0   502   501  0.000000000E+00  0.000000000E+00  1.557374067E+02  1.557374067E+02  0.000000000E+00  0.00000E+00  9.000E+00
      21    -1     0     0   501   512  0.000000000E+00  0.000000000E+00 -6.602030217E+02  6.602030217E+02  0.000000000E+00  0.00000E+00  9.000E+00
      25     1     1     2     0     0 -9.003460323E+01  2.014276885E+02 -6.225809804E+01  2.611137956E+02  1.250000000E+02  0.00000E+00  9.000E+00
      25     1     1     2     0     0 -2.841594696E+01 -1.691290922E+02 -2.864734322E+02  3.565166801E+02  1.250000000E+02  0.00000E+00  9.000E+00
      21     1     1     2   502   512  1.184505502E+02 -3.229859633E+01 -1.557340848E+02  1.983099527E+02  1.907348633E-06  0.00000E+00  9.000E+00
#rwgt            1           1   3.8958033929520776E-002           9      147950           0
</event>
<event>
      5   9999  3.79277E-02  2.84913E+01 -1.00000E+00  1.54613E-01
      21    -1     0     0   502   511  0.000000000E+00  0.000000000E+00  1.164786312E+03  1.164786312E+03  0.000000000E+00  0.00000E+00  9.000E+00
      21    -1     0     0   501   502  0.000000000E+00  0.000000000E+00 -1.098329946E+02  1.098329946E+02  0.000000000E+00  0.00000E+00  9.000E+00
      25     1     1     2     0     0  5.282396077E+01  1.100147461E+02  5.298278235E+02  5.578854163E+02  1.250000000E+02  0.00000E+00  9.000E+00
      25     1     1     2     0     0 -3.297872328E+01 -8.957161644E+01 -3.064503425E+01  1.602335445E+02  1.250000000E+02  0.00000E+00  9.000E+00
      21     1     1     2   501   511 -1.984523749E+01 -2.044312963E+01  5.557705284E+02  5.565003462E+02  7.629394531E-06  0.00000E+00  9.000E+00
#rwgt            1           1   3.5189492329937906E-002           9      148008           0
</event>
<event>
      5   9999  3.79277E-02  8.79823E+01 -1.00000E+00  1.26382E-01
      21    -1     0     0   502   501  0.000000000E+00  0.000000000E+00  1.165424678E+02  1.165424678E+02  0.000000000E+00  0.00000E+00  9.000E+00
      21    -1     0     0   512   502  0.000000000E+00  0.000000000E+00 -1.119108273E+03  1.119108273E+03  0.000000000E+00  0.00000E+00  9.000E+00
      25     1     1     2     0     0  1.172971481E+02  1.952661656E+02 -3.894065338E+02  4.681345373E+02  1.250000000E+02  0.00000E+00  9.000E+00
      25     1     1     2     0     0 -3.117008357E+01 -2.132387487E+02 -1.390466847E+02  2.853091632E+02  1.250000000E+02  0.00000E+00  9.000E+00
      21     1     1     2   512   501 -8.612706456E+01  1.797258308E+01 -4.741125864E+02  4.822070402E+02  7.629394531E-06  0.00000E+00  9.000E+00
#rwgt            1           1   5.3976493816788568E-002           9      148138           0
</event>
<event>
      5   9999  3.79277E-02  2.93572E+01 -1.00000E+00  1.53696E-01
      21    -1     0     0   502   501  0.000000000E+00  0.000000000E+00  2.866874660E+02  2.866874660E+02  0.000000000E+00  0.00000E+00  9.000E+00
      21    -1     0     0   501   511  0.000000000E+00  0.000000000E+00 -3.176262689E+02  3.176262689E+02  0.000000000E+00  0.00000E+00  9.000E+00
      25     1     1     2     0     0  1.027690833E+02  2.424265400E+02  7.448726769E+00  2.915691947E+02  1.250000000E+02  0.00000E+00  9.000E+00
      25     1     1     2     0     0 -1.072637680E+02 -2.134154572E+02 -6.871595137E+00  2.696736771E+02  1.250000000E+02  0.00000E+00  9.000E+00
      21     1     1     2   502   511  4.494684752E+00 -2.901108279E+01 -3.151593457E+01  4.307086309E+01  3.371747881E-07  0.00000E+00  9.000E+00
#rwgt            1           1   3.0916241494375819E-002           9      148244           0
</event>
<event>
      5   9999  3.79277E-02  9.35967E+01 -1.00000E+00  1.25134E-01
      21    -1     0     0   502   501  0.000000000E+00  0.000000000E+00  5.286047393E+01  5.286047393E+01  0.000000000E+00  0.00000E+00  9.000E+00
       2    -1     0     0   501     0  0.000000000E+00  0.000000000E+00 -2.111955415E+03  2.111955415E+03  0.000000000E+00  0.00000E+00  9.000E+00
      25     1     1     2     0     0  1.028903429E+02  6.451656213E+01 -1.711416789E+02  2.442606880E+02  1.250000000E+02  0.00000E+00  9.000E+00
      25     1     1     2     0     0 -9.715546761E+00 -5.564015288E+01 -3.002880139E+02  3.301334726E+02  1.250000000E+02  0.00000E+00  9.000E+00
       2     1     1     2   502     0 -9.317479613E+01 -8.876409256E+00 -1.587665248E+03  1.590421728E+03  3.051757812E-05  0.00000E+00  9.000E+00
#rwgt            1           1   4.6026979375037122E-002           9      148368           0
</event>
<event>
      5   9999  3.79277E-02  1.40373E+01 -1.00000E+00  1.80141E-01
      21    -1     0     0   502   501  0.000000000E+00  0.000000000E+00  8.083771270E+01  8.083771270E+01  0.000000000E+00  0.00000E+00  9.000E+00
      21    -1     0     0   501   511  0.000000000E+00  0.000000000E+00 -1.885137987E+03  1.885137987E+03  0.000000000E+00  0.00000E+00  9.000E+00
      25     1     1     2     0     0 -1.623273660E+02 -2.300141708E+01 -7.915422607E+01  2.208384714E+02  1.250000000E+02  0.00000E+00  9.000E+00
      25     1     1     2     0     0  1.543901292E+02  3.457924674E+01 -1.014043999E+03  1.033896643E+03  1.250000000E+02  0.00000E+00  9.000E+00
      21     1     1     2   502   511  7.937236790E+00 -1.157782966E+01 -7.111020490E+02  7.112405852E+02  0.000000000E+00  0.00000E+00  9.000E+00
#rwgt            1           1   3.5244420207175518E-002           9      148460           0
</event>
<event>
      5   9999  3.79277E-02  1.10363E+01 -1.00000E+00  1.90934E-01
      21    -1     0     0   512   501  0.000000000E+00  0.000000000E+00  3.645866723E+02  3.645866723E+02  0.000000000E+00  0.00000E+00  9.000E+00
      21    -1     0     0   501   502  0.000000000E+00  0.000000000E+00 -1.486969669E+02  1.486969669E+02  0.000000000E+00  0.00000E+00  9.000E+00
      25     1     1     2     0     0  1.502927907E+02  5.719929460E+01  2.029478732E+02  2.875282968E+02  1.250000000E+02  0.00000E+00  9.000E+00
      25     1     1     2     0     0 -1.611916146E+02 -5.893569549E+01  5.406716035E+00  2.123920559E+02  1.250000000E+02  0.00000E+00  9.000E+00
      21     1     1     2   512   502  1.089882392E+01  1.736400890E+00  7.535116178E+00  1.336328652E+01  1.884864366E-07  0.00000E+00  9.000E+00
#rwgt            1           1   9.0217797422766366E-002           9      148767           0
</event>
<event>
      5   9999 -3.79277E-02  4.17724E+01 -1.00000E+00  1.43682E-01
      21    -1     0     0   511   501  0.000000000E+00  0.000000000E+00  1.416215707E+02  1.416215707E+02  0.000000000E+00  0.00000E+00  9.000E+00
      21    -1     0     0   501   502  0.000000000E+00  0.000000000E+00 -5.788222973E+02  5.788222973E+02  0.000000000E+00  0.00000E+00  9.000E+00
      25     1     1     2     0     0  2.162847153E+02 -8.461159118E+01 -1.044422371E+02  2.836747791E+02  1.250000000E+02  0.00000E+00  9.000E+00
      25     1     1     2     0     0 -1.847767993E+02  5.718563387E+01 -3.176447755E+02  3.923466142E+02  1.250000000E+02  0.00000E+00  9.000E+00
      21     1     1     2   511   502 -3.150791601E+01  2.742595731E+01 -1.511371394E+01  4.442247466E+01  1.066240300E-06  0.00000E+00  9.000E+00
#rwgt            1           1 -0.40467697268946612                9      149013           0
</event>
<event>
      5   9999  3.79277E-02  2.82271E+01 -1.00000E+00  1.54900E-01
      -1    -1     0     0     0   501  0.000000000E+00  0.000000000E+00  2.679878419E+03  2.679878419E+03  0.000000000E+00  0.00000E+00  9.000E+00
      21    -1     0     0   501   502  0.000000000E+00  0.000000000E+00 -3.063944184E+01  3.063944184E+01  0.000000000E+00  0.00000E+00  9.000E+00
      25     1     1     2     0     0  2.374866220E+00  1.994128004E+02  1.072303168E+03  1.097829763E+03  1.250000000E+02  0.00000E+00  9.000E+00
      25     1     1     2     0     0  2.424705630E+01 -1.900297501E+02  7.237991803E+02  7.590846323E+02  1.250000000E+02  0.00000E+00  9.000E+00
      -1     1     1     2     0   502 -2.662192252E+01 -9.383050387E+00  8.531366298E+02  8.536034662E+02  1.078959322E-05  0.00000E+00  9.000E+00
#rwgt            1           1   3.3722814151554314E-002           9      149195           0
</event>
<event>
      5   9999  3.79277E-02  1.39259E+02 -1.00000E+00  1.17687E-01
      21    -1     0     0   511   501  0.000000000E+00  0.000000000E+00  2.439499893E+02  2.439499893E+02  0.000000000E+00  0.00000E+00  9.000E+00
      21    -1     0     0   501   502  0.000000000E+00  0.000000000E+00 -4.644980289E+02  4.644980289E+02  0.000000000E+00  0.00000E+00  9.000E+00
      25     1     1     2     0     0  2.186826235E+02 -1.635567249E+02 -1.729714187E+02  3.465790007E+02  1.250000000E+02  0.00000E+00  9.000E+00
      25     1     1     2     0     0 -8.643241074E+01  1.199323603E+02 -9.382122636E+01  2.151319483E+02  1.250000000E+02  0.00000E+00  9.000E+00
      21     1     1     2   511   502 -1.322502127E+02  4.362436454E+01  4.624460548E+01  1.467370692E+02  2.431401974E-06  0.00000E+00  9.000E+00
#rwgt            2          11   2.0141403425340018E-003           9      149327           0
</event>
<event>
      5   9999  3.79277E-02  2.17176E+02 -1.00000E+00  1.10361E-01
      21    -1     0     0   512   501  0.000000000E+00  0.000000000E+00  8.950419077E+02  8.950419077E+02  0.000000000E+00  0.00000E+00  9.000E+00
      21    -1     0     0   501   502  0.000000000E+00  0.000000000E+00 -2.575067775E+02  2.575067775E+02  0.000000000E+00  0.00000E+00  9.000E+00
      25     1     1     2     0     0  4.020786807E+01 -3.377278788E+02  8.662256871E+01  3.725657824E+02  1.250000000E+02  0.00000E+00  9.000E+00
      25     1     1     2     0     0  1.628435866E+02  2.606862302E+02  3.730738129E+02  4.992839014E+02  1.250000000E+02  0.00000E+00  9.000E+00
      21     1     1     2   512   502 -2.030514546E+02  7.704164861E+01  1.778387486E+02  2.806990014E+02  3.814697266E-06  0.00000E+00  9.000E+00
#rwgt            2          11   2.4788639658609663E-003           9      149602           0
</event>
<event>
      5   9999  3.79277E-02  4.08816E+01 -1.00000E+00  1.44255E-01
      21    -1     0     0   502   511  0.000000000E+00  0.000000000E+00  5.936092708E+01  5.936092708E+01  0.000000000E+00  0.00000E+00  9.000E+00
      21    -1     0     0   501   502  0.000000000E+00  0.000000000E+00 -1.862926087E+03  1.862926087E+03  0.000000000E+00  0.00000E+00  9.000E+00
      25     1     1     2     0     0 -6.512268976E+01 -1.632276075E+02 -1.408584642E+03  1.424998214E+03  1.250000000E+02  0.00000E+00  9.000E+00
      25     1     1     2     0     0  5.537324271E+01  1.235255039E+02 -4.132839269E+02  4.524967959E+02  1.250000000E+02  0.00000E+00  9.000E+00
      21     1     1     2   501   511  9.749447047E+00  3.970210357E+01  1.830340974E+01  4.479200323E+01  1.862108630E-06  0.00000E+00  9.000E+00
#rwgt            1           1   4.9412980811850159E-002           9      149742           0
</event>
<event>
      5   9999  3.79277E-02  5.06488E+01 -1.00000E+00  1.38757E-01
      21    -1     0     0   502   501  0.000000000E+00  0.000000000E+00  9.217676468E+01  9.217676468E+01  0.000000000E+00  0.00000E+00  9.000E+00
      21    -1     0     0   501   512  0.000000000E+00  0.000000000E+00 -1.625213706E+03  1.625213706E+03  0.000000000E+00  0.00000E+00  9.000E+00
      25     1     1     2     0     0  1.905854034E+02 -1.891092273E+02 -4.762344982E+02  5.608113704E+02  1.250000000E+02  0.00000E+00  9.000E+00
      25     1     1     2     0     0 -2.410790205E+02  1.930708198E+02 -5.213043030E+02  6.186910473E+02  1.250000000E+02  0.00000E+00  9.000E+00
      21     1     1     2   502   512  5.049361711E+01 -3.961592500E+00 -5.354981400E+02  5.378880529E+02  0.000000000E+00  0.00000E+00  9.000E+00
#rwgt            1           1  0.27232662130878382                9      149946           0
</event>
<event>
      5   9999  3.79277E-02  2.39069E+01 -1.00000E+00  1.60219E-01
      21    -1     0     0   502   511  0.000000000E+00  0.000000000E+00  5.454260462E+01  5.454260462E+01  0.000000000E+00  0.00000E+00  9.000E+00
      21    -1     0     0   501   502  0.000000000E+00  0.000000000E+00 -1.801373790E+03  1.801373790E+03  0.000000000E+00  0.00000E+00  9.000E+00
      25     1     1     2     0     0 -1.735422500E+02 -8.543378068E+01 -9.835985864E+02  1.010201476E+03  1.250000000E+02  0.00000E+00  9.000E+00
      25     1     1     2     0     0  1.663636827E+02  1.082375065E+02 -7.812996309E+02  8.157489479E+02  1.250000000E+02  0.00000E+00  9.000E+00
      21     1     1     2   501   511  7.178567288E+00 -2.280372584E+01  1.806703196E+01  2.996597044E+01  1.599360450E-06  0.00000E+00  9.000E+00
#rwgt            1           1   2.3246776640280426E-002           9      150048           0
</event>
<event>
      5   9999  3.79277E-02  4.21987E+01 -1.00000E+00  1.43413E-01
      21    -1     0     0   502   501  0.000000000E+00  0.000000000E+00  1.232022958E+03  1.232022958E+03  0.000000000E+00  0.00000E+00  9.000E+00
      21    -1     0     0   501   512  0.000000000E+00  0.000000000E+00 -5.438641314E+01  5.438641314E+01  0.000000000E+00  0.00000E+00  9.000E+00
      25     1     1     2     0     0  8.683557117E+01  1.182454078E+02  7.921326241E+02  8.152432073E+02  1.250000000E+02  0.00000E+00  9.000E+00
      25     1     1     2     0     0 -1.086214575E+02 -1.543854633E+02  3.451394345E+02  4.127707857E+02  1.250000000E+02  0.00000E+00  9.000E+00
      21     1     1     2   502   512  2.178588637E+01  3.614005544E+01  4.036448681E+01  5.839537865E+01  4.768371582E-07  0.00000E+00  9.000E+00
#rwgt            1           1   3.4355222119786880E-002           9      150309           0
</event>
<event>
      5   9999  3.79277E-02  1.37147E+02 -1.00000E+00  1.17957E-01
      21    -1     0     0   502   501  0.000000000E+00  0.000000000E+00  3.895036404E+02  3.895036404E+02  0.000000000E+00  0.00000E+00  9.000E+00
      21    -1     0     0   501   511  0.000000000E+00  0.000000000E+00 -2.779485416E+02  2.779485416E+02  0.000000000E+00  0.00000E+00  9.000E+00
      25     1     1     2     0     0  1.267958778E+02 -1.594812165E+02  1.154137506E+02  2.654369734E+02  1.250000000E+02  0.00000E+00  9.000E+00
      25     1     1     2     0     0 -1.054604437E+01  2.322503295E+02  1.012396550E+01  2.641570164E+02  1.250000000E+02  0.00000E+00  9.000E+00
      21     1     1     2   502   511 -1.162498334E+02 -7.276911306E+01 -1.398261726E+01  1.378581922E+02  2.390138823E-06  0.00000E+00  9.000E+00
#rwgt            1           1   3.9059581279358255E-002           9      150397           0
</event>
<event>
      5   9999  3.79277E-02  1.18426E+01 -1.00000E+00  1.87633E-01
      21    -1     0     0   502   501  0.000000000E+00  0.000000000E+00  2.656193559E+02  2.656193559E+02  0.000000000E+00  0.00000E+00  9.000E+00
      21    -1     0     0   501   512  0.000000000E+00  0.000000000E+00 -2.617435828E+02  2.617435828E+02  0.000000000E+00  0.00000E+00  9.000E+00
      25     1     1     2     0     0 -1.209621996E+02 -1.088072897E+02  1.036545715E+02  2.298698549E+02  1.250000000E+02  0.00000E+00  9.000E+00
      25     1     1     2     0     0  1.326938235E+02  1.104244477E+02 -1.693376921E+01  2.138058979E+02  1.250000000E+02  0.00000E+00  9.000E+00
      21     1     1     2   502   512 -1.173162393E+01 -1.617158001E+00 -8.284502925E+01  8.368718583E+01  0.000000000E+00  0.00000E+00  9.000E+00
#rwgt            1           1   4.1116881548818762E-002           9      150541           0
</event>
<event>
      5   9999  3.79277E-02  5.07860E+01 -1.00000E+00  1.38690E-01
      21    -1     0     0   511   501  0.000000000E+00  0.000000000E+00  4.244090706E+02  4.244090706E+02  0.000000000E+00  0.00000E+00  9.000E+00
      21    -1     0     0   501   502  0.000000000E+00  0.000000000E+00 -7.737095295E+02  7.737095295E+02  0.000000000E+00  0.00000E+00  9.000E+00
      25     1     1     2     0     0 -2.673519407E+01  6.497708125E+01 -3.751912204E+02  4.016593626E+02  1.250000000E+02  0.00000E+00  9.000E+00
      25     1     1     2     0     0 -2.878198766E+00 -1.062355396E+02 -3.661044235E+02  4.011878896E+02  1.250000000E+02  0.00000E+00  9.000E+00
      21     1     1     2   511   502  2.961339284E+01  4.125845830E+01  3.919951850E+02  3.952713479E+02  5.394796609E-06  0.00000E+00  9.000E+00
#rwgt            1           1   3.3054405295921754E-002           9      150751           0
</event>
<event>
      5   9999 -3.79277E-02  1.40208E+02 -1.00000E+00  1.17567E-01
      -1    -1     0     0     0   501  0.000000000E+00  0.000000000E+00  1.176524270E+02  1.176524270E+02  0.000000000E+00  0.00000E+00  9.000E+00
      21    -1     0     0   501   502  0.000000000E+00  0.000000000E+00 -1.561934876E+03  1.561934876E+03  0.000000000E+00  0.00000E+00  9.000E+00
      25     1     1     2     0     0  1.490922718E+02 -8.200449797E+01 -8.574297509E+02  8.830424797E+02  1.250000000E+02  0.00000E+00  9.000E+00
      25     1     1     2     0     0 -2.137521727E+02 -4.240395410E+01 -6.050766750E+02  6.551571332E+02  1.250000000E+02  0.00000E+00  9.000E+00
      -1     1     1     2     0   502  6.465990088E+01  1.244084521E+02  1.822397643E+01  1.413876906E+02  2.870939870E-06  0.00000E+00  9.000E+00
#rwgt            1           1  -4.9990306432431707E-002           9      150853           0
</event>
<event>
      5   9999  3.79277E-02  4.53688E+01 -1.00000E+00  1.41528E-01
      21    -1     0     0   502   501  0.000000000E+00  0.000000000E+00  2.772029809E+02  2.772029809E+02  0.000000000E+00  0.00000E+00  9.000E+00
      21    -1     0     0   501   511  0.000000000E+00  0.000000000E+00 -1.744568756E+03  1.744568756E+03  0.000000000E+00  0.00000E+00  9.000E+00
      25     1     1     2     0     0 -1.413109441E+02 -6.881038471E+01  2.076540403E+02  2.888751502E+02  1.250000000E+02  0.00000E+00  9.000E+00
      25     1     1     2     0     0  1.865483546E+02  7.226101641E+01 -4.593549604E+02  5.163854401E+02  1.250000000E+02  0.00000E+00  9.000E+00
      21     1     1     2   502   511 -4.523741049E+01 -3.450631695E+00 -1.215664855E+03  1.216511147E+03  0.000000000E+00  0.00000E+00  9.000E+00
#rwgt            1           1   3.3124626379421936E-002           9      150905           0
</event>
<event>
      5   9999  3.79277E-02  1.05906E+01 -1.00000E+00  1.92920E-01
      21    -1     0     0   502   501  0.000000000E+00  0.000000000E+00  3.081975382E+02  3.081975382E+02  0.000000000E+00  0.00000E+00  9.000E+00
      21    -1     0     0   501   512  0.000000000E+00  0.000000000E+00 -2.501135174E+02  2.501135174E+02  0.000000000E+00  0.00000E+00  9.000E+00
      25     1     1     2     0     0 -2.667839927E+01 -1.401834725E+02  1.093392069E+02  2.189593687E+02  1.250000000E+02  0.00000E+00  9.000E+00
      25     1     1     2     0     0  2.501537130E+01  1.506426837E+02  7.613682189E+01  2.115202180E+02  1.250000000E+02  0.00000E+00  9.000E+00
      21     1     1     2   502   512  1.663027976E+00 -1.045921121E+01 -1.273920080E+02  1.278314690E+02  0.000000000E+00  0.00000E+00  9.000E+00
#rwgt            1           1   2.3464119205991965E-002           9      151056           0
</event>
<event>
      5   9999  3.79277E-02  8.62258E+00 -1.00000E+00  2.03504E-01
      21    -1     0     0   511   501  0.000000000E+00  0.000000000E+00  1.639389881E+02  1.639389881E+02  0.000000000E+00  0.00000E+00  9.000E+00
      21    -1     0     0   501   502  0.000000000E+00  0.000000000E+00 -3.210808394E+02  3.210808394E+02  0.000000000E+00  0.00000E+00  9.000E+00
      25     1     1     2     0     0  8.528895640E+01 -1.144698365E+02 -4.596944753E+00  1.897990555E+02  1.250000000E+02  0.00000E+00  9.000E+00
      25     1     1     2     0     0 -9.382248845E+01  1.157058466E+02 -1.808935079E+02  2.655898407E+02  1.250000000E+02  0.00000E+00  9.000E+00
      21     1     1     2   511   502  8.533532050E+00 -1.236010085E+00  2.834860135E+01  2.963093128E+01  7.539457465E-07  0.00000E+00  9.000E+00
#rwgt            1           1   6.2167130811631208E-002           9      151379           0
</event>
<event>
      5   9999  3.79277E-02  9.96032E+00 -1.00000E+00  1.95957E-01
      21    -1     0     0   502   501  0.000000000E+00  0.000000000E+00  3.708940371E+02  3.708940371E+02  0.000000000E+00  0.00000E+00  9.000E+00
       3    -1     0     0   501     0  0.000000000E+00  0.000000000E+00 -6.713858192E+01  6.713858192E+01  0.000000000E+00  0.00000E+00  9.000E+00
      25     1     1     2     0     0  6.027102851E+01 -1.270245343E+01  2.356738280E+02  2.737902526E+02  1.250000000E+02  0.00000E+00  9.000E+00
      25     1     1     2     0     0 -5.641333889E+01  2.188537974E+01  6.709247728E+01  1.542330547E+02  1.250000000E+02  0.00000E+00  9.000E+00
       3     1     1     2   502     0 -3.857689619E+00 -9.182926318E+00  9.891499268E-01  1.000931179E+01  1.881916961E-07  0.00000E+00  9.000E+00
#rwgt            1           1  0.11914907952032948                9      151649           0
</event>
<event>
      5   9999  3.79277E-02  2.00566E+02 -1.00000E+00  1.11603E-01
      21    -1     0     0   502   501  0.000000000E+00  0.000000000E+00  1.938854092E+02  1.938854092E+02  0.000000000E+00  0.00000E+00  9.000E+00
       1    -1     0     0   501     0  0.000000000E+00  0.000000000E+00 -1.524897640E+03  1.524897640E+03  0.000000000E+00  0.00000E+00  9.000E+00
      25     1     1     2     0     0 -2.140949349E+02 -1.501380338E+02 -9.340332272E+01  3.045114957E+02  1.250000000E+02  0.00000E+00  9.000E+00
      25     1     1     2     0     0  2.031656361E+02 -5.012953037E+01 -1.073278161E+02  2.663334482E+02  1.250000000E+02  0.00000E+00  9.000E+00
       1     1     1     2   502     0  1.092929880E+01  2.002675641E+02 -1.130281092E+03  1.147938105E+03  1.525878906E-05  0.00000E+00  9.000E+00
#rwgt            2          12   6.3878971771230220E-004           9      151916           0
</event>
<event>
      5   9999  3.79277E-02  1.86762E+02 -1.00000E+00  1.12742E-01
      -5    -1     0     0     0   501  0.000000000E+00  0.000000000E+00  7.637704151E+02  7.637704151E+02  0.000000000E+00  0.00000E+00  9.000E+00
      21    -1     0     0   501   502  0.000000000E+00  0.000000000E+00 -1.806588788E+02  1.806588788E+02  0.000000000E+00  0.00000E+00  9.000E+00
      25     1     1     2     0     0  4.294746303E+01  2.825513336E+02  4.633892308E+02  5.586003222E+02  1.250000000E+02  0.00000E+00  9.000E+00
      25     1     1     2     0     0 -5.597665666E+01 -9.624426934E+01  6.698069469E+00  1.675297275E+02  1.250000000E+02  0.00000E+00  9.000E+00
      -5     1     1     2     0   502  1.302919363E+01 -1.863070643E+02  1.130242360E+02  2.182992442E+02  3.015782986E-06  0.00000E+00  9.000E+00
#rwgt            2           1   1.7486281218696120E-006           9      151950           0
</event>
<event>
      5   9999  3.79277E-02  1.65289E+02 -1.00000E+00  1.14747E-01
      21    -1     0     0   502   501  0.000000000E+00  0.000000000E+00  8.595154209E+01  8.595154209E+01  0.000000000E+00  0.00000E+00  9.000E+00
       2    -1     0     0   501     0  0.000000000E+00  0.000000000E+00 -4.562952796E+03  4.562952796E+03  0.000000000E+00  0.00000E+00  9.000E+00
      25     1     1     2     0     0 -1.711258187E+01  3.129839099E+02 -4.404046939E+02  5.548270566E+02  1.250000000E+02  0.00000E+00  9.000E+00
      25     1     1     2     0     0 -7.345831701E+01 -1.747187737E+02 -4.533894681E+02  5.070599412E+02  1.250000000E+02  0.00000E+00  9.000E+00
       2     1     1     2   502     0  9.057089888E+01 -1.382651362E+02 -3.583207092E+03  3.587017340E+03  0.000000000E+00  0.00000E+00  9.000E+00
#rwgt            1           1   3.4504229692892747E-002           9      151969           0
</event>
<event>
      5   9999  3.79277E-02  7.88043E+00 -1.00000E+00  2.08529E-01
      21    -1     0     0   502   511  0.000000000E+00  0.000000000E+00  1.066986910E+02  1.066986910E+02  0.000000000E+00  0.00000E+00  9.000E+00
      21    -1     0     0   501   502  0.000000000E+00  0.000000000E+00 -8.141979672E+02  8.141979672E+02  0.000000000E+00  0.00000E+00  9.000E+00
      25     1     1     2     0     0  8.598643449E+01 -1.322408154E+02 -3.533071888E+02  4.066107104E+02  1.250000000E+02  0.00000E+00  9.000E+00
      25     1     1     2     0     0 -9.360682085E+01  1.302331073E+02 -4.101429489E+02  4.577828499E+02  1.250000000E+02  0.00000E+00  9.000E+00
      21     1     1     2   501   511  7.620386364E+00  2.007708086E+00  5.595086140E+01  5.650309790E+01  1.348699152E-06  0.00000E+00  9.000E+00
#rwgt            1           1   3.8653120508796358E-002           9      152055           0
</event>
<event>
      5   9999  3.79277E-02  8.19171E+01 -1.00000E+00  1.27854E-01
      21    -1     0     0   512   501  0.000000000E+00  0.000000000E+00  8.463040819E+01  8.463040819E+01  0.000000000E+00  0.00000E+00  9.000E+00
      21    -1     0     0   501   502  0.000000000E+00  0.000000000E+00 -2.693008215E+03  2.693008215E+03  0.000000000E+00  0.00000E+00  9.000E+00
      25     1     1     2     0     0  2.153570483E+02 -8.559591690E+00 -8.791738748E+02  9.137962721E+02  1.250000000E+02  0.00000E+00  9.000E+00
      25     1     1     2     0     0 -2.273964612E+02 -7.246794360E+01 -1.756848504E+03  1.777386401E+03  1.250000000E+02  0.00000E+00  9.000E+00
      21     1     1     2   512   502  1.203941289E+01  8.102753529E+01  2.764457178E+01  8.645594997E+01  3.615796778E-06  0.00000E+00  9.000E+00
#rwgt            1           1   6.4735665112657839E-002           9      152300           0
</event>
<event>
      5   9999  3.79277E-02  2.00209E+01 -1.00000E+00  1.66332E-01
      21    -1     0     0   502   501  0.000000000E+00  0.000000000E+00  2.542236480E+01  2.542236480E+01  0.000000000E+00  0.00000E+00  9.000E+00
       1    -1     0     0   501     0  0.000000000E+00  0.000000000E+00 -1.828789570E+03  1.828789570E+03  0.000000000E+00  0.00000E+00  9.000E+00
      25     1     1     2     0     0 -6.828664511E+01  2.351712936E+01 -2.604461599E+02  2.977806634E+02  1.250000000E+02  0.00000E+00  9.000E+00
      25     1     1     2     0     0  7.205241908E+01 -3.853534523E+00 -7.796027180E+02  7.928504264E+02  1.250000000E+02  0.00000E+00  9.000E+00
       1     1     1     2   502     0 -3.765773970E+00 -1.966359483E+01 -7.633183272E+02  7.635808449E+02  1.525878906E-05  0.00000E+00  9.000E+00
#rwgt            1           1   6.3118975064951302E-002           9      152373           0
</event>
<event>
      5   9999  3.79277E-02  9.32877E+01 -1.00000E+00  1.25201E-01
      21    -1     0     0   511   501  0.000000000E+00  0.000000000E+00  2.574876312E+02  2.574876312E+02  0.000000000E+00  0.00000E+00  9.000E+00
      21    -1     0     0   501   502  0.000000000E+00  0.000000000E+00 -4.459406870E+02  4.459406870E+02  0.000000000E+00  0.00000E+00  9.000E+00
      25     1     1     2     0     0 -6.872582978E+01  1.778716497E+02  1.799317539E+01  2.287144897E+02  1.250000000E+02  0.00000E+00  9.000E+00
      25     1     1     2     0     0  1.595023649E+02 -1.993709679E+02 -2.435273432E+02  3.743265341E+02  1.250000000E+02  0.00000E+00  9.000E+00
      21     1     1     2   511   502 -9.077653507E+01  2.149931819E+01  3.708111204E+01  1.003872944E+02  1.168007728E-06  0.00000E+00  9.000E+00
#rwgt            1           1   4.3258894795684920E-002           9      152632           0
</event>
<event>
      5   9999  3.79277E-02  1.64050E+01 -1.00000E+00  1.73797E-01
      21    -1     0     0   502   501  0.000000000E+00  0.000000000E+00  1.745621581E+03  1.745621581E+03  0.000000000E+00  0.00000E+00  9.000E+00
      21    -1     0     0   501   512  0.000000000E+00  0.000000000E+00 -4.533178687E+02  4.533178687E+02  0.000000000E+00  0.00000E+00  9.000E+00
      25     1     1     2     0     0 -1.612689257E+02 -2.246062900E+02  4.220020110E+02  5.197752872E+02  1.250000000E+02  0.00000E+00  9.000E+00
      25     1     1     2     0     0  1.545497107E+02  2.096404971E+02  1.258189243E+03  1.290929867E+03  1.250000000E+02  0.00000E+00  9.000E+00
      21     1     1     2   502   512  6.719214917E+00  1.496579293E+01 -3.878875418E+02  3.882342951E+02  7.629394531E-06  0.00000E+00  9.000E+00
#rwgt            1           1   5.4600754022017361E-002           9      152772           0
</event>
<event>
      5   9999  3.79277E-02  9.61465E+01 -1.00000E+00  1.24600E-01
      21    -1     0     0   502   501  0.000000000E+00  0.000000000E+00  1.306024470E+02  1.306024470E+02  0.000000000E+00  0.00000E+00  9.000E+00
      21    -1     0     0   501   511  0.000000000E+00  0.000000000E+00 -4.356709004E+02  4.356709004E+02  0.000000000E+00  0.00000E+00  9.000E+00
      25     1     1     2     0     0 -2.208764838E+01  1.098907898E+02 -9.414652677E+01  1.924900475E+02  1.250000000E+02  0.00000E+00  9.000E+00
      25     1     1     2     0     0 -6.725660973E+01 -1.454118939E+02 -9.839699504E+01  2.257765246E+02  1.250000000E+02  0.00000E+00  9.000E+00
      21     1     1     2   502   511  8.934425812E+01  3.552110410E+01 -1.125249316E+02  1.480067753E+02  0.000000000E+00  0.00000E+00  9.000E+00
#rwgt            1           1   2.6342943521280880E-002           9      153169           0
</event>
<event>
      5   9999  3.79277E-02  1.35323E+01 -1.00000E+00  1.81703E-01
      21    -1     0     0   512   501  0.000000000E+00  0.000000000E+00  3.193746806E+02  3.193746806E+02  0.000000000E+00  0.00000E+00  9.000E+00
      21    -1     0     0   501   502  0.000000000E+00  0.000000000E+00 -6.683824094E+02  6.683824094E+02  0.000000000E+00  0.00000E+00  9.000E+00
      25     1     1     2     0     0  1.960645287E+02 -4.449539306E+01 -4.987932755E+02  5.521239635E+02  1.250000000E+02  0.00000E+00  9.000E+00
      25     1     1     2     0     0 -2.027139515E+02  3.270943366E+01 -4.143369086E+01  2.439356553E+02  1.250000000E+02  0.00000E+00  9.000E+00
      21     1     1     2   512   502  6.649422803E+00  1.178595940E+01  1.912192376E+02  1.916974712E+02  2.697398305E-06  0.00000E+00  9.000E+00
#rwgt            1           1   5.0002835806605896E-002           9      153330           0
</event>
<event>
      5   9999  3.79277E-02  7.29369E+01 -1.00000E+00  1.30323E-01
      21    -1     0     0   502   511  0.000000000E+00  0.000000000E+00  1.109850978E+03  1.109850978E+03  0.000000000E+00  0.00000E+00  9.000E+00
      21    -1     0     0   501   502  0.000000000E+00  0.000000000E+00 -4.816698499E+01  4.816698499E+01  0.000000000E+00  0.00000E+00  9.000E+00
      25     1     1     2     0     0  8.423261732E+01  9.662989603E+01  6.615809887E+02  6.853808250E+02  1.250000000E+02  0.00000E+00  9.000E+00
      25     1     1     2     0     0 -4.289480330E+01 -3.653844155E+01  1.168671582E+02  1.801609129E+02  1.250000000E+02  0.00000E+00  9.000E+00
      21     1     1     2   501   511 -4.133781401E+01 -6.009145448E+01  2.832358462E+02  2.924762252E+02  5.394796609E-06  0.00000E+00  9.000E+00
#rwgt            1           1   3.0869627532798261E-002           9      153630           0
</event>
<event>
      5   9999  3.79277E-02  6.10047E+01 -1.00000E+00  1.34319E-01
      21    -1     0     0   502   512  0.000000000E+00  0.000000000E+00  2.384442634E+02  2.384442634E+02  0.000000000E+00  0.00000E+00  9.000E+00
      21    -1     0     0   501   502  0.000000000E+00  0.000000000E+00 -1.992007955E+02  1.992007955E+02  0.000000000E+00  0.00000E+00  9.000E+00
      25     1     1     2     0     0 -1.361425287E+02  7.249115752E+01  7.069992214E+01  2.107444780E+02  1.250000000E+02  0.00000E+00  9.000E+00
      25     1     1     2     0     0  8.298884409E+01 -4.255358759E+01 -4.891098865E+01  1.634479760E+02  1.250000000E+02  0.00000E+00  9.000E+00
      21     1     1     2   501   512  5.315368460E+01 -2.993756993E+01  1.745453442E+01  6.345260477E+01  1.507891493E-06  0.00000E+00  9.000E+00
#rwgt            1           1   4.0929104223335976E-002           9      153730           0
</event>
<event>
      5   9999  3.79277E-02  1.64145E+01 -1.00000E+00  1.73774E-01
      21    -1     0     0   502   511  0.000000000E+00  0.000000000E+00  9.492503452E+01  9.492503452E+01  0.000000000E+00  0.00000E+00  9.000E+00
      21    -1     0     0   501   502  0.000000000E+00  0.000000000E+00 -2.997350647E+02  2.997350647E+02  0.000000000E+00  0.00000E+00  9.000E+00
      25     1     1     2     0     0  9.139240068E+01  1.308228524E+01 -7.510347334E+01  1.725956222E+02  1.250000000E+02  0.00000E+00  9.000E+00
      25     1     1     2     0     0 -1.055988579E+02 -4.859640046E+00 -1.202037239E+02  2.030976862E+02  1.250000000E+02  0.00000E+00  9.000E+00
      21     1     1     2   501   511  1.420645722E+01 -8.222645196E+00 -9.502832923E+00  1.896679083E+01  3.371747881E-07  0.00000E+00  9.000E+00
#rwgt            1           1   4.8194345929090741E-002           9      153848           0
</event>
<event>
      5   9999  3.79277E-02  2.66552E+01 -1.00000E+00  1.56693E-01
      21    -1     0     0   512   501  0.000000000E+00  0.000000000E+00  5.869744055E+02  5.869744055E+02  0.000000000E+00  0.00000E+00  9.000E+00
      21    -1     0     0   501   502  0.000000000E+00  0.000000000E+00 -1.966712713E+02  1.966712713E+02  0.000000000E+00  0.00000E+00  9.000E+00
      25     1     1     2     0     0 -5.824592410E+01 -1.230700010E+02 -1.084051953E+02  2.142790218E+02  1.250000000E+02  0.00000E+00  9.000E+00
      25     1     1     2     0     0  6.230911945E+01  9.672626791E+01  1.726543401E+02  2.422249335E+02  1.250000000E+02  0.00000E+00  9.000E+00
      21     1     1     2   512   502 -4.063195350E+00  2.634373310E+01  3.260539895E+02  3.271417214E+02  0.000000000E+00  0.00000E+00  9.000E+00
#rwgt            1           1   3.6017917712987263E-002           9      154082           0
</event>
<event>
      5   9999  3.79277E-02  2.79386E+02 -1.00000E+00  1.06606E-01
      -3    -1     0     0     0   501  0.000000000E+00  0.000000000E+00  7.877099305E+02  7.877099305E+02  0.000000000E+00  0.00000E+00  9.000E+00
      21    -1     0     0   501   502  0.000000000E+00  0.000000000E+00 -2.084548030E+02  2.084548030E+02  0.000000000E+00  0.00000E+00  9.000E+00
      25     1     1     2     0     0  2.604415273E+02 -1.056483797E+02  1.993487172E+02  3.665464231E+02  1.250000000E+02  0.00000E+00  9.000E+00
      25     1     1     2     0     0 -1.138253292E+02 -1.321751998E+02  2.216998619E+02  3.085487284E+02  1.250000000E+02  0.00000E+00  9.000E+00
      -3     1     1     2     0   502 -1.466161980E+02  2.378235795E+02  1.582065484E+02  3.210695820E+02  5.046370146E-06  0.00000E+00  9.000E+00
#rwgt            1           1   2.3491640405445539E-002           9      154310           0
</event>
<event>
      5   9999  3.79277E-02  2.60186E+01 -1.00000E+00  1.57463E-01
      21    -1     0     0   502   501  0.000000000E+00  0.000000000E+00  1.454104795E+02  1.454104795E+02  0.000000000E+00  0.00000E+00  9.000E+00
      21    -1     0     0   511   502  0.000000000E+00  0.000000000E+00 -6.185539483E+02  6.185539483E+02  0.000000000E+00  0.00000E+00  9.000E+00
      25     1     1     2     0     0  3.490274511E+01 -2.208474464E+02 -1.194221257E+02  2.826277415E+02  1.250000000E+02  0.00000E+00  9.000E+00
      25     1     1     2     0     0 -4.869124935E+01  1.987829349E+02 -1.656225989E+02  2.914469733E+02  1.250000000E+02  0.00000E+00  9.000E+00
      21     1     1     2   511   501  1.378850424E+01  2.206451150E+01 -1.880987442E+02  1.898897130E+02  2.697398305E-06  0.00000E+00  9.000E+00
#rwgt            1           1   5.5260541564634107E-002           9      154377           0
</event>
<event>
      5   9999  3.79277E-02  2.92231E+01 -1.00000E+00  1.53836E-01
      21    -1     0     0   502   501  0.000000000E+00  0.000000000E+00  8.503205214E+02  8.503205214E+02  0.000000000E+00  0.00000E+00  9.000E+00
      21    -1     0     0   501   512  0.000000000E+00  0.000000000E+00 -1.418141190E+02  1.418141190E+02  0.000000000E+00  0.00000E+00  9.000E+00
      25     1     1     2     0     0  1.255709253E+02 -2.057301588E+02  5.222969486E+02  5.886527482E+02  1.250000000E+02  0.00000E+00  9.000E+00
      25     1     1     2     0     0 -9.635385503E+01  2.051386499E+02  2.330413306E+02  3.482803365E+02  1.250000000E+02  0.00000E+00  9.000E+00
      21     1     1     2   502   512 -2.921707024E+01  5.915088624E-01 -4.683187675E+01  5.520155574E+01  1.907348633E-06  0.00000E+00  9.000E+00
#rwgt            1           1   6.2928395610470769E-002           9      154515           0
</event>
<event>
      5   9999 -3.79277E-02  2.11243E+02 -1.00000E+00  1.10790E-01
      21    -1     0     0   502   501  0.000000000E+00  0.000000000E+00  3.762389119E+02  3.762389119E+02  0.000000000E+00  0.00000E+00  9.000E+00
       4    -1     0     0   501     0  0.000000000E+00  0.000000000E+00 -1.195301222E+03  1.195301222E+03  0.000000000E+00  0.00000E+00  9.000E+00
      25     1     1     2     0     0  2.258352108E+01  1.400229814E+02  7.059040259E+01  2.018030121E+02  1.250000000E+02  0.00000E+00  9.000E+00
      25     1     1     2     0     0  1.873478939E+02 -1.165152340E+02  1.594750557E+02  2.995535453E+02  1.250000000E+02  0.00000E+00  9.000E+00
       4     1     1     2   502     0 -2.099314150E+02 -2.350774746E+01 -1.049127768E+03  1.070183577E+03  1.525878906E-05  0.00000E+00  9.000E+00
#rwgt            1           1  -1.0555678025412690E-002           9      154838           0
</event>
<event>
      5   9999  3.79277E-02  1.68433E+01 -1.00000E+00  1.72769E-01
      21    -1     0     0   502   501  0.000000000E+00  0.000000000E+00  3.793320515E+02  3.793320515E+02  0.000000000E+00  0.00000E+00  9.000E+00
      21    -1     0     0   501   511  0.000000000E+00  0.000000000E+00 -2.699685053E+02  2.699685053E+02  0.000000000E+00  0.00000E+00  9.000E+00
      25     1     1     2     0     0  1.041527167E+02  7.212908685E+01  3.087725026E+02  3.563928338E+02  1.250000000E+02  0.00000E+00  9.000E+00
      25     1     1     2     0     0 -1.192247180E+02 -7.964788389E+01 -2.000535591E+02  2.760520699E+02  1.250000000E+02  0.00000E+00  9.000E+00
      21     1     1     2   502   511  1.507200129E+01  7.518797045E+00  6.446025809E-01  1.685565319E+01  2.246322249E-07  0.00000E+00  9.000E+00
#rwgt            1           1   4.5242824829834306E-002           9      155007           0
</event>
<event>
      5   9999  3.79277E-02  9.35684E+00 -1.00000E+00  1.99155E-01
      21    -1     0     0   502   501  0.000000000E+00  0.000000000E+00  1.764011382E+02  1.764011382E+02  0.000000000E+00  0.00000E+00  9.000E+00
      21    -1     0     0   501   512  0.000000000E+00  0.000000000E+00 -2.105336174E+03  2.105336174E+03  0.000000000E+00  0.00000E+00  9.000E+00
      25     1     1     2     0     0  1.329584129E+02 -8.963801507E+01 -1.290144042E+02  2.407958260E+02  1.250000000E+02  0.00000E+00  9.000E+00
      25     1     1     2     0     0 -1.355817120E+02  9.861959039E+01  2.976447872E+01  2.112324512E+02  1.250000000E+02  0.00000E+00  9.000E+00
      21     1     1     2   502   512  2.623299180E+00 -8.981575314E+00 -1.829685110E+03  1.829709035E+03  2.157918644E-05  0.00000E+00  9.000E+00
#rwgt            1           1   3.9665697706446214E-002           9      155325           0
</event>
<event>
      5   9999  3.79277E-02  2.61057E+01 -1.00000E+00  1.57356E-01
      21    -1     0     0   511   501  0.000000000E+00  0.000000000E+00  2.783469704E+02  2.783469704E+02  0.000000000E+00  0.00000E+00  9.000E+00
      21    -1     0     0   501   502  0.000000000E+00  0.000000000E+00 -1.616168295E+02  1.616168295E+02  0.000000000E+00  0.00000E+00  9.000E+00
      25     1     1     2     0     0  1.286856455E+02 -4.995319498E+01  7.400231154E+01  2.003912652E+02  1.250000000E+02  0.00000E+00  9.000E+00
      25     1     1     2     0     0 -1.536830696E+02  4.242760978E+01  1.762775635E+01  2.033576302E+02  1.250000000E+02  0.00000E+00  9.000E+00
      21     1     1     2   511   502  2.499742414E+01  7.525585197E+00  2.510007294E+01  3.621490450E+01  4.768371582E-07  0.00000E+00  9.000E+00
#rwgt            1           1   2.8465176665536586E-002           9      155533           0
</event>
<event>
      5   9999  3.79277E-02  5.54003E+01 -1.00000E+00  1.36581E-01
      21    -1     0     0   502   501  0.000000000E+00  0.000000000E+00  5.209207902E+02  5.209207902E+02  0.000000000E+00  0.00000E+00  9.000E+00
      21    -1     0     0   501   512  0.000000000E+00  0.000000000E+00 -1.316743177E+02  1.316743177E+02  0.000000000E+00  0.00000E+00  9.000E+00
      25     1     1     2     0     0 -7.707992566E+01  2.771007243E+01 -3.199421440E+01  1.528325646E+02  1.250000000E+02  0.00000E+00  9.000E+00
      25     1     1     2     0     0  2.184002042E+01 -3.192330169E+01  4.245568966E+02  4.442630326E+02  1.250000000E+02  0.00000E+00  9.000E+00
      21     1     1     2   502   512  5.523990524E+01  4.213229259E+00 -3.316209766E+00  5.549951062E+01  1.440411326E-06  0.00000E+00  9.000E+00
#rwgt            1           1   3.4298575347253404E-002           9      155629           0
</event>
<event>
      5   9999  3.79277E-02  1.84862E+01 -1.00000E+00  1.69240E-01
      21    -1     0     0   502   501  0.000000000E+00  0.000000000E+00  2.928227501E+02  2.928227501E+02  0.000000000E+00  0.00000E+00  9.000E+00
      21    -1     0     0   511   502  0.000000000E+00  0.000000000E+00 -2.095362532E+02  2.095362532E+02  0.000000000E+00  0.00000E+00  9.000E+00
      25     1     1     2     0     0 -8.560295913E+01  1.262191114E+02 -7.196335103E+01  2.099115399E+02  1.250000000E+02  0.00000E+00  9.000E+00
      25     1     1     2     0     0  9.729456169E+01 -1.118997224E+02  1.779247041E+02  2.631919071E+02  1.250000000E+02  0.00000E+00  9.000E+00
      21     1     1     2   511   501 -1.169160256E+01 -1.431938894E+01 -2.267485619E+01  2.925555628E+01  0.000000000E+00  0.00000E+00  9.000E+00
#rwgt            1           1   4.1542373550158988E-002           9      155795           0
</event>
<event>
      5   9999  3.79277E-02  2.11140E+01 -1.00000E+00  1.64450E-01
      21    -1     0     0   502   501  0.000000000E+00  0.000000000E+00  2.454579585E+02  2.454579585E+02  0.000000000E+00  0.00000E+00  9.000E+00
      21    -1     0     0   512   502  0.000000000E+00  0.000000000E+00 -2.311931916E+02  2.311931916E+02  0.000000000E+00  0.00000E+00  9.000E+00
      25     1     1     2     0     0 -8.568518641E+01  6.187352692E+01 -6.280712104E+01  1.753283176E+02  1.250000000E+02  0.00000E+00  9.000E+00
      25     1     1     2     0     0  8.508345478E+01 -8.297894090E+01  1.480275167E+02  2.272924209E+02  1.250000000E+02  0.00000E+00  9.000E+00
      21     1     1     2   512   501  6.017316242E-01  2.110541398E+01 -7.095562880E+01  7.403041158E+01  9.536743164E-07  0.00000E+00  9.000E+00
#rwgt            1           1   4.1061654496308338E-002           9      155986           0
</event>
<event>
      5   9999  3.79277E-02  6.93298E+01 -1.00000E+00  1.31433E-01
      21    -1     0     0   502   511  0.000000000E+00  0.000000000E+00  8.772658184E+01  8.772658184E+01  0.000000000E+00  0.00000E+00  9.000E+00
      21    -1     0     0   501   502  0.000000000E+00  0.000000000E+00 -1.261894842E+03  1.261894842E+03  0.000000000E+00  0.00000E+00  9.000E+00
      25     1     1     2     0     0 -1.315637702E+02 -2.916529354E+01 -7.258130553E+02  7.487250706E+02  1.250000000E+02  0.00000E+00  9.000E+00
      25     1     1     2     0     0  8.270906467E+01 -2.002654426E+01 -4.948369505E+02  5.174267672E+02  1.250000000E+02  0.00000E+00  9.000E+00
      21     1     1     2   501   511  4.885470553E+01  4.919183780E+01  4.648174552E+01  8.346958623E+01  2.697398305E-06  0.00000E+00  9.000E+00
#rwgt            1           1   3.6133710682607637E-002           9      156206           0
</event>
<event>
      5   9999  3.79277E-02  1.64668E+02 -1.00000E+00  1.14810E-01
      21    -1     0     0   512   501  0.000000000E+00  0.000000000E+00  3.216188652E+02  3.216188652E+02  0.000000000E+00  0.00000E+00  9.000E+00
      21    -1     0     0   501   502  0.000000000E+00  0.000000000E+00 -3.040416888E+02  3.040416888E+02  0.000000000E+00  0.00000E+00  9.000E+00
      25     1     1     2     0     0 -7.003733272E+01 -4.682613448E+01  1.245249462E+02  1.955233415E+02  1.250000000E+02  0.00000E+00  9.000E+00
      25     1     1     2     0     0  5.244714703E+00  1.982114206E+02 -1.229688860E+02  2.646915586E+02  1.250000000E+02  0.00000E+00  9.000E+00
      21     1     1     2   512   502  6.479261802E+01 -1.513852861E+02  1.602111624E+01  1.654456538E+02  7.907449699E-07  0.00000E+00  9.000E+00
#rwgt            1           1   3.9967969634421410E-002           9      156261           0
</event>
<event>
      5   9999  3.79277E-02  8.18863E+00 -1.00000E+00  2.06356E-01
      21    -1     0     0   502   511  0.000000000E+00  0.000000000E+00  6.234225117E+01  6.234225117E+01  0.000000000E+00  0.00000E+00  9.000E+00
      21    -1     0     0   501   502  0.000000000E+00  0.000000000E+00 -6.261427406E+02  6.261427406E+02  0.000000000E+00  0.00000E+00  9.000E+00
      25     1     1     2     0     0 -5.718199967E+01 -3.927365367E+01 -3.654608094E+02  3.924268138E+02  1.250000000E+02  0.00000E+00  9.000E+00
      25     1     1     2     0     0  5.096044204E+01  3.394956989E+01 -2.269855668E+02  2.662648822E+02  1.250000000E+02  0.00000E+00  9.000E+00
      21     1     1     2   501   511  6.221557625E+00  5.324083784E+00  2.864588677E+01  2.979329582E+01  8.259061849E-07  0.00000E+00  9.000E+00
#rwgt            1           1   6.9125266522655035E-002           9      156352           0
</event>
<event>
      5   9999  3.79277E-02  5.72724E+01 -1.00000E+00  1.35792E-01
      21    -1     0     0   502   501  0.000000000E+00  0.000000000E+00  1.905480649E+02  1.905480649E+02  0.000000000E+00  0.00000E+00  9.000E+00
      21    -1     0     0   501   512  0.000000000E+00  0.000000000E+00 -3.226880323E+02  3.226880323E+02  0.000000000E+00  0.00000E+00  9.000E+00
      25     1     1     2     0     0 -1.015290114E+02 -2.409929927E+01  1.062672948E+02  1.944393332E+02  1.250000000E+02  0.00000E+00  9.000E+00
      25     1     1     2     0     0  7.620683267E+01 -2.727103758E+01 -1.370780475E+02  2.024020304E+02  1.250000000E+02  0.00000E+00  9.000E+00
      21     1     1     2   502   512  2.532217872E+01  5.137033685E+01 -1.013292147E+02  1.163947335E+02  0.000000000E+00  0.00000E+00  9.000E+00
#rwgt            1           1   4.5720046638493800E-002           9      156543           0
</event>
<event>
      5   9999  3.79277E-02  1.26451E+02 -1.00000E+00  1.19411E-01
      21    -1     0     0   511   501  0.000000000E+00  0.000000000E+00  6.596003780E+02  6.596003780E+02  0.000000000E+00  0.00000E+00  9.000E+00
      21    -1     0     0   501   502  0.000000000E+00  0.000000000E+00 -1.966091646E+02  1.966091646E+02  0.000000000E+00  0.00000E+00  9.000E+00
      25     1     1     2     0     0 -3.701571809E+01  2.324275373E+02 -2.553721941E+01  2.677122953E+02  1.250000000E+02  0.00000E+00  9.000E+00
      25     1     1     2     0     0  4.034447146E+01 -1.060202724E+02  3.999395449E+02  4.341020780E+02  1.250000000E+02  0.00000E+00  9.000E+00
      21     1     1     2   511   502 -3.328753366E+00 -1.264072649E+02  8.858888796E+01  1.543951693E+02  3.438521648E-06  0.00000E+00  9.000E+00
#rwgt            1           1   4.2339629410259927E-002           9      156642           0
</event>
<event>
      5   9999  3.79277E-02  1.12824E+02 -1.00000E+00  1.21516E-01
      21    -1     0     0   502   512  0.000000000E+00  0.000000000E+00  2.855446009E+02  2.855446009E+02  0.000000000E+00  0.00000E+00  9.000E+00
      21    -1     0     0   501   502  0.000000000E+00  0.000000000E+00 -2.325539898E+02  2.325539898E+02  0.000000000E+00  0.00000E+00  9.000E+00
      25     1     1     2     0     0 -1.665698128E+01  2.446108201E+01 -1.392818818E+02  1.894735923E+02  1.250000000E+02  0.00000E+00  9.000E+00
      25     1     1     2     0     0 -2.743994034E+01  7.938818911E+01  1.342721948E+02  2.017658474E+02  1.250000000E+02  0.00000E+00  9.000E+00
      21     1     1     2   501   512  4.409692162E+01 -1.038492711E+02  5.800029811E+01  1.268591510E+02  2.431401974E-06  0.00000E+00  9.000E+00
#rwgt            1           1   5.4637470558790015E-002           9      156729           0
</event>
<event>
      5   9999  3.79277E-02  1.61846E+01 -1.00000E+00  1.74329E-01
      21    -1     0     0   502   511  0.000000000E+00  0.000000000E+00  3.087818824E+02  3.087818824E+02  0.000000000E+00  0.00000E+00  9.000E+00
      21    -1     0     0   501   502  0.000000000E+00  0.000000000E+00 -1.813423816E+02  1.813423816E+02  0.000000000E+00  0.00000E+00  9.000E+00
      25     1     1     2     0     0  1.173243285E+02 -1.089323996E+01 -9.252984517E+01  1.951164600E+02  1.250000000E+02  0.00000E+00  9.000E+00
      25     1     1     2     0     0 -1.257080447E+02  2.473718029E+01  2.102701835E+02  2.761394406E+02  1.250000000E+02  0.00000E+00  9.000E+00
      21     1     1     2   501   511  8.383716229E+00 -1.384394033E+01  9.699162495E+00  1.886836333E+01  1.192092896E-07  0.00000E+00  9.000E+00
#rwgt            1           1   3.7856407875532447E-002           9      156798           0
</event>
<event>
      5   9999  7.08444E-02  6.62856E+01 -1.00000E+00  1.32431E-01
       1    -1     0     0   502     0  0.000000000E+00  0.000000000E+00  9.531936918E+02  9.531936918E+02  0.000000000E+00  0.00000E+00  9.000E+00
      21    -1     0     0   501   502  0.000000000E+00  0.000000000E+00 -1.394846953E+03  1.394846953E+03  0.000000000E+00  0.00000E+00  9.000E+00
      25     1     1     2     0     0  1.479904296E+01 -8.256549885E+01 -1.982885719E+02  2.489566850E+02  1.250000000E+02  0.00000E+00  9.000E+00
      25     1     1     2     0     0 -7.674056669E+01  1.061670002E+02 -1.163026199E+03  1.177036740E+03  1.250000000E+02  0.00000E+00  9.000E+00
       1     1     1     2   501     0  6.194152373E+01 -2.360150132E+01  9.196615099E+02  9.220472200E+02  0.000000000E+00  0.00000E+00  9.000E+00
#rwgt            2          17   3.1126577281041144E-002           9      157062           0
</event>
<event>
      5   9999  3.79277E-02  4.46697E+01 -1.00000E+00  1.41928E-01
       1    -1     0     0   502     0  0.000000000E+00  0.000000000E+00  4.848414904E+02  4.848414904E+02  0.000000000E+00  0.00000E+00  9.000E+00
      21    -1     0     0   501   502  0.000000000E+00  0.000000000E+00 -3.052394478E+02  3.052394478E+02  0.000000000E+00  0.00000E+00  9.000E+00
      25     1     1     2     0     0 -6.523786971E+01  6.819566211E+00 -2.239944370E+02  2.647659229E+02  1.250000000E+02  0.00000E+00  9.000E+00
      25     1     1     2     0     0  2.796841507E+01  1.780501861E+01  1.056487150E+01  1.297531018E+02  1.250000000E+02  0.00000E+00  9.000E+00
       1     1     1     2   501     0  3.726945463E+01 -2.462458482E+01  3.930316081E+02  3.955619135E+02  5.394796609E-06  0.00000E+00  9.000E+00
#rwgt            1           1   4.2327018630191948E-002           9      157096           0
</event>
<event>
      5   9999 -3.79277E-02  1.06243E+02 -1.00000E+00  1.22656E-01
      21    -1     0     0   511   501  0.000000000E+00  0.000000000E+00  8.820701236E+01  8.820701236E+01  0.000000000E+00  0.00000E+00  9.000E+00
      21    -1     0     0   501   502  0.000000000E+00  0.000000000E+00 -8.347878353E+02  8.347878353E+02  0.000000000E+00  0.00000E+00  9.000E+00
      25     1     1     2     0     0 -6.028024551E+01 -6.913334291E+01 -4.232617774E+02  4.507645276E+02  1.250000000E+02  0.00000E+00  9.000E+00
      25     1     1     2     0     0  1.450506490E+02  1.331770066E+02 -1.843249578E+02  2.972818460E+02  1.250000000E+02  0.00000E+00  9.000E+00
      21     1     1     2   511   502 -8.477040354E+01 -6.404366367E+01 -1.389940877E+02  1.749484741E+02  4.264961200E-06  0.00000E+00  9.000E+00
#rwgt            1           1  -7.2158123309709943E-002           9      157240           0
</event>
<event>
      5   9999  3.79277E-02  1.79661E+01 -1.00000E+00  1.70306E-01
      21    -1     0     0   512   501  0.000000000E+00  0.000000000E+00  8.455302171E+01  8.455302171E+01  0.000000000E+00  0.00000E+00  9.000E+00
      21    -1     0     0   501   502  0.000000000E+00  0.000000000E+00 -1.186686985E+03  1.186686985E+03  0.000000000E+00  0.00000E+00  9.000E+00
      25     1     1     2     0     0 -7.311041358E+01 -1.615343843E+02 -1.105779294E+02  2.434973683E+02  1.250000000E+02  0.00000E+00  9.000E+00
      25     1     1     2     0     0  7.667769178E+01  1.791427660E+02 -9.785502491E+02  1.005563120E+03  1.250000000E+02  0.00000E+00  9.000E+00
      21     1     1     2   512   502 -3.567278207E+00 -1.760838165E+01 -1.300578447E+01  2.217951775E+01  2.920019320E-07  0.00000E+00  9.000E+00
#rwgt            1           1   3.5680118961376246E-002           9      157350           0
</event>
<event>
      5   9999  3.79277E-02  8.25499E+00 -1.00000E+00  2.05905E-01
      21    -1     0     0   502   511  0.000000000E+00  0.000000000E+00  2.832810851E+02  2.832810851E+02  0.000000000E+00  0.00000E+00  9.000E+00
      21    -1     0     0   501   502  0.000000000E+00  0.000000000E+00 -1.188354661E+02  1.188354661E+02  0.000000000E+00  0.00000E+00  9.000E+00
      25     1     1     2     0     0 -3.654900447E+01 -2.814406930E+01 -3.945950223E+01  1.389603205E+02  1.250000000E+02  0.00000E+00  9.000E+00
      25     1     1     2     0     0  3.593443188E+01  3.637615129E+01  1.256447117E+02  1.844616528E+02  1.250000000E+02  0.00000E+00  9.000E+00
      21     1     1     2   501   511  6.145725903E-01 -8.232081990E+00  7.826040954E+01  7.869457780E+01  9.536743164E-07  0.00000E+00  9.000E+00
#rwgt            1           1   3.5473121559520336E-002           9      157603           0
</event>
<event>
      5   9999  3.79277E-02  1.87045E+01 -1.00000E+00  1.68805E-01
      21    -1     0     0   502   512  0.000000000E+00  0.000000000E+00  1.081606931E+02  1.081606931E+02  0.000000000E+00  0.00000E+00  9.000E+00
      21    -1     0     0   501   502  0.000000000E+00  0.000000000E+00 -4.062355990E+02  4.062355990E+02  0.000000000E+00  0.00000E+00  9.000E+00
      25     1     1     2     0     0 -6.647640246E+01 -1.138815279E+01  2.548111686E+01  1.443020770E+02  1.250000000E+02  0.00000E+00  9.000E+00
      25     1     1     2     0     0  6.823316457E+01 -7.233698967E+00 -3.209605945E+02  3.512104702E+02  1.250000000E+02  0.00000E+00  9.000E+00
      21     1     1     2   501   512 -1.756762107E+00  1.862185176E+01 -2.595428280E+00  1.888374497E+01  2.043144286E-07  0.00000E+00  9.000E+00
#rwgt            1           1   4.9686000930780468E-002           9      157876           0
</event>
<event>
      5   9999  3.79277E-02  8.54000E+00 -1.00000E+00  2.04029E-01
      21    -1     0     0   502   501  0.000000000E+00  0.000000000E+00  7.508749532E+02  7.508749532E+02  0.000000000E+00  0.00000E+00  9.000E+00
      21    -1     0     0   511   502  0.000000000E+00  0.000000000E+00 -8.376699731E+01  8.376699731E+01  0.000000000E+00  0.00000E+00  9.000E+00
      25     1     1     2     0     0  3.583391304E+01 -9.642702605E+01  2.588912352E+01  1.639435494E+02  1.250000000E+02  0.00000E+00  9.000E+00
      25     1     1     2     0     0 -2.763640320E+01  9.403277693E+01  6.426938445E+02  6.620319567E+02  1.250000000E+02  0.00000E+00  9.000E+00
      21     1     1     2   511   501 -8.197509838E+00  2.394249113E+00 -1.475012207E+00  8.666444333E+00  5.161913656E-08  0.00000E+00  9.000E+00
#rwgt            1           1   3.9405454089573251E-002           9      158068           0
</event>
<event>
      5   9999  3.79277E-02  6.08986E+01 -1.00000E+00  1.34359E-01
      21    -1     0     0   512   501  0.000000000E+00  0.000000000E+00  7.388784829E+01  7.388784829E+01  0.000000000E+00  0.00000E+00  9.000E+00
      21    -1     0     0   501   502  0.000000000E+00  0.000000000E+00 -1.737912040E+03  1.737912040E+03  0.000000000E+00  0.00000E+00  9.000E+00
      25     1     1     2     0     0 -2.460468542E+02  2.078885977E+02 -8.053981122E+02  8.763833879E+02  1.250000000E+02  0.00000E+00  9.000E+00
      25     1     1     2     0     0  1.853505309E+02 -2.128475242E+02 -7.468635830E+02  8.081392822E+02  1.250000000E+02  0.00000E+00  9.000E+00
      21     1     1     2   512   502  6.069632332E+01  4.958926533E+00 -1.117624963E+02  1.272772179E+02  0.000000000E+00  0.00000E+00  9.000E+00
#rwgt            1           1   3.3467925128241101E-002           9      158491           0
</event>
<event>
      5   9999  3.79277E-02  1.08614E+02 -1.00000E+00  1.22235E-01
      21    -1     0     0   502   501  0.000000000E+00  0.000000000E+00  3.388581665E+02  3.388581665E+02  0.000000000E+00  0.00000E+00  9.000E+00
      21    -1     0     0   511   502  0.000000000E+00  0.000000000E+00 -2.612664337E+02  2.612664337E+02  0.000000000E+00  0.00000E+00  9.000E+00
      25     1     1     2     0     0  4.978420079E+01 -3.529190932E+01  2.073660713E+02  2.496991651E+02  1.250000000E+02  0.00000E+00  9.000E+00
      25     1     1     2     0     0 -1.441733302E+02  8.902936408E+01 -5.215444850E+01  2.169268617E+02  1.250000000E+02  0.00000E+00  9.000E+00
      21     1     1     2   511   501  9.438912944E+01 -5.373745477E+01 -7.761988991E+01  1.334985734E+02  1.348699152E-06  0.00000E+00  9.000E+00
#rwgt            1           1   3.0598248256494962E-002           9      158766           0
</event>
<event>
      5   9999  3.79277E-02  3.78376E+01 -1.00000E+00  1.46353E-01
      21    -1     0     0   502   501  0.000000000E+00  0.000000000E+00  1.188167503E+02  1.188167503E+02  0.000000000E+00  0.00000E+00  9.000E+00
      21    -1     0     0   512   502  0.000000000E+00  0.000000000E+00 -6.807159759E+02  6.807159759E+02  0.000000000E+00  0.00000E+00  9.000E+00
      25     1     1     2     0     0  8.977175585E+01 -2.539748369E+01 -3.680008287E+02  3.996918941E+02  1.250000000E+02  0.00000E+00  9.000E+00
      25     1     1     2     0     0 -5.193741335E+01  2.489891133E+01  5.490335124E+01  1.481783677E+02  1.250000000E+02  0.00000E+00  9.000E+00
      21     1     1     2   512   501 -3.783434251E+01  4.985723574E-01 -2.488017482E+02  2.516624643E+02  6.031565972E-06  0.00000E+00  9.000E+00
#rwgt            1           1   3.3223793560844990E-002           9      158836           0
</event>
<event>
      5   9999 -3.79277E-02  8.41017E+00 -1.00000E+00  2.04871E-01
      21    -1     0     0   502   511  0.000000000E+00  0.000000000E+00  4.983022868E+02  4.983022868E+02  0.000000000E+00  0.00000E+00  9.000E+00
      21    -1     0     0   501   502  0.000000000E+00  0.000000000E+00 -1.309241966E+02  1.309241966E+02  0.000000000E+00  0.00000E+00  9.000E+00
      25     1     1     2     0     0  1.264214590E+02  5.471825072E+01  9.853293367E+01  2.104999080E+02  1.250000000E+02  0.00000E+00  9.000E+00
      25     1     1     2     0     0 -1.236310252E+02 -6.265199863E+01  4.146591904E+01  1.911918559E+02  1.250000000E+02  0.00000E+00  9.000E+00
      21     1     1     2   501   511 -2.790433749E+00  7.933747913E+00  2.273792375E+02  2.275347194E+02  2.697398305E-06  0.00000E+00  9.000E+00
#rwgt            1           1 -0.16236663038252949                9      158944           0
</event>
<event>
      5   9999  3.79277E-02  6.12500E+01 -1.00000E+00  1.34227E-01
      21    -1     0     0   512   501  0.000000000E+00  0.000000000E+00  4.718156479E+02  4.718156479E+02  0.000000000E+00  0.00000E+00  9.000E+00
      21    -1     0     0   501   502  0.000000000E+00  0.000000000E+00 -1.326165676E+02  1.326165676E+02  0.000000000E+00  0.00000E+00  9.000E+00
      25     1     1     2     0     0 -3.473642868E+01  5.910783814E+01  1.732416167E+02  2.243613464E+02  1.250000000E+02  0.00000E+00  9.000E+00
      25     1     1     2     0     0  8.162096584E+01 -1.969458363E+01 -4.758216017E+01  1.579206150E+02  1.250000000E+02  0.00000E+00  9.000E+00
      21     1     1     2   512   502 -4.688453716E+01 -3.941325451E+01  2.135396237E+02  2.221502540E+02  2.697398305E-06  0.00000E+00  9.000E+00
#rwgt            1           1   3.0771097150901334E-002           9      159366           0
</event>
<event>
      5   9999  3.79277E-02  3.60119E+01 -1.00000E+00  1.47727E-01
       2    -1     0     0   502     0  0.000000000E+00  0.000000000E+00  4.138660116E+01  4.138660116E+01  0.000000000E+00  0.00000E+00  9.000E+00
      21    -1     0     0   501   502  0.000000000E+00  0.000000000E+00 -8.741243110E+02  8.741243110E+02  0.000000000E+00  0.00000E+00  9.000E+00
      25     1     1     2     0     0 -3.430756874E+01 -1.088807234E+02 -3.513182470E+02  3.899763222E+02  1.250000000E+02  0.00000E+00  9.000E+00
      25     1     1     2     0     0  3.882500567E+01  7.315324822E+01 -4.595686014E+02  4.834119136E+02  1.250000000E+02  0.00000E+00  9.000E+00
       2     1     1     2   501     0 -4.517436929E+00  3.572747518E+01 -2.185086139E+01  4.212267635E+01  9.233911863E-07  0.00000E+00  9.000E+00
#rwgt            1           1   3.3483177985908393E-002           9      159446           0
</event>
<event>
      5   9999  3.79277E-02  1.94358E+01 -1.00000E+00  1.67401E-01
      21    -1     0     0   502   511  0.000000000E+00  0.000000000E+00  1.067810459E+02  1.067810459E+02  0.000000000E+00  0.00000E+00  9.000E+00
      21    -1     0     0   501   502  0.000000000E+00  0.000000000E+00 -3.807707665E+02  3.807707665E+02  0.000000000E+00  0.00000E+00  9.000E+00
      25     1     1     2     0     0  1.196181184E+02 -3.562392356E+00 -1.148765236E+02  2.077084509E+02  1.250000000E+02  0.00000E+00  9.000E+00
      25     1     1     2     0     0 -1.215179554E+02 -1.578036039E+01 -1.801610285E+02  2.511944057E+02  1.250000000E+02  0.00000E+00  9.000E+00
      21     1     1     2   501   511  1.899836983E+00  1.934275275E+01  2.104783145E+01  2.864895589E+01  0.000000000E+00  0.00000E+00  9.000E+00
#rwgt            1           1   3.5104545198254622E-002           9      159579           0
</event>
<event>
      5   9999  3.79277E-02  8.93015E+00 -1.00000E+00  2.01615E-01
      21    -1     0     0   512   501  0.000000000E+00  0.000000000E+00  2.530096139E+02  2.530096139E+02  0.000000000E+00  0.00000E+00  9.000E+00
      21    -1     0     0   501   502  0.000000000E+00  0.000000000E+00 -4.807689676E+02  4.807689676E+02  0.000000000E+00  0.00000E+00  9.000E+00
      25     1     1     2     0     0 -2.196285361E+01 -2.854978186E+02 -2.654233285E+02  4.099584304E+02  1.250000000E+02  0.00000E+00  9.000E+00
      25     1     1     2     0     0  3.019899109E+01  2.820462094E+02  2.892541165E+01  3.113257502E+02  1.250000000E+02  0.00000E+00  9.000E+00
      21     1     1     2   512   502 -8.236137478E+00  3.451609132E+00  8.738563122E+00  1.249440081E+01  1.685873940E-07  0.00000E+00  9.000E+00
#rwgt            1           1   3.7600929739851248E-002           9      159735           0
</event>
<event>
      5   9999  3.79277E-02  4.85259E+01 -1.00000E+00  1.39821E-01
      21    -1     0     0   502   511  0.000000000E+00  0.000000000E+00  1.703769828E+02  1.703769828E+02  0.000000000E+00  0.00000E+00  9.000E+00
      21    -1     0     0   501   502  0.000000000E+00  0.000000000E+00 -9.156384952E+02  9.156384952E+02  0.000000000E+00  0.00000E+00  9.000E+00
      25     1     1     2     0     0 -5.482898387E+01 -1.906345133E+02 -7.345087203E+02  7.710225648E+02  1.250000000E+02  0.00000E+00  9.000E+00
      25     1     1     2     0     0  4.325853147E+01  1.435082110E+02 -9.554192493E+01  2.172997160E+02  1.250000000E+02  0.00000E+00  9.000E+00
      21     1     1     2   501   511  1.157045240E+01  4.712630227E+01  8.478913286E+01  9.769319723E+01  2.336015456E-06  0.00000E+00  9.000E+00
#rwgt            1           1   3.2070518390530454E-002           9      160002           0
</event>
<event>
      5   9999  3.79277E-02  7.70370E+01 -1.00000E+00  1.29148E-01
       2    -1     0     0   502     0  0.000000000E+00  0.000000000E+00  5.844934581E+02  5.844934581E+02  0.000000000E+00  0.00000E+00  9.000E+00
      21    -1     0     0   501   502  0.000000000E+00  0.000000000E+00 -1.203176065E+02  1.203176065E+02  0.000000000E+00  0.00000E+00  9.000E+00
      25     1     1     2     0     0  7.408918990E+01 -1.298309948E+02  9.284906896E+01  2.158500518E+02  1.250000000E+02  0.00000E+00  9.000E+00
      25     1     1     2     0     0 -4.421166066E+01  2.008382568E+02  2.918584742E+02  3.782817010E+02  1.250000000E+02  0.00000E+00  9.000E+00
       2     1     1     2   501     0 -2.987752923E+01 -7.100726200E+01  7.946830842E+01  1.106793118E+02  9.536743164E-07  0.00000E+00  9.000E+00
#rwgt            1           1   3.7039450517919015E-002           9      160118           0
</event>
<event>
      5   9999  3.79277E-02  1.10702E+02 -1.00000E+00  1.21874E-01
      21    -1     0     0   502   501  0.000000000E+00  0.000000000E+00  4.847387293E+02  4.847387293E+02  0.000000000E+00  0.00000E+00  9.000E+00
      21    -1     0     0   501   511  0.000000000E+00  0.000000000E+00 -6.435225278E+02  6.435225278E+02  0.000000000E+00  0.00000E+00  9.000E+00
      25     1     1     2     0     0  1.896007254E+02  1.402870118E+02  2.686853407E+02  3.787422515E+02  1.250000000E+02  0.00000E+00  9.000E+00
      25     1     1     2     0     0 -1.749266403E+02 -3.056150103E+01  7.900725962E+01  2.310854429E+02  1.250000000E+02  0.00000E+00  9.000E+00
      21     1     1     2   502   511 -1.467408509E+01 -1.097255108E+02 -5.064763987E+02  5.184335627E+02  9.344061824E-06  0.00000E+00  9.000E+00
#rwgt            1           1   3.9355019468212717E-002           9      160246           0
</event>
<event>
      5   9999  3.79277E-02  1.51648E+02 -1.00000E+00  1.16206E-01
      21    -1     0     0   502   512  0.000000000E+00  0.000000000E+00  1.117158258E+02  1.117158258E+02  0.000000000E+00  0.00000E+00  9.000E+00
      21    -1     0     0   501   502  0.000000000E+00  0.000000000E+00 -1.146245232E+03  1.146245232E+03  0.000000000E+00  0.00000E+00  9.000E+00
      25     1     1     2     0     0  1.473651894E+02  1.491340872E+02 -6.652593785E+02  7.086272050E+02  1.250000000E+02  0.00000E+00  9.000E+00
      25     1     1     2     0     0  4.280376219E+00 -1.482318535E+02 -3.449674753E+02  3.957506323E+02  1.250000000E+02  0.00000E+00  9.000E+00
      21     1     1     2   501   512 -1.516455656E+02 -9.022337224E-01 -2.430255252E+01  1.535832206E+02  2.454669509E-06  0.00000E+00  9.000E+00
#rwgt            1           1   4.4112160979840949E-002           9      160383           0
</event>
<event>
      5   9999  3.79277E-02  2.71095E+01 -1.00000E+00  1.56160E-01
       2    -1     0     0   502     0  0.000000000E+00  0.000000000E+00  2.567464706E+03  2.567464706E+03  0.000000000E+00  0.00000E+00  9.000E+00
      21    -1     0     0   501   502  0.000000000E+00  0.000000000E+00 -1.751617415E+02  1.751617415E+02  0.000000000E+00  0.00000E+00  9.000E+00
      25     1     1     2     0     0 -5.613890372E+01  3.244563475E+01 -1.221397196E+02  1.864065633E+02  1.250000000E+02  0.00000E+00  9.000E+00
      25     1     1     2     0     0  5.013508825E+01 -5.888195816E+01  2.387768092E+02  2.803925403E+02  1.250000000E+02  0.00000E+00  9.000E+00
       2     1     1     2   501     0  6.003815471E+00  2.643632341E+01  2.275665875E+03  2.275827344E+03  3.051757812E-05  0.00000E+00  9.000E+00
#rwgt            1           1   3.8312581849023294E-002           9      160451           0
</event>
<event>
      5   9999  3.79277E-02  2.37974E+01 -1.00000E+00  1.60372E-01
      -2    -1     0     0     0   501  0.000000000E+00  0.000000000E+00  2.965558401E+02  2.965558401E+02  0.000000000E+00  0.00000E+00  9.000E+00
      21    -1     0     0   501   502  0.000000000E+00  0.000000000E+00 -5.365934080E+02  5.365934080E+02  0.000000000E+00  0.00000E+00  9.000E+00
      25     1     1     2     0     0  1.221124564E+01 -1.371702561E+02 -1.407735572E+02  2.332530559E+02  1.250000000E+02  0.00000E+00  9.000E+00
      25     1     1     2     0     0  8.469830143E+00  1.489434103E+02 -3.218062026E+02  3.760852424E+02  1.250000000E+02  0.00000E+00  9.000E+00
      -2     1     1     2     0   502 -2.068107578E+01 -1.177315427E+01  2.225421919E+02  2.238109498E+02  4.672030912E-06  0.00000E+00  9.000E+00
#rwgt            1           1   4.4127197430901606E-002           9      160728           0
</event>
<event>
      5   9999  3.79277E-02  5.85951E+01 -1.00000E+00  1.35256E-01
       2    -1     0     0   502     0  0.000000000E+00  0.000000000E+00  3.866073425E+02  3.866073425E+02  0.000000000E+00  0.00000E+00  9.000E+00
      21    -1     0     0   501   502  0.000000000E+00  0.000000000E+00 -3.090221782E+02  3.090221782E+02  0.000000000E+00  0.00000E+00  9.000E+00
      25     1     1     2     0     0 -4.503282577E+01 -6.378053981E+01  1.468693842E+01  1.481101577E+02  1.250000000E+02  0.00000E+00  9.000E+00
      25     1     1     2     0     0  4.312738896E+01  5.216443877E+00 -2.210251590E+02  2.576127013E+02  1.250000000E+02  0.00000E+00  9.000E+00
       2     1     1     2   501     0  1.905436809E+00  5.856409593E+01  2.839233849E+02  2.899066617E+02  3.814697266E-06  0.00000E+00  9.000E+00
#rwgt            1           1   3.4656338086756500E-002           9      160876           0
</event>
<event>
      5   9999  3.79277E-02  1.82242E+02 -1.00000E+00  1.13138E-01
       1    -1     0     0   502     0  0.000000000E+00  0.000000000E+00  2.980547331E+03  2.980547331E+03  0.000000000E+00  0.00000E+00  9.000E+00
      21    -1     0     0   501   502  0.000000000E+00  0.000000000E+00 -1.725853064E+02  1.725853064E+02  0.000000000E+00  0.00000E+00  9.000E+00
      25     1     1     2     0     0 -2.323976648E+02 -5.824263088E+01 -1.918494035E+01  2.709131606E+02  1.250000000E+02  0.00000E+00  9.000E+00
      25     1     1     2     0     0  6.998446176E+01  1.409102351E+02  3.942459380E+02  4.425024055E+02  1.250000000E+02  0.00000E+00  9.000E+00
       1     1     1     2   501     0  1.624132030E+02 -8.266760421E+01  2.432901027E+03  2.439717072E+03  0.000000000E+00  0.00000E+00  9.000E+00
#rwgt            1           1  0.19953721217893661                9      161011           0
</event>
<event>
      5   9999  3.79277E-02  7.22443E+01 -1.00000E+00  1.30530E-01
      21    -1     0     0   502   501  0.000000000E+00  0.000000000E+00  1.105244618E+02  1.105244618E+02  0.000000000E+00  0.00000E+00  9.000E+00
      21    -1     0     0   511   502  0.000000000E+00  0.000000000E+00 -7.959108470E+02  7.959108470E+02  0.000000000E+00  0.00000E+00  9.000E+00
      25     1     1     2     0     0 -6.523899392E+01  8.138046106E+01 -4.026758133E+02  4.343405535E+02  1.250000000E+02  0.00000E+00  9.000E+00
      25     1     1     2     0     0  1.998204364E+01 -2.506836997E+01  4.488437640E+01  1.366283736E+02  1.250000000E+02  0.00000E+00  9.000E+00
      21     1     1     2   511   501  4.525695028E+01 -5.631209109E+01 -3.275949483E+02  3.354663818E+02  3.814697266E-06  0.00000E+00  9.000E+00
#rwgt            2          11   1.0557333299057122E-003           9      161263           0
</event>
<event>
      5   9999  3.79277E-02  1.00237E+02 -1.00000E+00  1.23782E-01
      21    -1     0     0   502   501  0.000000000E+00  0.000000000E+00  8.385576350E+02  8.385576350E+02  0.000000000E+00  0.00000E+00  9.000E+00
      -2    -1     0     0     0   502  0.000000000E+00  0.000000000E+00 -7.833287176E+01  7.833287176E+01  0.000000000E+00  0.00000E+00  9.000E+00
      25     1     1     2     0     0  1.130995430E+02  2.899169870E+01  4.931864202E+02  5.220056229E+02  1.250000000E+02  0.00000E+00  9.000E+00
      25     1     1     2     0     0 -1.582650597E+01 -4.794390287E+00  2.663025225E+02  2.946446979E+02  1.250000000E+02  0.00000E+00  9.000E+00
      -2     1     1     2     0   501 -9.727303700E+01 -2.419730841E+01  7.358204759E-01  1.002401860E+02  1.033350137E-06  0.00000E+00  9.000E+00
#rwgt            1           1   4.9828970895260588E-002           9      161388           0
</event>
<event>
      5   9999 -3.79277E-02  3.77165E+01 -1.00000E+00  1.46441E-01
      21    -1     0     0   502   501  0.000000000E+00  0.000000000E+00  1.075835760E+03  1.075835760E+03  0.000000000E+00  0.00000E+00  9.000E+00
      21    -1     0     0   511   502  0.000000000E+00  0.000000000E+00 -4.106135469E+01  4.106135469E+01  0.000000000E+00  0.00000E+00  9.000E+00
      25     1     1     2     0     0  1.368387667E+01  1.523792871E+02  5.732771969E+02  6.063649397E+02  1.250000000E+02  0.00000E+00  9.000E+00
      25     1     1     2     0     0 -1.118131031E+01 -1.147459035E+02  4.262155508E+02  4.588859769E+02  1.250000000E+02  0.00000E+00  9.000E+00
      21     1     1     2   511   501 -2.502566360E+00 -3.763338357E+01  3.528165720E+01  5.164619765E+01  1.261592536E-06  0.00000E+00  9.000E+00
#rwgt            1           1  -5.8527287833745480E-002           9      161462           0
</event>
<event>
      5   9999  3.79277E-02  3.21660E+01 -1.00000E+00  1.50966E-01
      21    -1     0     0   512   501  0.000000000E+00  0.000000000E+00  3.778057228E+02  3.778057228E+02  0.000000000E+00  0.00000E+00  9.000E+00
      21    -1     0     0   501   502  0.000000000E+00  0.000000000E+00 -4.318875873E+02  4.318875873E+02  0.000000000E+00  0.00000E+00  9.000E+00
      25     1     1     2     0     0  1.055134452E+02 -7.077827876E+01  2.630009189E+01  1.801647765E+02  1.250000000E+02  0.00000E+00  9.000E+00
      25     1     1     2     0     0 -1.307718387E+02  9.069478514E+01 -3.249734824E+02  3.828310099E+02  1.250000000E+02  0.00000E+00  9.000E+00
      21     1     1     2   512   502  2.525839352E+01 -1.991650638E+01  2.445915259E+02  2.466975238E+02  2.697398305E-06  0.00000E+00  9.000E+00
#rwgt            1           1   4.1960731485675022E-002           9      161595           0
</event>
<event>
      5   9999  3.79277E-02  2.34666E+01 -1.00000E+00  1.60838E-01
       2    -1     0     0   502     0  0.000000000E+00  0.000000000E+00  3.250116453E+02  3.250116453E+02  0.000000000E+00  0.00000E+00  9.000E+00
      21    -1     0     0   501   502  0.000000000E+00  0.000000000E+00 -4.531248008E+02  4.531248008E+02  0.000000000E+00  0.00000E+00  9.000E+00
      25     1     1     2     0     0 -1.239347238E+01 -5.696471632E+01  2.008607540E+01  1.393808720E+02  1.250000000E+02  0.00000E+00  9.000E+00
      25     1     1     2     0     0  1.581348962E+01  8.018072211E+01 -3.786890713E+02  4.070742284E+02  1.250000000E+02  0.00000E+00  9.000E+00
       2     1     1     2   501     0 -3.420017244E+00 -2.321600578E+01  2.304898404E+02  2.316813457E+02  0.000000000E+00  0.00000E+00  9.000E+00
#rwgt            1           1   1.6604094483861614E-002           9      161805           0
</event>
<event>
      5   9999  3.79277E-02  2.30499E+01 -1.00000E+00  1.61439E-01
      21    -1     0     0   502   501  0.000000000E+00  0.000000000E+00  1.570565202E+02  1.570565202E+02  0.000000000E+00  0.00000E+00  9.000E+00
      21    -1     0     0   511   502  0.000000000E+00  0.000000000E+00 -2.991205967E+02  2.991205967E+02  0.000000000E+00  0.00000E+00  9.000E+00
      25     1     1     2     0     0  4.042979229E+01  5.374581856E+01 -1.320228312E+02  1.938509971E+02  1.250000000E+02  0.00000E+00  9.000E+00
      25     1     1     2     0     0 -1.791862671E+01 -4.879150444E+01  8.809715685E+01  1.615171729E+02  1.250000000E+02  0.00000E+00  9.000E+00
      21     1     1     2   511   501 -2.251116558E+01 -4.954314121E+00 -9.813840214E+01  1.008089469E+02  0.000000000E+00  0.00000E+00  9.000E+00
#rwgt            1           1   4.6980335082334804E-002           9      161958           0
</event>
<event>
      5   9999  3.79277E-02  3.80615E+01 -1.00000E+00  1.46191E-01
      21    -1     0     0   502   501  0.000000000E+00  0.000000000E+00  2.323787978E+02  2.323787978E+02  0.000000000E+00  0.00000E+00  9.000E+00
      21    -1     0     0   512   502  0.000000000E+00  0.000000000E+00 -2.424576257E+02  2.424576257E+02  0.000000000E+00  0.00000E+00  9.000E+00
      25     1     1     2     0     0 -2.434101237E+01  2.804998260E+01  1.771616044E+02  2.199784546E+02  1.250000000E+02  0.00000E+00  9.000E+00
      25     1     1     2     0     0 -1.193641353E+01 -3.956633507E+01 -1.229069463E+02  1.801085514E+02  1.250000000E+02  0.00000E+00  9.000E+00
      21     1     1     2   512   501  3.627742591E+01  1.151635247E+01 -6.433348595E+01  7.474941752E+01  1.348699152E-06  0.00000E+00  9.000E+00
#rwgt            1           1   4.1388994555049401E-002           9      162227           0
</event>
<event>
      5   9999  3.79277E-02  1.09631E+02 -1.00000E+00  1.22058E-01
      21    -1     0     0   502   511  0.000000000E+00  0.000000000E+00  6.811934960E+02  6.811934960E+02  0.000000000E+00  0.00000E+00  9.000E+00
      21    -1     0     0   501   502  0.000000000E+00  0.000000000E+00 -3.686003821E+02  3.686003821E+02  0.000000000E+00  0.00000E+00  9.000E+00
      25     1     1     2     0     0  2.925114733E+02 -3.780266479E+02  9.704897293E+01  5.034983730E+02  1.250000000E+02  0.00000E+00  9.000E+00
      25     1     1     2     0     0 -2.457984294E+02  2.788458662E+02  1.743757769E+02  4.291896977E+02  1.250000000E+02  0.00000E+00  9.000E+00
      21     1     1     2   501   511 -4.671304384E+01  9.918078167E+01  4.116836401E+01  1.171058073E+02  2.611744678E-06  0.00000E+00  9.000E+00
#rwgt            1           1   3.0782312047829771E-002           9      162657           0
</event>
<event>
      5   9999  3.79277E-02  6.37529E+01 -1.00000E+00  1.33310E-01
      21    -1     0     0   502   501  0.000000000E+00  0.000000000E+00  1.010417691E+03  1.010417691E+03  0.000000000E+00  0.00000E+00  9.000E+00
      21    -1     0     0   512   502  0.000000000E+00  0.000000000E+00 -7.372170605E+01  7.372170605E+01  0.000000000E+00  0.00000E+00  9.000E+00
      25     1     1     2     0     0  1.069821851E+02 -1.147830082E+01  1.817129224E+02  2.454007447E+02  1.250000000E+02  0.00000E+00  9.000E+00
      25     1     1     2     0     0 -7.238336864E+01  6.502594982E+01  7.585235534E+02  7.748875449E+02  1.250000000E+02  0.00000E+00  9.000E+00
      21     1     1     2   512   501 -3.459881647E+01 -5.354764900E+01 -3.540491093E+00  6.385110721E+01  1.073711129E-06  0.00000E+00  9.000E+00
#rwgt            2          11   1.7922391450305569E-003           9      162787           0
</event>
<event>
      5   9999  3.79277E-02  7.46346E+01 -1.00000E+00  1.29826E-01
      21    -1     0     0   502   511  0.000000000E+00  0.000000000E+00  6.398484306E+02  6.398484306E+02  0.000000000E+00  0.00000E+00  9.000E+00
      21    -1     0     0   501   502  0.000000000E+00  0.000000000E+00 -1.942593329E+02  1.942593329E+02  0.000000000E+00  0.00000E+00  9.000E+00
      25     1     1     2     0     0 -8.484829148E+01  5.507741116E+01  2.015865817E+02  2.578660577E+02  1.250000000E+02  0.00000E+00  9.000E+00
      25     1     1     2     0     0  1.366071631E+02 -1.306258877E+00 -1.093803224E+02  2.150634284E+02  1.250000000E+02  0.00000E+00  9.000E+00
      21     1     1     2   501   511 -5.175887159E+01 -5.377115228E+01  3.533828384E+02  3.611782774E+02  0.000000000E+00  0.00000E+00  9.000E+00
#rwgt            1           1   2.6386905230574579E-002           9      162972           0
</event>
<event>
      5   9999  3.79277E-02  2.63225E+01 -1.00000E+00  1.57092E-01
      21    -1     0     0   502   501  0.000000000E+00  0.000000000E+00  5.128668352E+02  5.128668352E+02  0.000000000E+00  0.00000E+00  9.000E+00
      21    -1     0     0   512   502  0.000000000E+00  0.000000000E+00 -1.428395670E+02  1.428395670E+02  0.000000000E+00  0.00000E+00  9.000E+00
      25     1     1     2     0     0 -1.170468932E+02 -1.033756789E+01 -1.868011796E+01  1.725711080E+02  1.250000000E+02  0.00000E+00  9.000E+00
      25     1     1     2     0     0  9.080462189E+01  8.284514222E+00  4.168278604E+02  4.446173386E+02  1.250000000E+02  0.00000E+00  9.000E+00
      21     1     1     2   512   501  2.624227134E+01  2.053053663E+00 -2.812047425E+01  3.851795564E+01  4.768371582E-07  0.00000E+00  9.000E+00
#rwgt            1           1   3.3252752972098149E-002           9      163167           0
</event>
<event>
      5   9999  3.79277E-02  5.13834E+01 -1.00000E+00  1.38403E-01
      21    -1     0     0   502   511  0.000000000E+00  0.000000000E+00  2.812961433E+02  2.812961433E+02  0.000000000E+00  0.00000E+00  9.000E+00
      21    -1     0     0   501   502  0.000000000E+00  0.000000000E+00 -6.277694774E+02  6.277694774E+02  0.000000000E+00  0.00000E+00  9.000E+00
      25     1     1     2     0     0  2.750561466E+01  3.127026647E+02 -1.733854058E+02  3.797723190E+02  1.250000000E+02  0.00000E+00  9.000E+00
      25     1     1     2     0     0 -7.874992382E+01 -3.164803546E+02 -2.551048252E+02  4.325099273E+02  1.250000000E+02  0.00000E+00  9.000E+00
      21     1     1     2   501   511  5.124430915E+01  3.777689892E+00  8.201689699E+01  9.678337436E+01  2.336015456E-06  0.00000E+00  9.000E+00
#rwgt            1           1   3.7582817468509389E-002           9      163298           0
</event>
<event>
      5   9999  3.79277E-02  5.13113E+01 -1.00000E+00  1.38437E-01
      21    -1     0     0   512   501  0.000000000E+00  0.000000000E+00  4.616054890E+02  4.616054890E+02  0.000000000E+00  0.00000E+00  9.000E+00
      21    -1     0     0   501   502  0.000000000E+00  0.000000000E+00 -1.734797916E+02  1.734797916E+02  0.000000000E+00  0.00000E+00  9.000E+00
      25     1     1     2     0     0 -1.528999871E+02  1.299911150E+02  1.369390028E+01  2.368303590E+02  1.250000000E+02  0.00000E+00  9.000E+00
      25     1     1     2     0     0  1.107128015E+02 -1.591987914E+02  1.874264221E+02  2.972460989E+02  1.250000000E+02  0.00000E+00  9.000E+00
      21     1     1     2   512   502  4.218718553E+01  2.920767635E+01  8.700537500E+01  1.010088227E+02  1.651812370E-06  0.00000E+00  9.000E+00
#rwgt            1           1   3.5600014558616701E-002           9      163395           0
</event>
<event>
      5   9999  3.79277E-02  2.24920E+01 -1.00000E+00  1.62268E-01
      21    -1     0     0   511   501  0.000000000E+00  0.000000000E+00  1.130749919E+03  1.130749919E+03  0.000000000E+00  0.00000E+00  9.000E+00
      21    -1     0     0   501   502  0.000000000E+00  0.000000000E+00 -1.300460767E+02  1.300460767E+02  0.000000000E+00  0.00000E+00  9.000E+00
      25     1     1     2     0     0 -1.000702541E+01  1.488106793E+02  4.123417807E+01  1.989221362E+02  1.250000000E+02  0.00000E+00  9.000E+00
      25     1     1     2     0     0 -1.226657221E+01 -1.456838066E+02  1.301428909E+02  2.322421416E+02  1.250000000E+02  0.00000E+00  9.000E+00
      21     1     1     2   511   502  2.227359762E+01 -3.126872749E+00  8.293267735E+02  8.296317181E+02  0.000000000E+00  0.00000E+00  9.000E+00
#rwgt            1           1   4.3117356300375269E-002           9      163656           0
</event>
<event>
      5   9999  3.79277E-02  1.19535E+01 -1.00000E+00  1.87206E-01
      21    -1     0     0   512   501  0.000000000E+00  0.000000000E+00  5.826831100E+02  5.826831100E+02  0.000000000E+00  0.00000E+00  9.000E+00
      21    -1     0     0   501   502  0.000000000E+00  0.000000000E+00 -4.475664850E+02  4.475664850E+02  0.000000000E+00  0.00000E+00  9.000E+00
      25     1     1     2     0     0 -7.532208291E+01 -1.657732905E+02 -9.193363657E+01  2.392300014E+02  1.250000000E+02  0.00000E+00  9.000E+00
      25     1     1     2     0     0  8.397836548E+01  1.740167579E+02 -2.349422862E+02  3.288724308E+02  1.250000000E+02  0.00000E+00  9.000E+00
      21     1     1     2   512   502 -8.656282570E+00 -8.243467373E+00  4.619925477E+02  4.621471628E+02  5.394796609E-06  0.00000E+00  9.000E+00
#rwgt            1           1   4.6113278206689659E-002           9      163759           0
</event>
<event>
      5   9999  3.79277E-02  2.91294E+01 -1.00000E+00  1.53934E-01
      21    -1     0     0   502   511  0.000000000E+00  0.000000000E+00  9.553804475E+02  9.553804475E+02  0.000000000E+00  0.00000E+00  9.000E+00
      21    -1     0     0   501   502  0.000000000E+00  0.000000000E+00 -6.380118088E+02  6.380118088E+02  0.000000000E+00  0.00000E+00  9.000E+00
      25     1     1     2     0     0 -6.823414016E+01 -8.326983204E+01 -5.717551613E+02  5.950787572E+02  1.250000000E+02  0.00000E+00  9.000E+00
      25     1     1     2     0     0  6.065936042E+01  5.514254968E+01  4.845550463E+01  1.571406845E+02  1.250000000E+02  0.00000E+00  9.000E+00
      21     1     1     2   501   511  7.574779744E+00  2.812728237E+01  8.406682954E+02  8.411728147E+02  1.078959322E-05  0.00000E+00  9.000E+00
#rwgt            1           1   4.7334806303164778E-002           9      163997           0
</event>
<event>
      5   9999  3.79277E-02  1.69774E+01 -1.00000E+00  1.72463E-01
      21    -1     0     0   512   501  0.000000000E+00  0.000000000E+00  1.685718499E+02  1.685718499E+02  0.000000000E+00  0.00000E+00  9.000E+00
      21    -1     0     0   501   502  0.000000000E+00  0.000000000E+00 -8.368158585E+02  8.368158585E+02  0.000000000E+00  0.00000E+00  9.000E+00
      25     1     1     2     0     0 -4.299490780E+01 -2.315446719E+02 -9.125681553E+00  2.667766393E+02  1.250000000E+02  0.00000E+00  9.000E+00
      25     1     1     2     0     0  3.014957934E+01  2.426455169E+02 -6.659217876E+02  7.203212278E+02  1.250000000E+02  0.00000E+00  9.000E+00
      21     1     1     2   512   502  1.284532847E+01 -1.110084498E+01  6.803460555E+00  1.828984140E+01  3.953724850E-07  0.00000E+00  9.000E+00
#rwgt            1           1   3.0856840157629677E-002           9      164154           0
</event>
<event>
      5   9999  3.79277E-02  1.58754E+01 -1.00000E+00  1.75094E-01
      21    -1     0     0   502   501  0.000000000E+00  0.000000000E+00  9.016933150E+01  9.016933150E+01  0.000000000E+00  0.00000E+00  9.000E+00
      21    -1     0     0   501   511  0.000000000E+00  0.000000000E+00 -1.160074163E+03  1.160074163E+03  0.000000000E+00  0.00000E+00  9.000E+00
      25     1     1     2     0     0  1.835306651E+02 -1.498928838E+02 -2.047986416E+02  3.372222787E+02  1.250000000E+02  0.00000E+00  9.000E+00
      25     1     1     2     0     0 -1.818530694E+02  1.656794136E+02 -8.223700282E+02  8.674316516E+02  1.250000000E+02  0.00000E+00  9.000E+00
      21     1     1     2   502   511 -1.677595676E+00 -1.578652977E+01 -4.273616181E+01  4.558956433E+01  6.743495762E-07  0.00000E+00  9.000E+00
#rwgt            1           1   3.8397491693625115E-002           9      164473           0
</event>
<event>
      5   9999  3.79277E-02  2.18578E+01 -1.00000E+00  1.63248E-01
      21    -1     0     0   512   501  0.000000000E+00  0.000000000E+00  7.503941290E+02  7.503941290E+02  0.000000000E+00  0.00000E+00  9.000E+00
      21    -1     0     0   501   502  0.000000000E+00  0.000000000E+00 -6.487325866E+01  6.487325866E+01  0.000000000E+00  0.00000E+00  9.000E+00
      25     1     1     2     0     0 -8.465222774E+01  7.028972268E+01  5.436201690E+02  5.685547757E+02  1.250000000E+02  0.00000E+00  9.000E+00
      25     1     1     2     0     0  7.105024394E+01 -8.739969069E+01  9.094431166E+01  1.912660736E+02  1.250000000E+02  0.00000E+00  9.000E+00
      21     1     1     2   512   502  1.360198381E+01  1.710996801E+01  5.095638972E+01  5.544653841E+01  6.743495762E-07  0.00000E+00  9.000E+00
#rwgt            1           1   3.6069971542309488E-002           9      164753           0
</event>
<event>
      5   9999  3.79277E-02  8.53905E+01 -1.00000E+00  1.26994E-01
      21    -1     0     0   502   501  0.000000000E+00  0.000000000E+00  6.295278598E+02  6.295278598E+02  0.000000000E+00  0.00000E+00  9.000E+00
      21    -1     0     0   511   502  0.000000000E+00  0.000000000E+00 -9.254860481E+01  9.254860481E+01  0.000000000E+00  0.00000E+00  9.000E+00
      25     1     1     2     0     0 -1.970133966E+01 -1.519100300E+01  2.002297884E+02  2.373518012E+02  1.250000000E+02  0.00000E+00  9.000E+00
      25     1     1     2     0     0  1.005462167E+02 -1.229810362E+01  3.616112511E+02  3.957884309E+02  1.250000000E+02  0.00000E+00  9.000E+00
      21     1     1     2   511   501 -8.084487703E+01  2.748910662E+01 -2.486178460E+01  8.893623254E+01  1.936921693E-06  0.00000E+00  9.000E+00
#rwgt            1           1   1.4823130768888585E-002           9      164898           0
</event>
<event>
      5   9999  3.79277E-02  2.20598E+01 -1.00000E+00  1.62932E-01
      21    -1     0     0   502   501  0.000000000E+00  0.000000000E+00  8.998620749E+02  8.998620749E+02  0.000000000E+00  0.00000E+00  9.000E+00
      21    -1     0     0   512   502  0.000000000E+00  0.000000000E+00 -1.034488924E+02  1.034488924E+02  0.000000000E+00  0.00000E+00  9.000E+00
      25     1     1     2     0     0  2.665439961E+01  1.101694747E+02  5.558010275E+02  5.808507143E+02  1.250000000E+02  0.00000E+00  9.000E+00
      25     1     1     2     0     0 -4.431829046E+01 -9.695507945E+01  3.093514045E+02  3.502680256E+02  1.250000000E+02  0.00000E+00  9.000E+00
      21     1     1     2   512   501  1.766389085E+01 -1.321439529E+01 -6.873924940E+01  7.219222736E+01  2.861022949E-06  0.00000E+00  9.000E+00
#rwgt            1           1   3.7046060812612178E-002           9      165246           0
</event>
<event>
      5   9999  3.79277E-02  8.23657E+01 -1.00000E+00  1.27740E-01
      21    -1     0     0   502   501  0.000000000E+00  0.000000000E+00  2.143772435E+03  2.143772435E+03  0.000000000E+00  0.00000E+00  9.000E+00
      21    -1     0     0   511   502  0.000000000E+00  0.000000000E+00 -1.360411890E+02  1.360411890E+02  0.000000000E+00  0.00000E+00  9.000E+00
      25     1     1     2     0     0  4.670991818E+01  1.371291189E+02  1.429882745E+03  1.442628115E+03  1.250000000E+02  0.00000E+00  9.000E+00
      25     1     1     2     0     0 -1.123609807E+02 -8.738927418E+01  6.800400604E+02  7.059329706E+02  1.250000000E+02  0.00000E+00  9.000E+00
      21     1     1     2   511   501  6.565106248E+01 -4.973984477E+01 -1.021915595E+02  1.312525390E+02  5.722045898E-06  0.00000E+00  9.000E+00
#rwgt            1           1  0.11364627112453739                9      165496           0
</event>
<event>
      5   9999  3.79277E-02  8.53115E+00 -1.00000E+00  2.04086E-01
      21    -1     0     0   502   501  0.000000000E+00  0.000000000E+00  4.625485559E+01  4.625485559E+01  0.000000000E+00  0.00000E+00  9.000E+00
      21    -1     0     0   512   502  0.000000000E+00  0.000000000E+00 -1.194027940E+03  1.194027940E+03  0.000000000E+00  0.00000E+00  9.000E+00
      25     1     1     2     0     0 -1.397642150E+02  1.312565370E+02 -5.418180880E+02  5.881786759E+02  1.250000000E+02  0.00000E+00  9.000E+00
      25     1     1     2     0     0  1.451953850E+02 -1.246775613E+02 -5.516628010E+02  5.971457445E+02  1.250000000E+02  0.00000E+00  9.000E+00
      21     1     1     2   512   501 -5.431169995E+00 -6.578975724E+00 -5.429219507E+01  5.495837492E+01  9.536743164E-07  0.00000E+00  9.000E+00
#rwgt            1           1   4.0684605289727588E-002           9      165666           0
</event>
<event>
      5   9999  3.79277E-02  2.31990E+01 -1.00000E+00  1.61222E-01
      21    -1     0     0   502   501  0.000000000E+00  0.000000000E+00  7.406598092E+02  7.406598092E+02  0.000000000E+00  0.00000E+00  9.000E+00
      21    -1     0     0   511   502  0.000000000E+00  0.000000000E+00 -1.129629566E+02  1.129629566E+02  0.000000000E+00  0.00000E+00  9.000E+00
      25     1     1     2     0     0 -1.406972857E+02 -2.565677378E+00  3.603719920E+02  4.065652242E+02  1.250000000E+02  0.00000E+00  9.000E+00
      25     1     1     2     0     0  1.299680470E+02  2.313455389E+01  3.319062157E+02  3.784357764E+02  1.250000000E+02  0.00000E+00  9.000E+00
      21     1     1     2   511   501  1.072923875E+01 -2.056887651E+01 -6.458135507E+01  6.862176527E+01  1.651812370E-06  0.00000E+00  9.000E+00
#rwgt            1           1   1.2445931722247625E-002           9      166017           0
</event>
<event>
      5   9999  3.79277E-02  2.61910E+01 -1.00000E+00  1.57252E-01
      21    -1     0     0   512   501  0.000000000E+00  0.000000000E+00  7.400538438E+02  7.400538438E+02  0.000000000E+00  0.00000E+00  9.000E+00
      21    -1     0     0   501   502  0.000000000E+00  0.000000000E+00 -7.474295906E+01  7.474295906E+01  0.000000000E+00  0.00000E+00  9.000E+00
      25     1     1     2     0     0 -5.864361268E+01  5.287401192E+01  3.025270475E+01  1.509137522E+02  1.250000000E+02  0.00000E+00  9.000E+00
      25     1     1     2     0     0  6.293099179E+01 -7.871174715E+01  5.928560332E+02  6.142142338E+02  1.250000000E+02  0.00000E+00  9.000E+00
      21     1     1     2   512   502 -4.287379108E+00  2.583773524E+01  4.220214676E+01  4.966881691E+01  0.000000000E+00  0.00000E+00  9.000E+00
#rwgt            1           1   3.8312032609965192E-002           9      166229           0
</event>
<event>
      5   9999  3.79277E-02  2.10940E+02 -1.00000E+00  1.10813E-01
      21    -1     0     0   511   501  0.000000000E+00  0.000000000E+00  1.066365987E+03  1.066365987E+03  0.000000000E+00  0.00000E+00  9.000E+00
      21    -1     0     0   501   502  0.000000000E+00  0.000000000E+00 -3.785895070E+02  3.785895070E+02  0.000000000E+00  0.00000E+00  9.000E+00
      25     1     1     2     0     0 -8.776885955E+01  3.036213815E+01 -1.197330597E+02  1.964337999E+02  1.250000000E+02  0.00000E+00  9.000E+00
      25     1     1     2     0     0  2.509775684E+02 -1.639977514E+02 -8.144906066E+01  3.348790107E+02  1.250000000E+02  0.00000E+00  9.000E+00
      21     1     1     2   511   502 -1.632087089E+02  1.336356132E+02  8.889586000E+02  9.136426831E+02  1.868812365E-05  0.00000E+00  9.000E+00
#rwgt            1           1   4.0431457353838629E-002           9      166411           0
</event>
<event>
      5   9999  3.79277E-02  5.18548E+01 -1.00000E+00  1.38179E-01
      21    -1     0     0   502   501  0.000000000E+00  0.000000000E+00  4.671785936E+01  4.671785936E+01  0.000000000E+00  0.00000E+00  9.000E+00
      21    -1     0     0   512   502  0.000000000E+00  0.000000000E+00 -1.075032690E+03  1.075032690E+03  0.000000000E+00  0.00000E+00  9.000E+00
      25     1     1     2     0     0  1.368480885E+02  1.237324778E+01 -2.274543772E+02  2.936681636E+02  1.250000000E+02  0.00000E+00  9.000E+00
      25     1     1     2     0     0 -8.504736036E+01 -1.000591061E+01 -4.888866951E+02  5.118284599E+02  1.250000000E+02  0.00000E+00  9.000E+00
      21     1     1     2   512   501 -5.180072814E+01 -2.367337164E+00 -3.119737581E+02  3.162539256E+02  5.394796609E-06  0.00000E+00  9.000E+00
#rwgt            1           1   2.5274215386949815E-002           9      166553           0
</event>
<event>
      5   9999  3.79277E-02  1.29318E+02 -1.00000E+00  1.19006E-01
      21    -1     0     0   502   501  0.000000000E+00  0.000000000E+00  5.545146887E+02  5.545146887E+02  0.000000000E+00  0.00000E+00  9.000E+00
      -1    -1     0     0     0   502  0.000000000E+00  0.000000000E+00 -3.028741409E+02  3.028741409E+02  0.000000000E+00  0.00000E+00  9.000E+00
      25     1     1     2     0     0  1.882131565E+02  3.485542151E+01  1.391012686E+02  2.676065313E+02  1.250000000E+02  0.00000E+00  9.000E+00
      25     1     1     2     0     0 -1.541323417E+02  8.989057629E+01  2.946402022E+02  3.664354557E+02  1.250000000E+02  0.00000E+00  9.000E+00
      -1     1     1     2     0   501 -3.408081479E+01 -1.247459978E+02 -1.821009230E+02  2.233468425E+02  4.672030912E-06  0.00000E+00  9.000E+00
#rwgt            1           1   5.1505371373347805E-002           9      166641           0
</event>
<event>
      5   9999  5.26964E-02  2.11979E+01 -1.00000E+00  1.64311E-01
      21    -1     0     0   502   511  0.000000000E+00  0.000000000E+00  5.786075689E+02  5.786075689E+02  0.000000000E+00  0.00000E+00  9.000E+00
      21    -1     0     0   501   502  0.000000000E+00  0.000000000E+00 -4.314477962E+02  4.314477962E+02  0.000000000E+00  0.00000E+00  9.000E+00
      25     1     1     2     0     0  2.953927317E+02 -2.892057572E+01  3.080331132E+02  4.456485885E+02  1.250000000E+02  0.00000E+00  9.000E+00
      25     1     1     2     0     0 -2.914864145E+02  4.975543200E+01 -2.905587220E+02  4.330003508E+02  1.250000000E+02  0.00000E+00  9.000E+00
      21     1     1     2   501   511 -3.906317195E+00 -2.083485628E+01  1.296853815E+02  1.314064258E+02  1.907348633E-06  0.00000E+00  9.000E+00
#rwgt            1           1  0.32685423299568572                9      166812           0
</event>
<event>
      5   9999  3.79277E-02  6.73219E+01 -1.00000E+00  1.32084E-01
      21    -1     0     0   502   501  0.000000000E+00  0.000000000E+00  1.359684280E+03  1.359684280E+03  0.000000000E+00  0.00000E+00  9.000E+00
      21    -1     0     0   512   502  0.000000000E+00  0.000000000E+00 -7.490052512E+01  7.490052512E+01  0.000000000E+00  0.00000E+00  9.000E+00
      25     1     1     2     0     0 -2.130855925E+02 -2.187913380E+01  5.312823564E+02  5.863191183E+02  1.250000000E+02  0.00000E+00  9.000E+00
      25     1     1     2     0     0  2.114578849E+02  8.918131547E+01  7.325368370E+02  7.777550782E+02  1.250000000E+02  0.00000E+00  9.000E+00
      21     1     1     2   512   501  1.627707625E+00 -6.730218167E+01  2.096456143E+01  7.051060860E+01  7.907449699E-07  0.00000E+00  9.000E+00
#rwgt            1           1   2.6572486780975804E-002           9      167016           0
</event>
<event>
      5   9999  3.79277E-02  1.88590E+01 -1.00000E+00  1.68502E-01
      21    -1     0     0   511   501  0.000000000E+00  0.000000000E+00  2.445377548E+02  2.445377548E+02  0.000000000E+00  0.00000E+00  9.000E+00
      21    -1     0     0   501   502  0.000000000E+00  0.000000000E+00 -2.488479203E+02  2.488479203E+02  0.000000000E+00  0.00000E+00  9.000E+00
      25     1     1     2     0     0  1.562100990E+02  5.613984226E+01 -1.303680076E+02  2.453040854E+02  1.250000000E+02  0.00000E+00  9.000E+00
      25     1     1     2     0     0 -1.374498920E+02 -5.806736558E+01  1.121444647E+02  2.246456604E+02  1.250000000E+02  0.00000E+00  9.000E+00
      21     1     1     2   511   502 -1.876020693E+01  1.927523321E+00  1.391337743E+01  2.343592929E+01  1.685873940E-07  0.00000E+00  9.000E+00
#rwgt            1           1   4.0914085856053044E-002           9      167196           0
</event>
<event>
      5   9999  3.79277E-02  3.48954E+01 -1.00000E+00  1.48616E-01
      21    -1     0     0   512   501  0.000000000E+00  0.000000000E+00  2.103888368E+02  2.103888368E+02  0.000000000E+00  0.00000E+00  9.000E+00
      21    -1     0     0   501   502  0.000000000E+00  0.000000000E+00 -3.448653231E+02  3.448653231E+02  0.000000000E+00  0.00000E+00  9.000E+00
      25     1     1     2     0     0 -1.455203892E+02 -1.614660411E+02 -1.094968205E+01  2.509827915E+02  1.250000000E+02  0.00000E+00  9.000E+00
      25     1     1     2     0     0  1.235005515E+02  1.343954110E+02 -1.438592919E+02  2.638844607E+02  1.250000000E+02  0.00000E+00  9.000E+00
      21     1     1     2   512   502  2.201983769E+01  2.707063012E+01  2.033248762E+01  4.038690778E+01  8.920806376E-07  0.00000E+00  9.000E+00
#rwgt            1           1   3.0958942177537072E-002           9      167370           0
</event>
<event>
      5   9999  3.79277E-02  1.57917E+02 -1.00000E+00  1.15515E-01
      21    -1     0     0   502   511  0.000000000E+00  0.000000000E+00  4.408738448E+02  4.408738448E+02  0.000000000E+00  0.00000E+00  9.000E+00
      21    -1     0     0   501   502  0.000000000E+00  0.000000000E+00 -1.628989643E+02  1.628989643E+02  0.000000000E+00  0.00000E+00  9.000E+00
      25     1     1     2     0     0  1.280671804E+02 -1.449456128E+01  1.556727259E+02  2.376347883E+02  1.250000000E+02  0.00000E+00  9.000E+00
      25     1     1     2     0     0  9.443446286E+00  9.213830115E+01 -1.576987043E+01  1.563724209E+02  1.250000000E+02  0.00000E+00  9.000E+00
      21     1     1     2   501   511 -1.375106267E+02 -7.764373988E+01  1.380720250E+02  2.097655999E+02  3.814697266E-06  0.00000E+00  9.000E+00
#rwgt            1           1   5.0797460171244750E-002           9      167535           0
</event>
<event>
      5   9999  3.79277E-02  1.75154E+01 -1.00000E+00  1.71267E-01
      21    -1     0     0   502   512  0.000000000E+00  0.000000000E+00  5.646011838E+02  5.646011838E+02  0.000000000E+00  0.00000E+00  9.000E+00
      21    -1     0     0   501   502  0.000000000E+00  0.000000000E+00 -6.954279683E+01  6.954279683E+01  0.000000000E+00  0.00000E+00  9.000E+00
      25     1     1     2     0     0  3.945177613E+01  2.516905576E+01  2.220507597E+01  1.353070191E+02  1.250000000E+02  0.00000E+00  9.000E+00
      25     1     1     2     0     0 -5.671875896E+01 -2.810866330E+01  3.974002799E+02  4.213776181E+02  1.250000000E+02  0.00000E+00  9.000E+00
      21     1     1     2   501   512  1.726698283E+01  2.939607541E+00  7.545303108E+01  7.745934345E+01  9.536743164E-07  0.00000E+00  9.000E+00
#rwgt            1           1   3.0336689334050853E-002           9      167588           0
</event>
<event>
      5   9999  3.79277E-02  4.06868E+00 -1.00000E+00  2.61740E-01
      21    -1     0     0   502   501  0.000000000E+00  0.000000000E+00  2.406802177E+03  2.406802177E+03  0.000000000E+00  0.00000E+00  9.000E+00
      21    -1     0     0   501   511  0.000000000E+00  0.000000000E+00 -1.583697598E+02  1.583697598E+02  0.000000000E+00  0.00000E+00  9.000E+00
      25     1     1     2     0     0  1.839489490E+02  1.900996552E+02  1.939991231E+03  1.961929171E+03  1.250000000E+02  0.00000E+00  9.000E+00
      25     1     1     2     0     0 -1.844537035E+02 -1.941369018E+02  4.078971171E+02  5.037036465E+02  1.250000000E+02  0.00000E+00  9.000E+00
      21     1     1     2   502   511  5.047545595E-01  4.037246613E+00 -9.945593087E+01  9.953911956E+01  2.697398305E-06  0.00000E+00  9.000E+00
#rwgt            1           1  0.10891812619378563                9      167786           0
</event>
<event>
      5   9999  3.79277E-02  3.25255E+01 -1.00000E+00  1.50641E-01
       1    -1     0     0   502     0  0.000000000E+00  0.000000000E+00  5.314648485E+02  5.314648485E+02  0.000000000E+00  0.00000E+00  9.000E+00
      21    -1     0     0   501   502  0.000000000E+00  0.000000000E+00 -8.012276130E+02  8.012276130E+02  0.000000000E+00  0.00000E+00  9.000E+00
      25     1     1     2     0     0  1.906320876E+02 -3.020103502E+01 -1.706166292E+02  2.863349953E+02  1.250000000E+02  0.00000E+00  9.000E+00
      25     1     1     2     0     0 -1.701477770E+02  5.546571847E+01 -5.513469940E+02  5.929883808E+02  1.250000000E+02  0.00000E+00  9.000E+00
       1     1     1     2   501     0 -2.048431063E+01 -2.526468345E+01  4.522008586E+02  4.533690855E+02  5.394796609E-06  0.00000E+00  9.000E+00
#rwgt            1           1   3.4595661087736269E-002           9      168389           0
</event>
<event>
      5   9999  3.79277E-02  5.67435E+01 -1.00000E+00  1.36011E-01
      21    -1     0     0   502   501  0.000000000E+00  0.000000000E+00  2.279652072E+03  2.279652072E+03  0.000000000E+00  0.00000E+00  9.000E+00
      21    -1     0     0   511   502  0.000000000E+00  0.000000000E+00 -2.647261449E+01  2.647261449E+01  0.000000000E+00  0.00000E+00  9.000E+00
      25     1     1     2     0     0  2.540877947E+01 -2.964501485E+01  1.873339693E+03  1.877911350E+03  1.250000000E+02  0.00000E+00  9.000E+00
      25     1     1     2     0     0 -5.484873148E+01 -1.886391367E+01  2.317474692E+02  2.696221802E+02  1.250000000E+02  0.00000E+00  9.000E+00
      21     1     1     2   511   501  2.943995201E+01  4.850892852E+01  1.480922950E+02  1.585911560E+02  1.907348633E-06  0.00000E+00  9.000E+00
#rwgt            1           1  0.17114306913794597                9      168709           0
</event>
<event>
      5   9999  3.79277E-02  4.83485E+01 -1.00000E+00  1.39913E-01
      21    -1     0     0   502   501  0.000000000E+00  0.000000000E+00  1.520764253E+02  1.520764253E+02  0.000000000E+00  0.00000E+00  9.000E+00
       1    -1     0     0   501     0  0.000000000E+00  0.000000000E+00 -1.504111422E+03  1.504111422E+03  0.000000000E+00  0.00000E+00  9.000E+00
      25     1     1     2     0     0 -2.688814694E+01 -1.509443189E+01  1.076199505E+02  1.678030634E+02  1.250000000E+02  0.00000E+00  9.000E+00
      25     1     1     2     0     0 -2.145038520E+01  1.411054716E+01 -2.796479485E+02  3.073877057E+02  1.250000000E+02  0.00000E+00  9.000E+00
       1     1     1     2   502     0  4.833853213E+01  9.838847299E-01 -1.180006998E+03  1.180997078E+03  1.525878906E-05  0.00000E+00  9.000E+00
#rwgt            1           1   3.3419840477443119E-002           9      168891           0
</event>
<event>
      5   9999  3.79277E-02  7.45446E+01 -1.00000E+00  1.29852E-01
      21    -1     0     0   511   501  0.000000000E+00  0.000000000E+00  8.847560899E+01  8.847560899E+01  0.000000000E+00  0.00000E+00  9.000E+00
      21    -1     0     0   501   502  0.000000000E+00  0.000000000E+00 -1.323386377E+03  1.323386377E+03  0.000000000E+00  0.00000E+00  9.000E+00
      25     1     1     2     0     0  1.020646696E+02  4.246741697E+01 -1.455385071E+02  2.214207202E+02  1.250000000E+02  0.00000E+00  9.000E+00
      25     1     1     2     0     0 -8.487714853E+01 -1.150035512E+02 -1.098995131E+03  1.115278102E+03  1.250000000E+02  0.00000E+00  9.000E+00
      21     1     1     2   511   502 -1.718752111E+01  7.253613422E+01  9.622869433E+00  7.516316429E+01  2.351174703E-06  0.00000E+00  9.000E+00
#rwgt            1           1   4.7659340412546998E-002           9      169036           0
</event>
<event>
      5   9999  3.79277E-02  3.48098E+01 -1.00000E+00  1.48686E-01
      21    -1     0     0   512   501  0.000000000E+00  0.000000000E+00  1.200727441E+02  1.200727441E+02  0.000000000E+00  0.00000E+00  9.000E+00
      21    -1     0     0   501   502  0.000000000E+00  0.000000000E+00 -4.103896906E+02  4.103896906E+02  0.000000000E+00  0.00000E+00  9.000E+00
      25     1     1     2     0     0 -7.255085986E+01  2.213366121E+01  3.319249521E+01  1.499342121E+02  1.250000000E+02  0.00000E+00  9.000E+00
      25     1     1     2     0     0  8.460146846E+01  1.052374619E+01 -3.064408327E+02  3.417588940E+02  1.250000000E+02  0.00000E+00  9.000E+00
      21     1     1     2   512   502 -1.205060860E+01 -3.265740740E+01 -1.706860901E+01  3.876932859E+01  5.840038640E-07  0.00000E+00  9.000E+00
#rwgt            1           1   3.6065419964280372E-002           9      169117           0
</event>
<event>
      5   9999  3.79277E-02  2.42122E+01 -1.00000E+00  1.59800E-01
      21    -1     0     0   502   501  0.000000000E+00  0.000000000E+00  4.105128125E+02  4.105128125E+02  0.000000000E+00  0.00000E+00  9.000E+00
      21    -1     0     0   501   511  0.000000000E+00  0.000000000E+00 -1.723688551E+02  1.723688551E+02  0.000000000E+00  0.00000E+00  9.000E+00
      25     1     1     2     0     0 -1.394003466E+02  1.483726477E+02  1.855464778E+02  3.024886686E+02  1.250000000E+02  0.00000E+00  9.000E+00
      25     1     1     2     0     0  1.338222170E+02 -1.719335199E+02  4.885690166E+01  2.558935674E+02  1.250000000E+02  0.00000E+00  9.000E+00
      21     1     1     2   502   511  5.578129591E+00  2.356087222E+01  3.740577988E+00  2.449943169E+01  4.150983178E-07  0.00000E+00  9.000E+00
#rwgt            1           1   2.6835039294790364E-002           9      169259           0
</event>
<event>
      5   9999  3.79277E-02  2.33223E+01 -1.00000E+00  1.61044E-01
      21    -1     0     0   502   501  0.000000000E+00  0.000000000E+00  2.453147994E+03  2.453147994E+03  0.000000000E+00  0.00000E+00  9.000E+00
      21    -1     0     0   512   502  0.000000000E+00  0.000000000E+00 -2.312492425E+01  2.312492425E+01  0.000000000E+00  0.00000E+00  9.000E+00
      25     1     1     2     0     0  1.084132985E+01 -1.035514910E+02  1.774675669E+03  1.782116488E+03  1.250000000E+02  0.00000E+00  9.000E+00
      25     1     1     2     0     0  1.031610265E+01  9.373865251E+01  6.520676887E+02  6.706046731E+02  1.250000000E+02  0.00000E+00  9.000E+00
      21     1     1     2   512   501 -2.115743250E+01  9.812838498E+00  3.279711661E+00  2.355175701E+01  1.567386841E-06  0.00000E+00  9.000E+00
#rwgt            1           1   7.5867214131754790E-002           9      169565           0
</event>
<event>
      5   9999  3.79277E-02  3.75894E+01 -1.00000E+00  1.46534E-01
       2    -1     0     0   502     0  0.000000000E+00  0.000000000E+00  3.248444153E+03  3.248444153E+03  0.000000000E+00  0.00000E+00  9.000E+00
      21    -1     0     0   501   502  0.000000000E+00  0.000000000E+00 -4.624367746E+01  4.624367746E+01  0.000000000E+00  0.00000E+00  9.000E+00
      25     1     1     2     0     0  1.771030006E+02 -1.044464500E+02  6.375902239E+02  6.814842826E+02  1.250000000E+02  0.00000E+00  9.000E+00
      25     1     1     2     0     0 -1.465961490E+02  1.264077419E+02  5.261141268E+02  5.743608818E+02  1.250000000E+02  0.00000E+00  9.000E+00
       2     1     1     2   501     0 -3.050685163E+01 -2.196129185E+01  2.038496125E+03  2.038842666E+03  0.000000000E+00  0.00000E+00  9.000E+00
#rwgt            1           1   3.5869157257523362E-002           9      169715           0
</event>
<event>
      5   9999  3.79277E-02  1.60071E+01 -1.00000E+00  1.74766E-01
      21    -1     0     0   511   501  0.000000000E+00  0.000000000E+00  4.132049223E+02  4.132049223E+02  0.000000000E+00  0.00000E+00  9.000E+00
      21    -1     0     0   501   502  0.000000000E+00  0.000000000E+00 -9.614918847E+01  9.614918847E+01  0.000000000E+00  0.00000E+00  9.000E+00
      25     1     1     2     0     0 -8.933884447E+01  1.097386359E+02  8.508070017E+01  2.070935124E+02  1.250000000E+02  0.00000E+00  9.000E+00
      25     1     1     2     0     0  7.738325221E+01 -9.909479779E+01  2.181545575E+02  2.811127134E+02  1.250000000E+02  0.00000E+00  9.000E+00
      21     1     1     2   511   502  1.195559226E+01 -1.064383813E+01  1.382047615E+01  2.114788494E+01  3.371747881E-07  0.00000E+00  9.000E+00
#rwgt            1           1   4.1849681350945335E-002           9      169841           0
</event>
<event>
      5   9999  3.79277E-02  4.16361E+01 -1.00000E+00  1.43769E-01
      21    -1     0     0   502   501  0.000000000E+00  0.000000000E+00  2.535142461E+03  2.535142461E+03  0.000000000E+00  0.00000E+00  9.000E+00
      21    -1     0     0   512   502  0.000000000E+00  0.000000000E+00 -3.413825233E+01  3.413825233E+01  0.000000000E+00  0.00000E+00  9.000E+00
      25     1     1     2     0     0 -9.060324987E+01  1.752758158E+01  1.801911530E+02  2.379285956E+02  1.250000000E+02  0.00000E+00  9.000E+00
      25     1     1     2     0     0  6.189345502E+01 -4.768233435E+01  2.166860150E+03  2.171868392E+03  1.250000000E+02  0.00000E+00  9.000E+00
      21     1     1     2   512   501  2.870979485E+01  3.015475277E+01  1.539529062E+02  1.594837257E+02  2.697398305E-06  0.00000E+00  9.000E+00
#rwgt            1           1  0.10267841961365858                9      170094           0
</event>
<event>
      5   9999  3.79277E-02  4.92313E+01 -1.00000E+00  1.39461E-01
      21    -1     0     0   502   511  0.000000000E+00  0.000000000E+00  9.232111581E+01  9.232111581E+01  0.000000000E+00  0.00000E+00  9.000E+00
      21    -1     0     0   501   502  0.000000000E+00  0.000000000E+00 -1.356184470E+03  1.356184470E+03  0.000000000E+00  0.00000E+00  9.000E+00
      25     1     1     2     0     0 -4.087874699E+01 -2.832532675E+02 -7.088669292E+02  7.746101012E+02  1.250000000E+02  0.00000E+00  9.000E+00
      25     1     1     2     0     0 -3.976584148E+00  3.035440554E+02 -5.136596289E+02  6.096113689E+02  1.250000000E+02  0.00000E+00  9.000E+00
      21     1     1     2   501   511  4.485533113E+01 -2.029078784E+01 -4.133679568E+01  6.428411530E+01  1.066240300E-06  0.00000E+00  9.000E+00
#rwgt            1           1   2.5054040153100036E-002           9      170234           0
</event>
<event>
      5   9999  3.79277E-02  3.51114E+01 -1.00000E+00  1.48441E-01
      21    -1     0     0   502   501  0.000000000E+00  0.000000000E+00  7.625377390E+02  7.625377390E+02  0.000000000E+00  0.00000E+00  9.000E+00
      21    -1     0     0   501   512  0.000000000E+00  0.000000000E+00 -8.251639878E+01  8.251639878E+01  0.000000000E+00  0.00000E+00  9.000E+00
      25     1     1     2     0     0  1.665288420E+02 -2.223463975E+01  1.374793568E+02  2.505031097E+02  1.250000000E+02  0.00000E+00  9.000E+00
      25     1     1     2     0     0 -1.379836026E+02  4.267918426E+01  5.169262382E+02  5.510886708E+02  1.250000000E+02  0.00000E+00  9.000E+00
      21     1     1     2   502   512 -2.854523943E+01 -2.044454451E+01  2.561574523E+01  4.346235725E+01  6.743495762E-07  0.00000E+00  9.000E+00
#rwgt            1           1   3.7101615881991998E-002           9      170446           0
</event>
<event>
      5   9999  3.79277E-02  5.95449E+01 -1.00000E+00  1.34880E-01
      21    -1     0     0   502   501  0.000000000E+00  0.000000000E+00  2.932071587E+01  2.932071587E+01  0.000000000E+00  0.00000E+00  9.000E+00
       2    -1     0     0   501     0  0.000000000E+00  0.000000000E+00 -2.294918638E+03  2.294918638E+03  0.000000000E+00  0.00000E+00  9.000E+00
      25     1     1     2     0     0 -4.574776731E+00  1.842655024E+02 -9.243979782E+02  9.508476882E+02  1.250000000E+02  0.00000E+00  9.000E+00
      25     1     1     2     0     0  3.810849254E+01 -1.350609261E+02 -5.761074663E+02  6.059855804E+02  1.250000000E+02  0.00000E+00  9.000E+00
       2     1     1     2   502     0 -3.353371581E+01 -4.920457635E+01 -7.650924772E+02  7.674060849E+02  1.078959322E-05  0.00000E+00  9.000E+00
#rwgt            1           1   3.7069449425891098E-002           9      170592           0
</event>
<event>
      5   9999  3.79277E-02  2.07532E+02 -1.00000E+00  1.11067E-01
      21    -1     0     0   502   501  0.000000000E+00  0.000000000E+00  8.997677676E+01  8.997677676E+01  0.000000000E+00  0.00000E+00  9.000E+00
       2    -1     0     0   501     0  0.000000000E+00  0.000000000E+00 -1.291106837E+03  1.291106837E+03  0.000000000E+00  0.00000E+00  9.000E+00
      25     1     1     2     0     0 -1.337061800E+01  1.727575435E+01 -6.979339686E+01  1.448217641E+02  1.250000000E+02  0.00000E+00  9.000E+00
      25     1     1     2     0     0 -7.933352609E+01 -2.029515581E+02 -8.520392883E+02  8.883012395E+02  1.250000000E+02  0.00000E+00  9.000E+00
       2     1     1     2   502     0  9.270414409E+01  1.856758038E+02 -2.792973748E+02  3.479606098E+02  3.814697266E-06  0.00000E+00  9.000E+00
#rwgt            2          13   7.0691273830435694E-005           9      170762           0
</event>
<event>
      5   9999  3.79277E-02  5.01267E+00 -1.00000E+00  2.38325E-01
      21    -1     0     0   511   501  0.000000000E+00  0.000000000E+00  1.005736412E+03  1.005736412E+03  0.000000000E+00  0.00000E+00  9.000E+00
      21    -1     0     0   501   502  0.000000000E+00  0.000000000E+00 -1.378687282E+02  1.378687282E+02  0.000000000E+00  0.00000E+00  9.000E+00
      25     1     1     2     0     0  1.294823806E+02 -1.743610835E+02  5.157852288E+02  5.734342827E+02  1.250000000E+02  0.00000E+00  9.000E+00
      25     1     1     2     0     0 -1.306367692E+02  1.694831485E+02  3.180488713E+01  2.498540653E+02  1.250000000E+02  0.00000E+00  9.000E+00
      21     1     1     2   511   502  1.154388526E+00  4.877934979E+00  3.202775676E+02  3.203167919E+02  0.000000000E+00  0.00000E+00  9.000E+00
#rwgt            1           1   4.3634845264422149E-002           9      170946           0
</event>
<event>
      5   9999 -3.79277E-02  6.33061E+01 -1.00000E+00  1.33470E-01
      21    -1     0     0   502   501  0.000000000E+00  0.000000000E+00  5.213560193E+02  5.213560193E+02  0.000000000E+00  0.00000E+00  9.000E+00
      21    -1     0     0   501   512  0.000000000E+00  0.000000000E+00 -3.808082652E+02  3.808082652E+02  0.000000000E+00  0.00000E+00  9.000E+00
      25     1     1     2     0     0 -2.574372701E+02 -9.874942909E+01  1.276778986E+02  3.285605630E+02  1.250000000E+02  0.00000E+00  9.000E+00
      25     1     1     2     0     0  2.032055359E+02  1.314079054E+02  2.243373632E+02  3.528636847E+02  1.250000000E+02  0.00000E+00  9.000E+00
      21     1     1     2   502   512  5.423173419E+01 -3.265847629E+01 -2.114675076E+02  2.207400368E+02  0.000000000E+00  0.00000E+00  9.000E+00
#rwgt            1           1  -9.8939848168884778E-002           9      171421           0
</event>
<event>
      5   9999  3.79277E-02  2.24462E+01 -1.00000E+00  1.62338E-01
      21    -1     0     0   502   501  0.000000000E+00  0.000000000E+00  5.227319424E+01  5.227319424E+01  0.000000000E+00  0.00000E+00  9.000E+00
      21    -1     0     0   511   502  0.000000000E+00  0.000000000E+00 -1.166880928E+03  1.166880928E+03  0.000000000E+00  0.00000E+00  9.000E+00
      25     1     1     2     0     0  9.467717751E+00 -6.777512597E+01 -9.003817045E+01  1.685674272E+02  1.250000000E+02  0.00000E+00  9.000E+00
      25     1     1     2     0     0 -2.269953261E+01  8.590666689E+01 -4.469266702E+02  4.725078547E+02  1.250000000E+02  0.00000E+00  9.000E+00
      21     1     1     2   511   501  1.323181486E+01 -1.813154092E+01 -5.776428929E+02  5.780788402E+02  7.629394531E-06  0.00000E+00  9.000E+00
#rwgt            1           1   3.8520675576044092E-002           9      171549           0
</event>
<event>
      5   9999  3.79277E-02  3.68683E+01 -1.00000E+00  1.47071E-01
       2    -1     0     0   502     0  0.000000000E+00  0.000000000E+00  2.630467293E+03  2.630467293E+03  0.000000000E+00  0.00000E+00  9.000E+00
      21    -1     0     0   501   502  0.000000000E+00  0.000000000E+00 -6.458772772E+01  6.458772772E+01  0.000000000E+00  0.00000E+00  9.000E+00
      25     1     1     2     0     0  1.636673650E+02  6.967629467E+01  9.413516087E+02  9.661312766E+02  1.250000000E+02  0.00000E+00  9.000E+00
      25     1     1     2     0     0 -1.490977064E+02 -1.035436668E+02  1.817470451E+02  2.856718492E+02  1.250000000E+02  0.00000E+00  9.000E+00
       2     1     1     2   501     0 -1.456965865E+01  3.386737218E+01  1.442780911E+03  1.443251894E+03  1.525878906E-05  0.00000E+00  9.000E+00
#rwgt            1           1   2.8130747439915154E-002           9      171682           0
</event>
<event>
      5   9999  3.79277E-02  1.07225E+01 -1.00000E+00  1.92319E-01
      21    -1     0     0   502   501  0.000000000E+00  0.000000000E+00  7.697061866E+02  7.697061866E+02  0.000000000E+00  0.00000E+00  9.000E+00
      21    -1     0     0   511   502  0.000000000E+00  0.000000000E+00 -4.077894205E+01  4.077894205E+01  0.000000000E+00  0.00000E+00  9.000E+00
      25     1     1     2     0     0 -1.012640853E+02  2.131180665E+01  2.332247907E+02  2.841256959E+02  1.250000000E+02  0.00000E+00  9.000E+00
      25     1     1     2     0     0  9.164734614E+01 -2.605421825E+01  4.891788956E+02  5.138083789E+02  1.250000000E+02  0.00000E+00  9.000E+00
      21     1     1     2   511   501  9.616739153E+00  4.742411604E+00  6.523558252E+00  1.255105382E+01  3.264680848E-07  0.00000E+00  9.000E+00
#rwgt            1           1   4.6595345484330634E-002           9      172074           0
</event>
<event>
      5   9999  3.79277E-02  4.49124E+01 -1.00000E+00  1.41788E-01
      21    -1     0     0   502   501  0.000000000E+00  0.000000000E+00  1.104118098E+03  1.104118098E+03  0.000000000E+00  0.00000E+00  9.000E+00
      21    -1     0     0   501   512  0.000000000E+00  0.000000000E+00 -7.647489874E+01  7.647489874E+01  0.000000000E+00  0.00000E+00  9.000E+00
      25     1     1     2     0     0 -2.388429326E+02  2.052082318E+00  5.050200641E+02  5.724687089E+02  1.250000000E+02  0.00000E+00  9.000E+00
      25     1     1     2     0     0  2.296887855E+02 -4.602164636E+01  4.586030180E+02  5.299213699E+02  1.250000000E+02  0.00000E+00  9.000E+00
      21     1     1     2   502   512  9.154147092E+00  4.396956405E+01  6.402011680E+01  7.820291763E+01  1.348699152E-06  0.00000E+00  9.000E+00
#rwgt            2          11   3.5660792141034613E-003           9      172289           0
</event>
<event>
      5   9999  3.79277E-02  6.49586E+01 -1.00000E+00  1.32886E-01
       2    -1     0     0   502     0  0.000000000E+00  0.000000000E+00  2.152388329E+03  2.152388329E+03  0.000000000E+00  0.00000E+00  9.000E+00
      21    -1     0     0   501   502  0.000000000E+00  0.000000000E+00 -1.463254764E+02  1.463254764E+02  0.000000000E+00  0.00000E+00  9.000E+00
      25     1     1     2     0     0 -4.857073699E+01 -1.876796849E+02 -6.654597558E+00  2.307640880E+02  1.250000000E+02  0.00000E+00  9.000E+00
      25     1     1     2     0     0  2.928677879E+01  1.256494530E+02  2.716749979E+02  3.256958779E+02  1.250000000E+02  0.00000E+00  9.000E+00
       2     1     1     2   501     0  1.928395819E+01  6.203023197E+01  1.741042453E+03  1.742253840E+03  0.000000000E+00  0.00000E+00  9.000E+00
#rwgt            1           1   3.7002980468594120E-002           9      172369           0
</event>
<event>
      5   9999  3.79277E-02  5.71045E+01 -1.00000E+00  1.35861E-01
      21    -1     0     0   511   501  0.000000000E+00  0.000000000E+00  6.796181969E+02  6.796181969E+02  0.000000000E+00  0.00000E+00  9.000E+00
      21    -1     0     0   501   502  0.000000000E+00  0.000000000E+00 -1.052369136E+02  1.052369136E+02  0.000000000E+00  0.00000E+00  9.000E+00
      25     1     1     2     0     0  3.123903541E+01  1.255770503E+02  2.112457510E+02  2.774801619E+02  1.250000000E+02  0.00000E+00  9.000E+00
      25     1     1     2     0     0 -7.729993411E+01 -1.593308853E+02  1.010860665E+02  2.391756753E+02  1.250000000E+02  0.00000E+00  9.000E+00
      21     1     1     2   511   502  4.606089870E+01  3.375383491E+01  2.620494657E+02  2.681992734E+02  5.394796609E-06  0.00000E+00  9.000E+00
#rwgt            1           1   4.3936075276942897E-002           9      172561           0
</event>
<event>
      5   9999  3.79277E-02  4.47205E+01 -1.00000E+00  1.41898E-01
      21    -1     0     0   502   501  0.000000000E+00  0.000000000E+00  3.779899836E+02  3.779899836E+02  0.000000000E+00  0.00000E+00  9.000E+00
      21    -1     0     0   501   512  0.000000000E+00  0.000000000E+00 -2.846335146E+02  2.846335146E+02  0.000000000E+00  0.00000E+00  9.000E+00
      25     1     1     2     0     0  1.421659402E+02  2.533999449E+01 -7.630782545E+01  2.056724437E+02  1.250000000E+02  0.00000E+00  9.000E+00
      25     1     1     2     0     0 -1.710245818E+02  8.822871241E+00  2.722341302E+02  3.450560422E+02  1.250000000E+02  0.00000E+00  9.000E+00
      21     1     1     2   502   512  2.885864154E+01 -3.416286573E+01 -1.025698357E+02  1.118950123E+02  1.348699152E-06  0.00000E+00  9.000E+00
#rwgt            1           1   3.7499332981118363E-002           9      172625           0
</event>
<event>
      5   9999  3.79277E-02  1.68867E+01 -1.00000E+00  1.72669E-01
      21    -1     0     0   511   501  0.000000000E+00  0.000000000E+00  1.697713263E+02  1.697713263E+02  0.000000000E+00  0.00000E+00  9.000E+00
      21    -1     0     0   501   502  0.000000000E+00  0.000000000E+00 -7.500899795E+02  7.500899795E+02  0.000000000E+00  0.00000E+00  9.000E+00
      25     1     1     2     0     0  5.098943208E+00 -7.182891314E+01 -5.356159666E+02  5.547024929E+02  1.250000000E+02  0.00000E+00  9.000E+00
      25     1     1     2     0     0  6.826881214E+00  8.378453723E+01 -1.766378580E+02  2.321473408E+02  1.250000000E+02  0.00000E+00  9.000E+00
      21     1     1     2   511   502 -1.192582442E+01 -1.195562409E+01  1.319351714E+02  1.330114720E+02  4.672030912E-06  0.00000E+00  9.000E+00
#rwgt            1           1   3.3564445755031619E-002           9      172815           0
</event>
<event>
      5   9999  3.79277E-02  4.85151E+01 -1.00000E+00  1.39827E-01
       3    -1     0     0   502     0  0.000000000E+00  0.000000000E+00  1.418974292E+02  1.418974292E+02  0.000000000E+00  0.00000E+00  9.000E+00
      21    -1     0     0   501   502  0.000000000E+00  0.000000000E+00 -1.771179412E+03  1.771179412E+03  0.000000000E+00  0.00000E+00  9.000E+00
      25     1     1     2     0     0  1.065018959E+02 -2.123985781E+02 -1.316470412E+03  1.343568069E+03  1.250000000E+02  0.00000E+00  9.000E+00
      25     1     1     2     0     0 -1.424081081E+02  1.797725264E+02 -3.953072041E+02  4.738048291E+02  1.250000000E+02  0.00000E+00  9.000E+00
       3     1     1     2   501     0  3.590621222E+01  3.262605167E+01  8.249563312E+01  9.570394353E+01  6.253660702E-06  0.00000E+00  9.000E+00
#rwgt            1           1   3.7844283206243237E-002           9      172956           0
</event>
<event>
      5   9999  3.79277E-02  8.37101E+01 -1.00000E+00  1.27404E-01
      21    -1     0     0   511   501  0.000000000E+00  0.000000000E+00  1.317303518E+03  1.317303518E+03  0.000000000E+00  0.00000E+00  9.000E+00
      21    -1     0     0   501   502  0.000000000E+00  0.000000000E+00 -3.964804542E+02  3.964804542E+02  0.000000000E+00  0.00000E+00  9.000E+00
      25     1     1     2     0     0 -8.162567751E+01  4.196090588E+01 -2.736762539E+02  3.145586763E+02  1.250000000E+02  0.00000E+00  9.000E+00
      25     1     1     2     0     0  1.471103489E+01 -9.225812072E+01 -4.063454327E+01  1.612579967E+02  1.250000000E+02  0.00000E+00  9.000E+00
      21     1     1     2   511   502  6.691464262E+01  5.029721484E+01  1.235133861E+03  1.237967299E+03  1.525878906E-05  0.00000E+00  9.000E+00
#rwgt            1           1   5.1743897504951356E-002           9      173068           0
</event>
<event>
      5   9999  3.79277E-02  2.88814E+01 -1.00000E+00  1.54195E-01
      21    -1     0     0   502   501  0.000000000E+00  0.000000000E+00  6.574779535E+02  6.574779535E+02  0.000000000E+00  0.00000E+00  9.000E+00
      21    -1     0     0   512   502  0.000000000E+00  0.000000000E+00 -3.591860245E+01  3.591860245E+01  0.000000000E+00  0.00000E+00  9.000E+00
      25     1     1     2     0     0  4.611710793E+01  3.081321664E+01  2.100722132E+02  2.506622762E+02  1.250000000E+02  0.00000E+00  9.000E+00
      25     1     1     2     0     0 -4.659166772E+01 -1.935728536E+00  3.560476955E+02  3.802229504E+02  1.250000000E+02  0.00000E+00  9.000E+00
      21     1     1     2   512   501  4.745597855E-01 -2.887748810E+01  5.543944235E+01  6.251132932E+01  9.536743164E-07  0.00000E+00  9.000E+00
#rwgt            1           1   3.3173221254346762E-002           9      173171           0
</event>
<event>
      5   9999  3.79277E-02  2.92674E+01 -1.00000E+00  1.53789E-01
      21    -1     0     0   511   501  0.000000000E+00  0.000000000E+00  2.931168786E+02  2.931168786E+02  0.000000000E+00  0.00000E+00  9.000E+00
      21    -1     0     0   501   502  0.000000000E+00  0.000000000E+00 -2.489605865E+02  2.489605865E+02  0.000000000E+00  0.00000E+00  9.000E+00
      25     1     1     2     0     0 -7.009686607E-01 -1.958090564E+02  5.359438406E+01  2.384093873E+02  1.250000000E+02  0.00000E+00  9.000E+00
      25     1     1     2     0     0 -5.416564919E+00  2.244300056E+02 -4.147459345E+01  2.602754474E+02  1.250000000E+02  0.00000E+00  9.000E+00
      21     1     1     2   511   502  6.117533580E+00 -2.862094918E+01  3.203650147E+01  4.339263042E+01  6.743495762E-07  0.00000E+00  9.000E+00
#rwgt            1           1  0.15034316612428722                9      173329           0
</event>
<event>
      5   9999  3.79277E-02  2.78237E+01 -1.00000E+00  1.55347E-01
      21    -1     0     0   512   501  0.000000000E+00  0.000000000E+00  7.581434588E+01  7.581434588E+01  0.000000000E+00  0.00000E+00  9.000E+00
      21    -1     0     0   501   502  0.000000000E+00  0.000000000E+00 -7.909126190E+02  7.909126190E+02  0.000000000E+00  0.00000E+00  9.000E+00
      25     1     1     2     0     0  1.423858422E+02  3.026274082E+01 -6.001801339E+02  6.301037650E+02  1.250000000E+02  0.00000E+00  9.000E+00
      25     1     1     2     0     0 -1.256284001E+02 -8.051393645E+00 -8.849263843E+01  1.982505155E+02  1.250000000E+02  0.00000E+00  9.000E+00
      21     1     1     2   512   502 -1.675744212E+01 -2.221134717E+01 -2.642550075E+01  3.837268428E+01  3.371747881E-07  0.00000E+00  9.000E+00
#rwgt            1           1   4.3461811862987122E-002           9      173472           0
</event>
<event>
      5   9999  3.79277E-02  3.76400E+01 -1.00000E+00  1.46497E-01
      21    -1     0     0   502   511  0.000000000E+00  0.000000000E+00  9.567184150E+01  9.567184150E+01  0.000000000E+00  0.00000E+00  9.000E+00
      21    -1     0     0   501   502  0.000000000E+00  0.000000000E+00 -5.765484108E+02  5.765484108E+02  0.000000000E+00  0.00000E+00  9.000E+00
      25     1     1     2     0     0 -1.671591505E+02 -5.485594671E+01 -3.247376606E+02  3.899114062E+02  1.250000000E+02  0.00000E+00  9.000E+00
      25     1     1     2     0     0  1.333613186E+02  7.142319636E+01 -1.414317617E+02  2.418976178E+02  1.250000000E+02  0.00000E+00  9.000E+00
      21     1     1     2   501   511  3.379783190E+01 -1.656724965E+01 -1.470714707E+01  4.041122835E+01  6.951036328E-07  0.00000E+00  9.000E+00
#rwgt            1           1  0.18774213832942269                9      173588           0
</event>
<event>
      5   9999  3.79277E-02  1.80667E+02 -1.00000E+00  1.13279E-01
      21    -1     0     0   512   501  0.000000000E+00  0.000000000E+00  3.039996524E+02  3.039996524E+02  0.000000000E+00  0.00000E+00  9.000E+00
      21    -1     0     0   501   502  0.000000000E+00  0.000000000E+00 -5.066218379E+02  5.066218379E+02  0.000000000E+00  0.00000E+00  9.000E+00
      25     1     1     2     0     0  1.855380791E+02  2.943874943E+02 -2.673938675E+01  3.707133264E+02  1.250000000E+02  0.00000E+00  9.000E+00
      25     1     1     2     0     0 -5.667251260E+01 -1.677605199E+02 -1.327231537E+02  2.541570405E+02  1.250000000E+02  0.00000E+00  9.000E+00
      21     1     1     2   512   502 -1.288655665E+02 -1.266269744E+02 -4.315964508E+01  1.857511234E+02  3.198720900E-06  0.00000E+00  9.000E+00
#rwgt            2          11   2.6248136642864177E-003           9      173766           0
</event>
<event>
      5   9999  3.79277E-02  6.53881E+01 -1.00000E+00  1.32737E-01
      21    -1     0     0   502   501  0.000000000E+00  0.000000000E+00  1.326917894E+02  1.326917894E+02  0.000000000E+00  0.00000E+00  9.000E+00
      21    -1     0     0   511   502  0.000000000E+00  0.000000000E+00 -4.252900033E+02  4.252900033E+02  0.000000000E+00  0.00000E+00  9.000E+00
      25     1     1     2     0     0 -1.056557915E+02 -6.272694286E+01 -2.538874529E+01  1.771084527E+02  1.250000000E+02  0.00000E+00  9.000E+00
      25     1     1     2     0     0  9.599221391E+01  1.273970427E+02 -1.745446310E+02  2.674609127E+02  1.250000000E+02  0.00000E+00  9.000E+00
      21     1     1     2   511   501  9.663577558E+00 -6.467009980E+01 -9.266483763E+01  1.134124273E+02  0.000000000E+00  0.00000E+00  9.000E+00
#rwgt            1           1   3.5434327350345914E-002           9      173801           0
</event>
<event>
      5   9999  3.79277E-02  4.19355E+01 -1.00000E+00  1.43579E-01
      21    -1     0     0   502   512  0.000000000E+00  0.000000000E+00  3.020491521E+02  3.020491521E+02  0.000000000E+00  0.00000E+00  9.000E+00
      21    -1     0     0   501   502  0.000000000E+00  0.000000000E+00 -3.669573275E+02  3.669573275E+02  0.000000000E+00  0.00000E+00  9.000E+00
      25     1     1     2     0     0  2.904727757E+02  6.084916896E+01 -3.769284459E+01  3.242264722E+02  1.250000000E+02  0.00000E+00  9.000E+00
      25     1     1     2     0     0 -2.586740109E+02 -8.818831487E+01 -3.346585570E+01  3.023811937E+02  1.250000000E+02  0.00000E+00  9.000E+00
      21     1     1     2   501   512 -3.179876479E+01  2.733914591E+01  6.250524876E+00  4.239881369E+01  5.591411304E-07  0.00000E+00  9.000E+00
#rwgt            1           1   4.7197510551897207E-002           9      173985           0
</event>
<event>
      5   9999  3.79277E-02  8.79171E+01 -1.00000E+00  1.26397E-01
      21    -1     0     0   502   501  0.000000000E+00  0.000000000E+00  9.246473133E+01  9.246473133E+01  0.000000000E+00  0.00000E+00  9.000E+00
      21    -1     0     0   511   502  0.000000000E+00  0.000000000E+00 -4.759594270E+02  4.759594270E+02  0.000000000E+00  0.00000E+00  9.000E+00
      25     1     1     2     0     0 -3.937179806E+01 -7.128688822E+01 -2.674812221E+02  3.062730205E+02  1.250000000E+02  0.00000E+00  9.000E+00
      25     1     1     2     0     0  1.439884801E+01 -1.300880216E+01 -1.367508901E+01  1.272342871E+02  1.250000000E+02  0.00000E+00  9.000E+00
      21     1     1     2   511   501  2.497295006E+01  8.429569038E+01 -1.023383845E+02  1.349168507E+02  1.907348633E-06  0.00000E+00  9.000E+00
#rwgt            2          11   2.1889416719789024E-003           9      174133           0
</event>
<event>
      5   9999  3.79277E-02  3.78637E+01 -1.00000E+00  1.46334E-01
      21    -1     0     0   512   501  0.000000000E+00  0.000000000E+00  1.799856583E+02  1.799856583E+02  0.000000000E+00  0.00000E+00  9.000E+00
      21    -1     0     0   501   502  0.000000000E+00  0.000000000E+00 -1.458715174E+03  1.458715174E+03  0.000000000E+00  0.00000E+00  9.000E+00
      25     1     1     2     0     0 -4.308772300E+01 -2.980322077E+02 -2.842928407E+02  4.325819784E+02  1.250000000E+02  0.00000E+00  9.000E+00
      25     1     1     2     0     0  5.704268185E+00  2.920208661E+02 -1.072925709E+03  1.118974219E+03  1.250000000E+02  0.00000E+00  9.000E+00
      21     1     1     2   512   502  3.738345482E+01  6.011341658E+00  7.848903424E+01  8.714463506E+01  1.907348633E-06  0.00000E+00  9.000E+00
#rwgt            1           1   3.4851761716604972E-002           9      174153           0
</event>
<event>
      5   9999  3.79277E-02  3.33807E+01 -1.00000E+00  1.49887E-01
      21    -1     0     0   502   501  0.000000000E+00  0.000000000E+00  9.883050923E+02  9.883050923E+02  0.000000000E+00  0.00000E+00  9.000E+00
      21    -1     0     0   511   502  0.000000000E+00  0.000000000E+00 -8.215830698E+01  8.215830698E+01  0.000000000E+00  0.00000E+00  9.000E+00
      25     1     1     2     0     0  1.385409979E+02  1.769152431E+02  5.074612833E+02  5.688888867E+02  1.250000000E+02  0.00000E+00  9.000E+00
      25     1     1     2     0     0 -1.626125321E+02 -1.537887788E+02  3.906272484E+02  4.672349209E+02  1.250000000E+02  0.00000E+00  9.000E+00
      21     1     1     2   511   501  2.407153423E+01 -2.312646425E+01  8.058253573E+00  3.433959172E+01  6.419616708E-07  0.00000E+00  9.000E+00
#rwgt            1           1   3.4988707980143426E-002           9      174278           0
</event>
<event>
      5   9999  3.79277E-02  3.27790E+01 -1.00000E+00  1.50415E-01
      21    -1     0     0   502   501  0.000000000E+00  0.000000000E+00  8.343188284E+02  8.343188284E+02  0.000000000E+00  0.00000E+00  9.000E+00
      21    -1     0     0   501   512  0.000000000E+00  0.000000000E+00 -6.373755557E+01  6.373755557E+01  0.000000000E+00  0.00000E+00  9.000E+00
      25     1     1     2     0     0  8.357884412E+00  1.647283550E+02  3.680131005E+02  4.222131302E+02  1.250000000E+02  0.00000E+00  9.000E+00
      25     1     1     2     0     0 -3.648636599E+01 -1.478983249E+02  3.961335886E+02  4.424386844E+02  1.250000000E+02  0.00000E+00  9.000E+00
      21     1     1     2   502   512  2.812848158E+01 -1.683003007E+01  6.434583728E+00  3.340456939E+01  1.008006008E-06  0.00000E+00  9.000E+00
#rwgt            1           1   3.8786333602480599E-002           9      174388           0
</event>
<event>
      5   9999  3.79277E-02  1.28063E+01 -1.00000E+00  1.84107E-01
      21    -1     0     0   502   501  0.000000000E+00  0.000000000E+00  6.266391977E+02  6.266391977E+02  0.000000000E+00  0.00000E+00  9.000E+00
      21    -1     0     0   501   511  0.000000000E+00  0.000000000E+00 -2.474681722E+02  2.474681722E+02  0.000000000E+00  0.00000E+00  9.000E+00
      25     1     1     2     0     0  7.538321111E+01 -8.057485141E+01  5.560488856E+02  5.805086548E+02  1.250000000E+02  0.00000E+00  9.000E+00
      25     1     1     2     0     0 -6.328727587E+01  8.478084959E+01 -5.754175452E+01  1.735774330E+02  1.250000000E+02  0.00000E+00  9.000E+00
      21     1     1     2   502   511 -1.209593524E+01 -4.205998178E+00 -1.193361055E+02  1.200212821E+02  2.336015456E-06  0.00000E+00  9.000E+00
#rwgt            1           1   4.3361151505339757E-002           9      174565           0
</event>
<event>
      5   9999 -3.79277E-02  2.08872E+01 -1.00000E+00  1.64829E-01
      21    -1     0     0   502   501  0.000000000E+00  0.000000000E+00  9.841937750E+02  9.841937750E+02  0.000000000E+00  0.00000E+00  9.000E+00
      21    -1     0     0   501   512  0.000000000E+00  0.000000000E+00 -1.180577313E+02  1.180577313E+02  0.000000000E+00  0.00000E+00  9.000E+00
      25     1     1     2     0     0  1.900636985E+02  6.700156008E+01  2.581330383E+02  3.505297192E+02  1.250000000E+02  0.00000E+00  9.000E+00
      25     1     1     2     0     0 -1.955880639E+02 -8.714498636E+01  6.549653811E+02  7.003239178E+02  1.250000000E+02  0.00000E+00  9.000E+00
      21     1     1     2   502   512  5.524365353E+00  2.014342628E+01 -4.696237580E+01  5.139786937E+01  1.651812370E-06  0.00000E+00  9.000E+00
#rwgt            1           1  -2.2352164729458574E-002           9      174825           0
</event>
<event>
      5   9999  3.79277E-02  1.26772E+02 -1.00000E+00  1.19365E-01
      21    -1     0     0   502   501  0.000000000E+00  0.000000000E+00  4.981562143E+02  4.981562143E+02  0.000000000E+00  0.00000E+00  9.000E+00
      21    -1     0     0   501   511  0.000000000E+00  0.000000000E+00 -6.650773723E+02  6.650773723E+02  0.000000000E+00  0.00000E+00  9.000E+00
      25     1     1     2     0     0 -9.887512432E+01 -1.832963936E+02 -7.309596181E+00  2.430067660E+02  1.250000000E+02  0.00000E+00  9.000E+00
      25     1     1     2     0     0  2.096200187E+02  2.449953545E+02  2.910999484E+02  4.520259460E+02  1.250000000E+02  0.00000E+00  9.000E+00
      21     1     1     2   502   511 -1.107448943E+02 -6.169896082E+01 -4.507115102E+02  4.682008745E+02  5.394796609E-06  0.00000E+00  9.000E+00
#rwgt            1           1   2.9084906390886369E-002           9      175067           0
</event>
<event>
      5   9999  3.79277E-02  8.00957E+00 -1.00000E+00  2.07603E-01
      21    -1     0     0   512   501  0.000000000E+00  0.000000000E+00  2.370211474E+02  2.370211474E+02  0.000000000E+00  0.00000E+00  9.000E+00
      21    -1     0     0   501   502  0.000000000E+00  0.000000000E+00 -2.536473642E+02  2.536473642E+02  0.000000000E+00  0.00000E+00  9.000E+00
      25     1     1     2     0     0 -6.677113477E+01 -1.197543726E+02 -1.420962436E+01  1.860817230E+02  1.250000000E+02  0.00000E+00  9.000E+00
      25     1     1     2     0     0  6.077955831E+01  1.144388989E+02 -1.004889602E+02  2.061878935E+02  1.250000000E+02  0.00000E+00  9.000E+00
      21     1     1     2   512   502  5.991576463E+00  5.315473731E+00  9.807236776E+01  9.839889516E+01  0.000000000E+00  0.00000E+00  9.000E+00
#rwgt            1           1   4.0524093782978846E-002           9      175156           0
</event>
<event>
      5   9999  3.79277E-02  5.41593E+01 -1.00000E+00  1.37124E-01
      21    -1     0     0   502   501  0.000000000E+00  0.000000000E+00  6.965827829E+02  6.965827829E+02  0.000000000E+00  0.00000E+00  9.000E+00
      21    -1     0     0   511   502  0.000000000E+00  0.000000000E+00 -5.303318260E+02  5.303318260E+02  0.000000000E+00  0.00000E+00  9.000E+00
      25     1     1     2     0     0  1.965274330E+02 -3.632301910E+02  4.749658800E+01  4.340969125E+02  1.250000000E+02  0.00000E+00  9.000E+00
      25     1     1     2     0     0 -2.505625412E+02  3.668957474E+02  3.347375515E+02  5.701476168E+02  1.250000000E+02  0.00000E+00  9.000E+00
      21     1     1     2   511   501  5.403510822E+01 -3.665556453E+00 -2.159831825E+02  2.226700796E+02  0.000000000E+00  0.00000E+00  9.000E+00
#rwgt            1           1   9.4080100619680529E-002           9      175428           0
</event>
<event>
      5   9999  3.79277E-02  5.88130E+00 -1.00000E+00  2.26828E-01
      21    -1     0     0   502   512  0.000000000E+00  0.000000000E+00  2.160159512E+02  2.160159512E+02  0.000000000E+00  0.00000E+00  9.000E+00
      21    -1     0     0   501   502  0.000000000E+00  0.000000000E+00 -9.003744368E+02  9.003744368E+02  0.000000000E+00  0.00000E+00  9.000E+00
      25     1     1     2     0     0 -1.644483259E+02  1.439197204E+02 -4.742699710E+02  5.369479893E+02  1.250000000E+02  0.00000E+00  9.000E+00
      25     1     1     2     0     0  1.697947000E+02 -1.463704228E+02 -3.529778850E+02  4.364320430E+02  1.250000000E+02  0.00000E+00  9.000E+00
      21     1     1     2   501   512 -5.346374074E+00  2.450702459E+00  1.428893704E+02  1.430103557E+02  1.907348633E-06  0.00000E+00  9.000E+00
#rwgt            1           1  0.19676540904808085                9      175592           0
</event>
<event>
      5   9999  3.79277E-02  1.10804E+02 -1.00000E+00  1.21857E-01
      21    -1     0     0   502   501  0.000000000E+00  0.000000000E+00  5.273871398E+01  5.273871398E+01  0.000000000E+00  0.00000E+00  9.000E+00
      21    -1     0     0   501   511  0.000000000E+00  0.000000000E+00 -2.116691854E+03  2.116691854E+03  0.000000000E+00  0.00000E+00  9.000E+00
      25     1     1     2     0     0  1.111841172E+02 -1.490207786E+02 -1.256443199E+03  1.276261577E+03  1.250000000E+02  0.00000E+00  9.000E+00
      25     1     1     2     0     0 -1.724680724E+02  5.670695150E+01 -2.918314387E+02  3.657205258E+02  1.250000000E+02  0.00000E+00  9.000E+00
      21     1     1     2   502   511  6.128395519E+01  9.231382709E+01 -5.156785013E+02  5.274484644E+02  1.078959322E-05  0.00000E+00  9.000E+00
#rwgt            1           1   4.7320137824548796E-002           9      175934           0
</event>
<event>
      5   9999  3.79277E-02  7.02165E+01 -1.00000E+00  1.31153E-01
      21    -1     0     0   502   501  0.000000000E+00  0.000000000E+00  3.724665894E+02  3.724665894E+02  0.000000000E+00  0.00000E+00  9.000E+00
      21    -1     0     0   512   502  0.000000000E+00  0.000000000E+00 -1.647765321E+02  1.647765321E+02  0.000000000E+00  0.00000E+00  9.000E+00
      25     1     1     2     0     0  1.707948390E+02 -6.712304793E+01  1.861453623E+02  2.897438119E+02  1.250000000E+02  0.00000E+00  9.000E+00
      25     1     1     2     0     0 -1.141602669E+02  2.561538982E+01  3.800364658E+01  1.753795652E+02  1.250000000E+02  0.00000E+00  9.000E+00
      21     1     1     2   512   501 -5.663457218E+01  4.150765812E+01 -1.645895163E+01  7.211974443E+01  1.327458468E-06  0.00000E+00  9.000E+00
#rwgt            1           1   3.0482507964920181E-002           9      176003           0
</event>
<event>
      5   9999  3.79277E-02  6.34011E+01 -1.00000E+00  1.33436E-01
      21    -1     0     0   502   501  0.000000000E+00  0.000000000E+00  1.412448298E+02  1.412448298E+02  0.000000000E+00  0.00000E+00  9.000E+00
      21    -1     0     0   511   502  0.000000000E+00  0.000000000E+00 -8.171302393E+02  8.171302393E+02  0.000000000E+00  0.00000E+00  9.000E+00
      25     1     1     2     0     0 -2.912394091E+02 -5.122391639E+01 -2.964799897E+02  4.370007635E+02  1.250000000E+02  0.00000E+00  9.000E+00
      25     1     1     2     0     0  2.378556894E+02  1.702044586E+01 -2.130192161E+02  3.433179444E+02  1.250000000E+02  0.00000E+00  9.000E+00
      21     1     1     2   511   501  5.338371968E+01  3.420347052E+01 -1.663862038E+02  1.780563611E+02  0.000000000E+00  0.00000E+00  9.000E+00
#rwgt            2          11   1.9723326355232489E-003           9      176127           0
</event>
<event>
      5   9999  3.79277E-02  1.58139E+01 -1.00000E+00  1.75249E-01
      21    -1     0     0   502   501  0.000000000E+00  0.000000000E+00  1.103465544E+03  1.103465544E+03  0.000000000E+00  0.00000E+00  9.000E+00
      21    -1     0     0   512   502  0.000000000E+00  0.000000000E+00 -2.543653863E+02  2.543653863E+02  0.000000000E+00  0.00000E+00  9.000E+00
      25     1     1     2     0     0  2.994463072E+02  3.298085694E+02  5.619965829E+02  7.279470740E+02  1.250000000E+02  0.00000E+00  9.000E+00
      25     1     1     2     0     0 -3.094224117E+02 -3.420786643E+02  3.322526470E+02  5.820454131E+02  1.250000000E+02  0.00000E+00  9.000E+00
      21     1     1     2   512   501  9.976104501E+00  1.227009488E+01 -4.514907243E+01  4.783844302E+01  9.536743164E-07  0.00000E+00  9.000E+00
#rwgt            1           1  0.12214698560433745                9      176162           0
</event>
<event>
      5   9999 -4.56280E-02  5.78037E+01 -1.00000E+00  1.35575E-01
      21    -1     0     0   511   501  0.000000000E+00  0.000000000E+00  6.606284570E+02  6.606284570E+02  0.000000000E+00  0.00000E+00  9.000E+00
      21    -1     0     0   501   502  0.000000000E+00  0.000000000E+00 -2.102785777E+02  2.102785777E+02  0.000000000E+00  0.00000E+00  9.000E+00
      25     1     1     2     0     0 -2.624421862E+02 -1.326921220E+02  1.645620010E+02  3.594283691E+02  1.250000000E+02  0.00000E+00  9.000E+00
      25     1     1     2     0     0  2.768739616E+02  1.886652546E+02  2.051671494E+02  4.122770041E+02  1.250000000E+02  0.00000E+00  9.000E+00
      21     1     1     2   511   502 -1.443177536E+01 -5.597313259E+01  8.062072886E+01  9.920166145E+01  9.536743164E-07  0.00000E+00  9.000E+00
#rwgt            1           1 -0.63181169199576959                9      176418           0
</event>
<event>
      5   9999  3.79277E-02  8.64277E+01 -1.00000E+00  1.26746E-01
      21    -1     0     0   502   512  0.000000000E+00  0.000000000E+00  5.829834849E+02  5.829834849E+02  0.000000000E+00  0.00000E+00  9.000E+00
      21    -1     0     0   501   502  0.000000000E+00  0.000000000E+00 -1.187374820E+02  1.187374820E+02  0.000000000E+00  0.00000E+00  9.000E+00
      25     1     1     2     0     0  1.482894407E+02  2.369757043E+01  1.332218705E+01  1.958412973E+02  1.250000000E+02  0.00000E+00  9.000E+00
      25     1     1     2     0     0 -6.810580781E+01  8.556514205E+00  2.686615343E+02  3.041638292E+02  1.250000000E+02  0.00000E+00  9.000E+00
      21     1     1     2   501   512 -8.018363291E+01 -3.225408464E+01  1.822622816E+02  2.017158403E+02  2.697398305E-06  0.00000E+00  9.000E+00
#rwgt            1           1   3.2839304975618239E-002           9      176515           0
</event>
<event>
      5   9999  3.79277E-02  6.36549E+01 -1.00000E+00  1.33345E-01
      21    -1     0     0   502   501  0.000000000E+00  0.000000000E+00  5.564846240E+02  5.564846240E+02  0.000000000E+00  0.00000E+00  9.000E+00
      21    -1     0     0   501   511  0.000000000E+00  0.000000000E+00 -1.231626944E+02  1.231626944E+02  0.000000000E+00  0.00000E+00  9.000E+00
      25     1     1     2     0     0 -4.633471687E+01 -1.490732977E+02  3.165267217E+02  3.744114310E+02  1.250000000E+02  0.00000E+00  9.000E+00
      25     1     1     2     0     0 -1.045923247E+01  1.778203841E+02  9.945835046E+01  2.392622996E+02  1.250000000E+02  0.00000E+00  9.000E+00
      21     1     1     2   502   511  5.679394934E+01 -2.874708637E+01  1.733685748E+01  6.597358777E+01  1.634515429E-06  0.00000E+00  9.000E+00
#rwgt            1           1   3.0009020061564490E-002           9      176676           0
</event>
<event>
      5   9999  3.79277E-02  6.71698E+01 -1.00000E+00  1.32135E-01
      21    -1     0     0   502   501  0.000000000E+00  0.000000000E+00  1.377896281E+02  1.377896281E+02  0.000000000E+00  0.00000E+00  9.000E+00
      21    -1     0     0   501   512  0.000000000E+00  0.000000000E+00 -7.415617839E+02  7.415617839E+02  0.000000000E+00  0.00000E+00  9.000E+00
      25     1     1     2     0     0  2.062763377E+02  2.619259490E+01 -3.285920547E+02  4.084528344E+02  1.250000000E+02  0.00000E+00  9.000E+00
      25     1     1     2     0     0 -2.413413996E+02  3.109806601E+01 -1.141583227E+02  2.964285471E+02  1.250000000E+02  0.00000E+00  9.000E+00
      21     1     1     2   502   512  3.506506197E+01 -5.729066091E+01 -1.610217784E+02  1.744700304E+02  0.000000000E+00  0.00000E+00  9.000E+00
#rwgt            1           1   3.3008204640253100E-002           9      176742           0
</event>
<event>
      5   9999  3.79277E-02  1.11406E+02 -1.00000E+00  1.21754E-01
       1    -1     0     0   502     0  0.000000000E+00  0.000000000E+00  6.505232216E+02  6.505232216E+02  0.000000000E+00  0.00000E+00  9.000E+00
      21    -1     0     0   501   502  0.000000000E+00  0.000000000E+00 -1.657250793E+02  1.657250793E+02  0.000000000E+00  0.00000E+00  9.000E+00
      25     1     1     2     0     0  2.198529307E+02  5.554114214E+01  9.793717255E+01  2.768335589E+02  1.250000000E+02  0.00000E+00  9.000E+00
      25     1     1     2     0     0 -1.733472778E+02  4.569414773E+01  1.179574006E+02  2.483468990E+02  1.250000000E+02  0.00000E+00  9.000E+00
       1     1     1     2   501     0 -4.650565282E+01 -1.012352899E+02  2.689035692E+02  2.910678429E+02  3.814697266E-06  0.00000E+00  9.000E+00
#rwgt            1           1   4.5725546535554107E-002           9      176834           0
</event>
<event>
      5   9999  3.79277E-02  4.20682E+01 -1.00000E+00  1.43495E-01
      21    -1     0     0   502   501  0.000000000E+00  0.000000000E+00  2.084229497E+02  2.084229497E+02  0.000000000E+00  0.00000E+00  9.000E+00
      21    -1     0     0   501   511  0.000000000E+00  0.000000000E+00 -2.931062866E+02  2.931062866E+02  0.000000000E+00  0.00000E+00  9.000E+00
      25     1     1     2     0     0 -9.017751157E+01  1.493279951E+02 -8.958000425E+01  2.325519530E+02  1.250000000E+02  0.00000E+00  9.000E+00
      25     1     1     2     0     0  1.297221641E+02 -1.349769005E+02  1.536127418E+01  2.256270646E+02  1.250000000E+02  0.00000E+00  9.000E+00
      21     1     1     2   502   511 -3.954465257E+01 -1.435109458E+01 -1.046460678E+01  4.335021865E+01  8.513246093E-07  0.00000E+00  9.000E+00
#rwgt            1           1   3.1844505759345852E-002           9      176979           0
</event>
<event>
      5   9999  3.79277E-02  3.65938E+01 -1.00000E+00  1.47279E-01
      21    -1     0     0   502   501  0.000000000E+00  0.000000000E+00  1.002214344E+02  1.002214344E+02  0.000000000E+00  0.00000E+00  9.000E+00
       1    -1     0     0   501     0  0.000000000E+00  0.000000000E+00 -4.042488464E+03  4.042488464E+03  0.000000000E+00  0.00000E+00  9.000E+00
      25     1     1     2     0     0 -4.895747565E+01  8.855366801E+01 -3.368785645E+02  3.732971387E+02  1.250000000E+02  0.00000E+00  9.000E+00
      25     1     1     2     0     0  6.474509909E+01 -5.554071343E+01  1.202882840E+01  1.518103798E+02  1.250000000E+02  0.00000E+00  9.000E+00
       1     1     1     2   502     0 -1.578762344E+01 -3.301295457E+01 -3.617417294E+03  3.617602380E+03  0.000000000E+00  0.00000E+00  9.000E+00
#rwgt            1           1   4.0342578826028382E-002           9      177178           0
</event>
<event>
      5   9999  3.79277E-02  3.44423E+01 -1.00000E+00  1.48988E-01
      21    -1     0     0   502   511  0.000000000E+00  0.000000000E+00  1.766463335E+02  1.766463335E+02  0.000000000E+00  0.00000E+00  9.000E+00
      21    -1     0     0   501   502  0.000000000E+00  0.000000000E+00 -2.731691689E+02  2.731691689E+02  0.000000000E+00  0.00000E+00  9.000E+00
      25     1     1     2     0     0  1.041903483E+02 -5.359313906E+01 -5.146553252E+00  1.714040263E+02  1.250000000E+02  0.00000E+00  9.000E+00
      25     1     1     2     0     0 -1.192935885E+02  8.454741623E+01 -1.256949612E+02  2.297900109E+02  1.250000000E+02  0.00000E+00  9.000E+00
      21     1     1     2   501   511  1.510324022E+01 -3.095427717E+01  3.431867907E+01  4.862146515E+01  0.000000000E+00  0.00000E+00  9.000E+00
#rwgt            1           1   4.4603858566600804E-002           9      177481           0
</event>
<event>
      5   9999  3.79277E-02  2.09745E+01 -1.00000E+00  1.64682E-01
      21    -1     0     0   512   501  0.000000000E+00  0.000000000E+00  7.919169502E+02  7.919169502E+02  0.000000000E+00  0.00000E+00  9.000E+00
      21    -1     0     0   501   502  0.000000000E+00  0.000000000E+00 -5.279746779E+01  5.279746779E+01  0.000000000E+00  0.00000E+00  9.000E+00
      25     1     1     2     0     0 -7.231654844E+01 -8.089895706E+01  2.335234054E+02  2.862385461E+02  1.250000000E+02  0.00000E+00  9.000E+00
      25     1     1     2     0     0  8.614358551E+01  9.667054990E+01  2.862359171E+02  3.381152360E+02  1.250000000E+02  0.00000E+00  9.000E+00
      21     1     1     2   512   502 -1.382703707E+01 -1.577159283E+01  2.193601599E+02  2.203606359E+02  2.697398305E-06  0.00000E+00  9.000E+00
#rwgt            1           1   3.8287007298300577E-002           9      177616           0
</event>
<event>
      5   9999  3.79277E-02  3.42613E+01 -1.00000E+00  1.49139E-01
      21    -1     0     0   502   501  0.000000000E+00  0.000000000E+00  1.885645113E+02  1.885645113E+02  0.000000000E+00  0.00000E+00  9.000E+00
       2    -1     0     0   501     0  0.000000000E+00  0.000000000E+00 -4.383555686E+02  4.383555686E+02  0.000000000E+00  0.00000E+00  9.000E+00
      25     1     1     2     0     0  2.097977685E+02  1.249014948E+01 -2.420386981E+01  2.457273587E+02  1.250000000E+02  0.00000E+00  9.000E+00
      25     1     1     2     0     0 -1.791560587E+02 -2.781731838E+01 -8.428432315E+01  2.357955549E+02  1.250000000E+02  0.00000E+00  9.000E+00
       2     1     1     2   502     0 -3.064170976E+01  1.532716890E+01 -1.413028643E+02  1.453971662E+02  2.697398305E-06  0.00000E+00  9.000E+00
#rwgt            1           1   7.0844985551726095E-002           9      177846           0
</event>
<event>
      5   9999  3.79277E-02  4.36855E+01 -1.00000E+00  1.42506E-01
      21    -1     0     0   502   501  0.000000000E+00  0.000000000E+00  3.943066320E+02  3.943066320E+02  0.000000000E+00  0.00000E+00  9.000E+00
      21    -1     0     0   501   511  0.000000000E+00  0.000000000E+00 -6.337411985E+02  6.337411985E+02  0.000000000E+00  0.00000E+00  9.000E+00
      25     1     1     2     0     0  9.346949656E+01  5.277050956E+01  3.013291775E+02  3.434320117E+02  1.250000000E+02  0.00000E+00  9.000E+00
      25     1     1     2     0     0 -5.507374348E+01 -3.193333391E+01  1.806816809E+00  1.402894138E+02  1.250000000E+02  0.00000E+00  9.000E+00
      21     1     1     2   502   511 -3.839575308E+01 -2.083717565E+01 -5.425705608E+02  5.443264050E+02  7.629394531E-06  0.00000E+00  9.000E+00
#rwgt            1           1   3.3269857629029224E-002           9      177921           0
</event>
<event>
      5   9999  3.79277E-02  3.90704E+01 -1.00000E+00  1.45476E-01
      21    -1     0     0   502   501  0.000000000E+00  0.000000000E+00  9.933234967E+01  9.933234967E+01  0.000000000E+00  0.00000E+00  9.000E+00
      21    -1     0     0   501   512  0.000000000E+00  0.000000000E+00 -7.056496984E+02  7.056496984E+02  0.000000000E+00  0.00000E+00  9.000E+00
      25     1     1     2     0     0  2.775875359E+01  1.957378233E+02 -3.212458880E+02  3.973760995E+02  1.250000000E+02  0.00000E+00  9.000E+00
      25     1     1     2     0     0  5.902673049E+00 -1.759033662E+02 -1.398382539E+02  2.572092009E+02  1.250000000E+02  0.00000E+00  9.000E+00
      21     1     1     2   502   512 -3.366142664E+01 -1.983445713E+01 -1.452332069E+02  1.503967477E+02  0.000000000E+00  0.00000E+00  9.000E+00
#rwgt            1           1   3.7923924227121888E-002           9      178022           0
</event>
<event>
      5   9999  3.79277E-02  5.48449E+01 -1.00000E+00  1.36822E-01
      21    -1     0     0   502   501  0.000000000E+00  0.000000000E+00  6.400649975E+02  6.400649975E+02  0.000000000E+00  0.00000E+00  9.000E+00
      21    -1     0     0   511   502  0.000000000E+00  0.000000000E+00 -7.997853221E+01  7.997853221E+01  0.000000000E+00  0.00000E+00  9.000E+00
      25     1     1     2     0     0 -2.759481139E+01  5.130432572E+01  3.051257809E+01  1.412431410E+02  1.250000000E+02  0.00000E+00  9.000E+00
      25     1     1     2     0     0 -1.230754863E+01 -8.893101910E+01  4.827442603E+02  5.066825660E+02  1.250000000E+02  0.00000E+00  9.000E+00
      21     1     1     2   511   501  3.990236002E+01  3.762669338E+01  4.682962694E+01  7.211782269E+01  6.743495762E-07  0.00000E+00  9.000E+00
#rwgt            1           1   4.2478799218046454E-002           9      178200           0
</event>
<event>
      5   9999  3.79277E-02  1.95071E+01 -1.00000E+00  1.67268E-01
      21    -1     0     0   502   512  0.000000000E+00  0.000000000E+00  1.425637975E+02  1.425637975E+02  0.000000000E+00  0.00000E+00  9.000E+00
      21    -1     0     0   501   502  0.000000000E+00  0.000000000E+00 -4.657793481E+02  4.657793481E+02  0.000000000E+00  0.00000E+00  9.000E+00
      25     1     1     2     0     0  1.836782881E+02  5.671005170E+01 -2.503277322E+02  3.394741772E+02  1.250000000E+02  0.00000E+00  9.000E+00
      25     1     1     2     0     0 -1.879808040E+02 -3.768332108E+01 -8.694027940E+01  2.448273423E+02  1.250000000E+02  0.00000E+00  9.000E+00
      21     1     1     2   501   512  4.302515952E+00 -1.902673062E+01  1.405246101E+01  2.404162603E+01  5.057621821E-07  0.00000E+00  9.000E+00
#rwgt            1           1   3.1973092388782730E-002           9      178315           0
</event>
<event>
      5   9999  3.79277E-02  4.07760E+01 -1.00000E+00  1.44325E-01
      21    -1     0     0   502   501  0.000000000E+00  0.000000000E+00  4.511912798E+01  4.511912798E+01  0.000000000E+00  0.00000E+00  9.000E+00
      21    -1     0     0   511   502  0.000000000E+00  0.000000000E+00 -7.157072090E+02  7.157072090E+02  0.000000000E+00  0.00000E+00  9.000E+00
      25     1     1     2     0     0  7.887246502E+01  4.307331853E+01 -2.465803064E+02  2.906940385E+02  1.250000000E+02  0.00000E+00  9.000E+00
      25     1     1     2     0     0 -6.425049358E+01 -8.113743341E+01 -3.362085655E+02  3.733264102E+02  1.250000000E+02  0.00000E+00  9.000E+00
      21     1     1     2   511   501 -1.462197144E+01  3.806411488E+01 -8.779920909E+01  9.680588828E+01  9.536743164E-07  0.00000E+00  9.000E+00
#rwgt            1           1   4.5844268480378494E-002           9      178501           0
</event>
<event>
      5   9999  3.79277E-02  5.62210E+01 -1.00000E+00  1.36231E-01
      21    -1     0     0   502   501  0.000000000E+00  0.000000000E+00  9.367302560E+02  9.367302560E+02  0.000000000E+00  0.00000E+00  9.000E+00
      21    -1     0     0   501   512  0.000000000E+00  0.000000000E+00 -2.825187119E+02  2.825187119E+02  0.000000000E+00  0.00000E+00  9.000E+00
      25     1     1     2     0     0 -4.342359843E+01 -3.366650093E+01  7.397772866E+02  7.522728733E+02  1.250000000E+02  0.00000E+00  9.000E+00
      25     1     1     2     0     0  9.871288361E+01  4.385935653E+01  1.510029746E+02  2.238186205E+02  1.250000000E+02  0.00000E+00  9.000E+00
      21     1     1     2   502   512 -5.528928519E+01 -1.019285560E+01 -2.365687171E+02  2.431574742E+02  4.672030912E-06  0.00000E+00  9.000E+00
#rwgt            1           1   5.0646047194108999E-002           9      178628           0
</event>
<event>
      5   9999  3.79277E-02  2.09697E+01 -1.00000E+00  1.64690E-01
      21    -1     0     0   502   501  0.000000000E+00  0.000000000E+00  1.906607879E+02  1.906607879E+02  0.000000000E+00  0.00000E+00  9.000E+00
      21    -1     0     0   501   511  0.000000000E+00  0.000000000E+00 -8.910093485E+02  8.910093485E+02  0.000000000E+00  0.00000E+00  9.000E+00
      25     1     1     2     0     0 -1.282662400E+02  7.438888140E+01  9.676620724E+01  2.167363211E+02  1.250000000E+02  0.00000E+00  9.000E+00
      25     1     1     2     0     0  1.480531500E+02 -8.133182230E+01 -2.939886833E+02  3.613709264E+02  1.250000000E+02  0.00000E+00  9.000E+00
      21     1     1     2   502   511 -1.978690996E+01  6.942940902E+00 -5.031260845E+02  5.035628889E+02  0.000000000E+00  0.00000E+00  9.000E+00
#rwgt            1           1   4.0574898717687283E-002           9      178746           0
</event>
<event>
      5   9999  3.79277E-02  7.68949E+01 -1.00000E+00  1.29187E-01
      21    -1     0     0   502   501  0.000000000E+00  0.000000000E+00  1.406274939E+02  1.406274939E+02  0.000000000E+00  0.00000E+00  9.000E+00
      21    -1     0     0   501   512  0.000000000E+00  0.000000000E+00 -9.486285829E+02  9.486285829E+02  0.000000000E+00  0.00000E+00  9.000E+00
      25     1     1     2     0     0 -2.707561222E+02 -4.248224963E+01 -3.087883078E+02  4.313801552E+02  1.250000000E+02  0.00000E+00  9.000E+00
      25     1     1     2     0     0  3.100620944E+02  1.085721275E+02 -4.047561922E+02  5.360774052E+02  1.250000000E+02  0.00000E+00  9.000E+00
      21     1     1     2   502   512 -3.930597221E+01 -6.608987791E+01 -9.445658901E+01  1.217985165E+02  1.348699152E-06  0.00000E+00  9.000E+00
#rwgt            1           1   5.4332330146349479E-002           9      178996           0
</event>
<event>
      5   9999  3.79277E-02  3.60137E+01 -1.00000E+00  1.47726E-01
      21    -1     0     0   502   501  0.000000000E+00  0.000000000E+00  1.151811383E+02  1.151811383E+02  0.000000000E+00  0.00000E+00  9.000E+00
       2    -1     0     0   501     0  0.000000000E+00  0.000000000E+00 -1.196241781E+03  1.196241781E+03  0.000000000E+00  0.00000E+00  9.000E+00
      25     1     1     2     0     0  7.612950851E+01 -5.235661133E+01 -1.580598146E+02  2.216863140E+02  1.250000000E+02  0.00000E+00  9.000E+00
      25     1     1     2     0     0 -1.106290654E+02  4.202387517E+01 -6.216602696E+00  1.722452970E+02  1.250000000E+02  0.00000E+00  9.000E+00
       2     1     1     2   502     0  3.449955690E+01  1.033273616E+01 -9.167842254E+02  9.174913083E+02  1.868812365E-05  0.00000E+00  9.000E+00
#rwgt            1           1   5.3571445130096443E-002           9      179086           0
</event>
<event>
      5   9999  3.79277E-02  5.22099E+01 -1.00000E+00  1.38012E-01
      21    -1     0     0   502   511  0.000000000E+00  0.000000000E+00  2.333513696E+02  2.333513696E+02  0.000000000E+00  0.00000E+00  9.000E+00
      21    -1     0     0   501   502  0.000000000E+00  0.000000000E+00 -1.304456313E+03  1.304456313E+03  0.000000000E+00  0.00000E+00  9.000E+00
      25     1     1     2     0     0  5.078231265E+01  4.343019544E+01  3.434840039E+01  1.458418245E+02  1.250000000E+02  0.00000E+00  9.000E+00
      25     1     1     2     0     0 -9.949422458E+01 -2.464128561E+01 -1.238519131E+03  1.249023991E+03  1.250000000E+02  0.00000E+00  9.000E+00
      21     1     1     2   501   511  4.871191193E+01 -1.878890983E+01  1.330657872E+02  1.429418665E+02  3.814697266E-06  0.00000E+00  9.000E+00
#rwgt            1           1   4.1885406515895680E-002           9      179253           0
</event>
<event>
      5   9999  3.79277E-02  6.05487E+01 -1.00000E+00  1.34492E-01
      21    -1     0     0   502   501  0.000000000E+00  0.000000000E+00  8.537672977E+02  8.537672977E+02  0.000000000E+00  0.00000E+00  9.000E+00
      21    -1     0     0   512   502  0.000000000E+00  0.000000000E+00 -3.633840568E+02  3.633840568E+02  0.000000000E+00  0.00000E+00  9.000E+00
      25     1     1     2     0     0  1.776358753E+02 -4.506900163E+01  1.402680505E+01  2.222779125E+02  1.250000000E+02  0.00000E+00  9.000E+00
      25     1     1     2     0     0 -1.608806264E+02  1.032532738E+02  7.139971319E+02  7.496403930E+02  1.250000000E+02  0.00000E+00  9.000E+00
      21     1     1     2   512   501 -1.675524898E+01 -5.818427219E+01 -2.376406961E+02  2.452330490E+02  2.697398305E-06  0.00000E+00  9.000E+00
#rwgt            1           1   2.9057869661749530E-002           9      179425           0
</event>
<event>
      5   9999  3.79277E-02  7.81461E+01 -1.00000E+00  1.28844E-01
      21    -1     0     0   502   501  0.000000000E+00  0.000000000E+00  2.731382196E+02  2.731382196E+02  0.000000000E+00  0.00000E+00  9.000E+00
      21    -1     0     0   511   502  0.000000000E+00  0.000000000E+00 -5.535137867E+02  5.535137867E+02  0.000000000E+00  0.00000E+00  9.000E+00
      25     1     1     2     0     0 -8.507279675E+00 -1.914010077E+02  1.842043619E+02  2.937055779E+02  1.250000000E+02  0.00000E+00  9.000E+00
      25     1     1     2     0     0 -1.317154645E+01  1.163221135E+02 -2.375753096E+02  2.928674640E+02  1.250000000E+02  0.00000E+00  9.000E+00
      21     1     1     2   511   501  2.167882612E+01  7.507889420E+01 -2.270046195E+02  2.400789644E+02  2.697398305E-06  0.00000E+00  9.000E+00
#rwgt            1           1   4.4121378533559671E-002           9      179832           0
</event>
<event>
      5   9999  3.79277E-02  1.27355E+02 -1.00000E+00  1.19282E-01
       5    -1     0     0   502     0  0.000000000E+00  0.000000000E+00  1.883245016E+02  1.883245016E+02  0.000000000E+00  0.00000E+00  9.000E+00
      21    -1     0     0   501   502  0.000000000E+00  0.000000000E+00 -1.030457904E+03  1.030457904E+03  0.000000000E+00  0.00000E+00  9.000E+00
      25     1     1     2     0     0 -9.347558334E+01 -2.689858295E+02 -3.988254738E+02  5.057448168E+02  1.250000000E+02  0.00000E+00  9.000E+00
      25     1     1     2     0     0  1.478734923E+02  3.841389600E+02 -3.590655662E+02  5.603413166E+02  1.250000000E+02  0.00000E+00  9.000E+00
       5     1     1     2   501     0 -5.439790891E+01 -1.151531305E+02 -8.424236263E+01  1.526962725E+02  2.523185073E-06  0.00000E+00  9.000E+00
#rwgt            1           1  0.13740682176550104                9      179904           0
</event>
<event>
      5   9999  3.79277E-02  1.19305E+02 -1.00000E+00  1.20476E-01
      21    -1     0     0   502   501  0.000000000E+00  0.000000000E+00  1.081830469E+02  1.081830469E+02  0.000000000E+00  0.00000E+00  9.000E+00
       2    -1     0     0   501     0  0.000000000E+00  0.000000000E+00 -1.209839893E+03  1.209839893E+03  0.000000000E+00  0.00000E+00  9.000E+00
      25     1     1     2     0     0 -2.109102766E-01  2.698062362E+02 -3.090667723E+02  4.288854385E+02  1.250000000E+02  0.00000E+00  9.000E+00
      25     1     1     2     0     0 -1.016200685E+02 -2.076446058E+02 -3.982799719E+02  4.771738222E+02  1.250000000E+02  0.00000E+00  9.000E+00
       2     1     1     2   502     0  1.018309788E+02 -6.216163047E+01 -3.943101022E+02  4.119636795E+02  0.000000000E+00  0.00000E+00  9.000E+00
#rwgt            1           1   3.4497327289091821E-002           9      179985           0
</event>
<event>
      5   9999  3.79277E-02  7.01082E+01 -1.00000E+00  1.31187E-01
      21    -1     0     0   502   501  0.000000000E+00  0.000000000E+00  6.845134955E+02  6.845134955E+02  0.000000000E+00  0.00000E+00  9.000E+00
      21    -1     0     0   511   502  0.000000000E+00  0.000000000E+00 -1.012964534E+02  1.012964534E+02  0.000000000E+00  0.00000E+00  9.000E+00
      25     1     1     2     0     0 -8.496619359E+01  1.148477229E+02  5.144937935E+02  5.483959491E+02  1.250000000E+02  0.00000E+00  9.000E+00
      25     1     1     2     0     0  4.582270482E+01 -5.668456516E+01  8.428579207E+00  1.449444761E+02  1.250000000E+02  0.00000E+00  9.000E+00
      21     1     1     2   511   501  3.914348877E+01 -5.816315775E+01  6.029466948E+01  9.246952363E+01  1.784161275E-06  0.00000E+00  9.000E+00
#rwgt            1           1   3.3531059694667846E-002           9      180034           0
</event>
<event>
      5   9999  3.79277E-02  1.15676E+01 -1.00000E+00  1.88720E-01
      21    -1     0     0   502   501  0.000000000E+00  0.000000000E+00  3.088690218E+02  3.088690218E+02  0.000000000E+00  0.00000E+00  9.000E+00
      21    -1     0     0   512   502  0.000000000E+00  0.000000000E+00 -6.501417802E+02  6.501417802E+02  0.000000000E+00  0.00000E+00  9.000E+00
      25     1     1     2     0     0 -1.132181521E+02  9.275505502E+01  1.938758604E+02  2.731935201E+02  1.250000000E+02  0.00000E+00  9.000E+00
      25     1     1     2     0     0  1.122168148E+02 -8.123089095E+01 -4.037557155E+01  1.909090305E+02  1.250000000E+02  0.00000E+00  9.000E+00
      21     1     1     2   512   501  1.001337288E+00 -1.152416407E+01 -4.947730472E+02  4.949082513E+02  0.000000000E+00  0.00000E+00  9.000E+00
#rwgt            1           1   2.8666628216918573E-002           9      180102           0
</event>
<event>
      5   9999  3.79277E-02  5.25097E+00 -1.00000E+00  2.34859E-01
      21    -1     0     0   502   511  0.000000000E+00  0.000000000E+00  2.158783398E+02  2.158783398E+02  0.000000000E+00  0.00000E+00  9.000E+00
      21    -1     0     0   501   502  0.000000000E+00  0.000000000E+00 -1.498245558E+02  1.498245558E+02  0.000000000E+00  0.00000E+00  9.000E+00
      25     1     1     2     0     0 -3.783895496E+01 -1.211670396E+02  1.664893362E+01  1.789285471E+02  1.250000000E+02  0.00000E+00  9.000E+00
      25     1     1     2     0     0  3.468728381E+01  1.169670760E+02  4.641336643E+01  1.807310297E+02  1.250000000E+02  0.00000E+00  9.000E+00
      21     1     1     2   501   511  3.151671146E+00  4.199963597E+00  2.991483871E+00  6.043318706E+00  1.332800375E-07  0.00000E+00  9.000E+00
#rwgt            1           1   3.1755410327022206E-002           9      180427           0
</event>
<event>
      5   9999  3.79277E-02  3.36629E+01 -1.00000E+00  1.49644E-01
      21    -1     0     0   502   512  0.000000000E+00  0.000000000E+00  3.316126701E+01  3.316126701E+01  0.000000000E+00  0.00000E+00  9.000E+00
      21    -1     0     0   501   502  0.000000000E+00  0.000000000E+00 -1.647930802E+03  1.647930802E+03  0.000000000E+00  0.00000E+00  9.000E+00
      25     1     1     2     0     0 -1.224279283E+01 -1.529320484E+02 -1.208147751E+03  1.224248376E+03  1.250000000E+02  0.00000E+00  9.000E+00
      25     1     1     2     0     0  8.548562116E+00  1.194724648E+02 -3.585410618E+02  3.981500229E+02  1.250000000E+02  0.00000E+00  9.000E+00
      21     1     1     2   501   512  3.694230714E+00  3.345958358E+01 -4.808072176E+01  5.869366984E+01  0.000000000E+00  0.00000E+00  9.000E+00
#rwgt            1           1   5.5044834723626937E-002           9      180848           0
</event>
<event>
      5   9999  3.79277E-02  4.93599E+01 -1.00000E+00  1.39396E-01
      21    -1     0     0   502   501  0.000000000E+00  0.000000000E+00  1.176531719E+03  1.176531719E+03  0.000000000E+00  0.00000E+00  9.000E+00
      21    -1     0     0   511   502  0.000000000E+00  0.000000000E+00 -9.193668498E+01  9.193668498E+01  0.000000000E+00  0.00000E+00  9.000E+00
      25     1     1     2     0     0 -2.013986078E+02  1.378458399E+02  4.891797447E+02  5.607893521E+02  1.250000000E+02  0.00000E+00  9.000E+00
      25     1     1     2     0     0  2.506316523E+02 -1.413828283E+02  5.734276562E+02  6.536433326E+02  1.250000000E+02  0.00000E+00  9.000E+00
      21     1     1     2   511   501 -4.923304458E+01  3.536988390E+00  2.198763330E+01  5.403571952E+01  4.129530925E-07  0.00000E+00  9.000E+00
#rwgt            1           1   3.8338405938115015E-002           9      181003           0
</event>
<event>
      5   9999  3.79277E-02  6.06366E+01 -1.00000E+00  1.34459E-01
       2    -1     0     0   502     0  0.000000000E+00  0.000000000E+00  1.903619945E+02  1.903619945E+02  0.000000000E+00  0.00000E+00  9.000E+00
      21    -1     0     0   501   502  0.000000000E+00  0.000000000E+00 -2.845316983E+02  2.845316983E+02  0.000000000E+00  0.00000E+00  9.000E+00
      25     1     1     2     0     0 -7.224258980E+01  2.228897792E+01  3.581456470E+01  1.504110148E+02  1.250000000E+02  0.00000E+00  9.000E+00
      25     1     1     2     0     0  1.325022738E+02 -1.553843464E+01 -1.717601790E+02  2.508482701E+02  1.250000000E+02  0.00000E+00  9.000E+00
       2     1     1     2   501     0 -6.025968399E+01 -6.750543279E+00  4.177591040E+01  7.363440798E+01  1.507891493E-06  0.00000E+00  9.000E+00
#rwgt            1           1   5.3837767854840651E-002           9      181249           0
</event>
<event>
      5   9999  3.79277E-02  5.78542E+01 -1.00000E+00  1.35554E-01
      21    -1     0     0   511   501  0.000000000E+00  0.000000000E+00  7.105187455E+01  7.105187455E+01  0.000000000E+00  0.00000E+00  9.000E+00
      21    -1     0     0   501   502  0.000000000E+00  0.000000000E+00 -9.301652438E+02  9.301652438E+02  0.000000000E+00  0.00000E+00  9.000E+00
      25     1     1     2     0     0 -1.138503125E+02 -8.307874770E+01 -4.115075517E+02  4.525786529E+02  1.250000000E+02  0.00000E+00  9.000E+00
      25     1     1     2     0     0  1.670004764E+02  1.059296906E+02 -4.276076811E+02  4.874254686E+02  1.250000000E+02  0.00000E+00  9.000E+00
      21     1     1     2   511   502 -5.315016396E+01 -2.285094292E+01 -1.999813644E+01  6.121299684E+01  0.000000000E+00  0.00000E+00  9.000E+00
#rwgt            1           1   4.1590872114920234E-002           9      181366           0
</event>
<event>
      5   9999  3.79277E-02  6.05403E+01 -1.00000E+00  1.34496E-01
      21    -1     0     0   512   501  0.000000000E+00  0.000000000E+00  1.668318697E+02  1.668318697E+02  0.000000000E+00  0.00000E+00  9.000E+00
      21    -1     0     0   501   502  0.000000000E+00  0.000000000E+00 -1.239523444E+03  1.239523444E+03  0.000000000E+00  0.00000E+00  9.000E+00
      25     1     1     2     0     0  5.853021679E+01  1.029200029E+02 -4.467608372E+02  4.787886370E+02  1.250000000E+02  0.00000E+00  9.000E+00
      25     1     1     2     0     0 -6.525853745E+01 -1.630852800E+02 -7.549066648E+02  7.850888853E+02  1.250000000E+02  0.00000E+00  9.000E+00
      21     1     1     2   512   502  6.728320665E+00  6.016527704E+01  1.289759281E+02  1.424777909E+02  5.046370146E-06  0.00000E+00  9.000E+00
#rwgt            1           1   3.5124859656881315E-002           9      181451           0
</event>
<event>
      5   9999  3.79277E-02  7.54163E+01 -1.00000E+00  1.29602E-01
      21    -1     0     0   502   511  0.000000000E+00  0.000000000E+00  2.759977337E+02  2.759977337E+02  0.000000000E+00  0.00000E+00  9.000E+00
      21    -1     0     0   501   502  0.000000000E+00  0.000000000E+00 -2.971023003E+02  2.971023003E+02  0.000000000E+00  0.00000E+00  9.000E+00
      25     1     1     2     0     0 -6.234001404E+01  3.090130619E+01  1.029175623E+02  1.762333473E+02  1.250000000E+02  0.00000E+00  9.000E+00
      25     1     1     2     0     0  1.197075250E+02  1.805369200E+01 -2.163531011E+02  2.776499445E+02  1.250000000E+02  0.00000E+00  9.000E+00
      21     1     1     2   501   511 -5.736751099E+01 -4.895499819E+01  9.233097228E+01  1.192167421E+02  1.348699152E-06  0.00000E+00  9.000E+00
#rwgt            1           1   3.7160394921682993E-002           9      181577           0
</event>
<event>
      5   9999  3.79277E-02  5.55957E+01 -1.00000E+00  1.36497E-01
      21    -1     0     0   502   501  0.000000000E+00  0.000000000E+00  1.194752110E+02  1.194752110E+02  0.000000000E+00  0.00000E+00  9.000E+00
      -1    -1     0     0     0   502  0.000000000E+00  0.000000000E+00 -1.012698108E+03  1.012698108E+03  0.000000000E+00  0.00000E+00  9.000E+00
      25     1     1     2     0     0  7.757170826E-01  2.151296812E+02 -4.096117528E+02  4.792579363E+02  1.250000000E+02  0.00000E+00  9.000E+00
      25     1     1     2     0     0 -4.324909662E+01 -2.510029268E+02 -1.623671303E+02  3.268960670E+02  1.250000000E+02  0.00000E+00  9.000E+00
      -1     1     1     2     0   501  4.247337954E+01  3.587324565E+01 -3.212440136E+02  3.260193153E+02  5.394796609E-06  0.00000E+00  9.000E+00
#rwgt            1           1   3.4521998738978529E-002           9      181651           0
</event>
<event>
      5   9999  3.79277E-02  1.97532E+01 -1.00000E+00  1.66815E-01
      21    -1     0     0   511   501  0.000000000E+00  0.000000000E+00  5.725549957E+02  5.725549957E+02  0.000000000E+00  0.00000E+00  9.000E+00
      21    -1     0     0   501   502  0.000000000E+00  0.000000000E+00 -9.333171907E+01  9.333171907E+01  0.000000000E+00  0.00000E+00  9.000E+00
      25     1     1     2     0     0 -6.341955193E+01  1.628892203E+02  2.422440043E+02  3.238241734E+02  1.250000000E+02  0.00000E+00  9.000E+00
      25     1     1     2     0     0  4.913431693E+01 -1.765318530E+02  1.936923250E+02  2.944815664E+02  1.250000000E+02  0.00000E+00  9.000E+00
      21     1     1     2   511   502  1.428523500E+01  1.364263263E+01  4.328694744E+01  4.758097501E+01  8.259061849E-07  0.00000E+00  9.000E+00
#rwgt            1           1   3.2273594149734373E-002           9      181724           0
</event>
<event>
      5   9999  3.79277E-02  3.57317E+01 -1.00000E+00  1.47946E-01
      21    -1     0     0   502   512  0.000000000E+00  0.000000000E+00  7.917304466E+02  7.917304466E+02  0.000000000E+00  0.00000E+00  9.000E+00
      21    -1     0     0   501   502  0.000000000E+00  0.000000000E+00 -6.854725923E+01  6.854725923E+01  0.000000000E+00  0.00000E+00  9.000E+00
      25     1     1     2     0     0  9.616579885E+01  9.758533820E+01  1.173956092E+02  2.194937087E+02  1.250000000E+02  0.00000E+00  9.000E+00
      25     1     1     2     0     0 -6.091954200E+01 -9.171527958E+01  4.245934063E+02  4.561002563E+02  1.250000000E+02  0.00000E+00  9.000E+00
      21     1     1     2   501   512 -3.524625686E+01 -5.870058623E+00  1.811941719E+02  1.846837408E+02  0.000000000E+00  0.00000E+00  9.000E+00
#rwgt            1           1   3.3820209127008165E-002           9      181828           0
</event>
<event>
      5   9999  3.79277E-02  6.86523E+01 -1.00000E+00  1.31650E-01
      21    -1     0     0   502   501  0.000000000E+00  0.000000000E+00  3.341125940E+02  3.341125940E+02  0.000000000E+00  0.00000E+00  9.000E+00
      21    -1     0     0   511   502  0.000000000E+00  0.000000000E+00 -1.566896119E+03  1.566896119E+03  0.000000000E+00  0.00000E+00  9.000E+00
      25     1     1     2     0     0 -7.436593429E+01  3.942461290E+01  2.109181899E+02  2.592220576E+02  1.250000000E+02  0.00000E+00  9.000E+00
      25     1     1     2     0     0  3.166683288E+01 -9.318263839E+01  3.383839287E+01  1.626524799E+02  1.250000000E+02  0.00000E+00  9.000E+00
      21     1     1     2   511   501  4.269910142E+01  5.375802549E+01 -1.477540107E+03  1.479134175E+03  3.051757812E-05  0.00000E+00  9.000E+00
#rwgt            1           1   3.9432159739060023E-002           9      181955           0
</event>
<event>
      5   9999  3.79277E-02  5.69383E+01 -1.00000E+00  1.35930E-01
      21    -1     0     0   502   501  0.000000000E+00  0.000000000E+00  6.819499580E+01  6.819499580E+01  0.000000000E+00  0.00000E+00  9.000E+00
       1    -1     0     0   501     0  0.000000000E+00  0.000000000E+00 -2.142757900E+03  2.142757900E+03  0.000000000E+00  0.00000E+00  9.000E+00
      25     1     1     2     0     0  1.881501859E+02  2.480137609E+02 -8.997738702E+02  9.602756560E+02  1.250000000E+02  0.00000E+00  9.000E+00
      25     1     1     2     0     0 -2.302328650E+02 -2.096599249E+02 -7.442936275E+02  8.164327653E+02  1.250000000E+02  0.00000E+00  9.000E+00
       1     1     1     2   502     0  4.208267909E+01 -3.835383609E+01 -4.304954060E+02  4.342444741E+02  9.344061824E-06  0.00000E+00  9.000E+00
#rwgt            1           1   2.9757634908203292E-002           9      182051           0
</event>
<event>
      5   9999  3.79277E-02  4.28225E+01 -1.00000E+00  1.43027E-01
      21    -1     0     0   502   511  0.000000000E+00  0.000000000E+00  1.862321587E+02  1.862321587E+02  0.000000000E+00  0.00000E+00  9.000E+00
      21    -1     0     0   501   502  0.000000000E+00  0.000000000E+00 -1.568532767E+02  1.568532767E+02  0.000000000E+00  0.00000E+00  9.000E+00
      25     1     1     2     0     0  4.493507524E+00  3.920213026E+01 -2.254432155E+01  1.330046806E+02  1.250000000E+02  0.00000E+00  9.000E+00
      25     1     1     2     0     0 -3.482777885E+01 -6.942794918E+01  5.999706696E+00  1.472895474E+02  1.250000000E+02  0.00000E+00  9.000E+00
      21     1     1     2   501   511  3.033427133E+01  3.022581892E+01  4.592349688E+01  6.279120728E+01  6.743495762E-07  0.00000E+00  9.000E+00
#rwgt            1           1   2.2599457568957110E-002           9      182156           0
</event>
<event>
      5   9999  3.79277E-02  3.69566E+01 -1.00000E+00  1.47004E-01
      -1    -1     0     0     0   501  0.000000000E+00  0.000000000E+00  5.001219655E+02  5.001219655E+02  0.000000000E+00  0.00000E+00  9.000E+00
      21    -1     0     0   501   502  0.000000000E+00  0.000000000E+00 -7.903709016E+02  7.903709016E+02  0.000000000E+00  0.00000E+00  9.000E+00
      25     1     1     2     0     0  5.650821788E+00  1.731523358E+02 -6.105698259E+02  6.468648819E+02  1.250000000E+02  0.00000E+00  9.000E+00
      25     1     1     2     0     0 -3.714684603E+01 -1.538187195E+02 -9.763011062E+01  2.240462567E+02  1.250000000E+02  0.00000E+00  9.000E+00
      -1     1     1     2     0   502  3.149602424E+01 -1.933361632E+01  4.179510004E+02  4.195817286E+02  5.394796609E-06  0.00000E+00  9.000E+00
#rwgt            1           1   3.5507740528604934E-002           9      182340           0
</event>
<event>
      5   9999  3.79277E-02  1.03441E+02 -1.00000E+00  1.23171E-01
      21    -1     0     0   511   501  0.000000000E+00  0.000000000E+00  1.789429209E+02  1.789429209E+02  0.000000000E+00  0.00000E+00  9.000E+00
      21    -1     0     0   501   502  0.000000000E+00  0.000000000E+00 -7.398009987E+02  7.398009987E+02  0.000000000E+00  0.00000E+00  9.000E+00
      25     1     1     2     0     0 -1.889380878E+02  6.808712311E+01 -1.540926813E+02  2.823172183E+02  1.250000000E+02  0.00000E+00  9.000E+00
      25     1     1     2     0     0  1.124840117E+02 -1.377633528E+02 -4.681385130E+02  5.161492629E+02  1.250000000E+02  0.00000E+00  9.000E+00
      21     1     1     2   511   502  7.645407603E+01  6.967622970E+01  6.137311648E+01  1.202774383E+02  6.743495762E-07  0.00000E+00  9.000E+00
#rwgt            2          11   2.3092583038914287E-003           9      182563           0
</event>
<event>
      5   9999  3.79277E-02  4.65367E+00 -1.00000E+00  2.48885E-01
      21    -1     0     0   502   512  0.000000000E+00  0.000000000E+00  5.184494955E+01  5.184494955E+01  0.000000000E+00  0.00000E+00  9.000E+00
      21    -1     0     0   501   502  0.000000000E+00  0.000000000E+00 -1.134627406E+03  1.134627406E+03  0.000000000E+00  0.00000E+00  9.000E+00
      25     1     1     2     0     0 -5.960702371E+01  1.870471592E+02 -4.740456971E+02  5.280946506E+02  1.250000000E+02  0.00000E+00  9.000E+00
      25     1     1     2     0     0  5.750465902E+01 -1.911988699E+02 -6.097022033E+02  6.536249463E+02  1.250000000E+02  0.00000E+00  9.000E+00
      21     1     1     2   501   512  2.102364686E+00  4.151710686E+00  9.654434363E-01  4.752759191E+00  5.866593029E-08  0.00000E+00  9.000E+00
#rwgt            1           1   3.6268470216473447E-002           9      182643           0
</event>
<event>
      5   9999  3.79277E-02  5.16972E+01 -1.00000E+00  1.38253E-01
       2    -1     0     0   502     0  0.000000000E+00  0.000000000E+00  1.107533199E+03  1.107533199E+03  0.000000000E+00  0.00000E+00  9.000E+00
      21    -1     0     0   501   502  0.000000000E+00  0.000000000E+00 -7.130645135E+01  7.130645135E+01  0.000000000E+00  0.00000E+00  9.000E+00
      25     1     1     2     0     0  1.837693695E+01 -4.437653292E+01  1.378051048E+01  1.346175730E+02  1.250000000E+02  0.00000E+00  9.000E+00
      25     1     1     2     0     0 -3.653323503E+01  9.278052721E+01  7.391854581E+02  7.562823844E+02  1.250000000E+02  0.00000E+00  9.000E+00
       2     1     1     2   501     0  1.815629808E+01 -4.840399429E+01  2.832607793E+02  2.879396932E+02  7.629394531E-06  0.00000E+00  9.000E+00
#rwgt            2          18   1.4759254432215643E-004           9      183126           0
</event>
<event>
      5   9999  3.79277E-02  9.74840E+00 -1.00000E+00  1.97045E-01
      21    -1     0     0   502   501  0.000000000E+00  0.000000000E+00  1.714373523E+02  1.714373523E+02  0.000000000E+00  0.00000E+00  9.000E+00
      21    -1     0     0   501   511  0.000000000E+00  0.000000000E+00 -8.105838793E+02  8.105838793E+02  0.000000000E+00  0.00000E+00  9.000E+00
      25     1     1     2     0     0 -1.796967489E+02  2.753275395E+02 -4.060939359E+02  5.372461822E+02  1.250000000E+02  0.00000E+00  9.000E+00
      25     1     1     2     0     0  1.746473331E+02 -2.836662902E+02 -1.954887344E+02  4.059668711E+02  1.250000000E+02  0.00000E+00  9.000E+00
      21     1     1     2   502   511  5.049415799E+00  8.338750748E+00 -3.756385676E+01  3.880817824E+01  4.768371582E-07  0.00000E+00  9.000E+00
#rwgt            1           1   3.6777799307914118E-002           9      183145           0
</event>
<event>
      5   9999 -3.79277E-02  2.45820E+01 -1.00000E+00  1.59301E-01
       1    -1     0     0   502     0  0.000000000E+00  0.000000000E+00  7.684240127E+01  7.684240127E+01  0.000000000E+00  0.00000E+00  9.000E+00
      21    -1     0     0   501   502  0.000000000E+00  0.000000000E+00 -1.191627440E+03  1.191627440E+03  0.000000000E+00  0.00000E+00  9.000E+00
      25     1     1     2     0     0 -8.035461528E+01 -1.175586013E+02 -2.116467056E+02  2.840707957E+02  1.250000000E+02  0.00000E+00  9.000E+00
      25     1     1     2     0     0  8.547740094E+01  1.416009254E+02 -9.271432699E+02  9.500404471E+02  1.250000000E+02  0.00000E+00  9.000E+00
       1     1     1     2   501     0 -5.122785662E+00 -2.404232410E+01  2.400493700E+01  3.435859837E+01  8.259061849E-07  0.00000E+00  9.000E+00
#rwgt            1           1  -2.1425189204109484E-003           9      183517           0
</event>
<event>
      5   9999  3.79277E-02  1.53641E+01 -1.00000E+00  1.76408E-01
      21    -1     0     0   511   501  0.000000000E+00  0.000000000E+00  5.703744921E+02  5.703744921E+02  0.000000000E+00  0.00000E+00  9.000E+00
      21    -1     0     0   501   502  0.000000000E+00  0.000000000E+00 -9.566664522E+02  9.566664522E+02  0.000000000E+00  0.00000E+00  9.000E+00
      25     1     1     2     0     0  6.159609853E+02 -2.711408233E+02  4.877221387E+01  6.862426760E+02  1.250000000E+02  0.00000E+00  9.000E+00
      25     1     1     2     0     0 -6.071390085E+02  2.585619872E+02 -4.581851672E+02  8.130379599E+02  1.250000000E+02  0.00000E+00  9.000E+00
      21     1     1     2   511   502 -8.821976813E+00  1.257883615E+01  2.312099315E+01  2.776030832E+01  3.371747881E-07  0.00000E+00  9.000E+00
#rwgt            1           1   1.8810957364386517E-002           9      183715           0
</event>
<event>
      5   9999  3.79277E-02  9.59512E+01 -1.00000E+00  1.24641E-01
      21    -1     0     0   502   501  0.000000000E+00  0.000000000E+00  7.434691570E+02  7.434691570E+02  0.000000000E+00  0.00000E+00  9.000E+00
      21    -1     0     0   501   512  0.000000000E+00  0.000000000E+00 -2.223478658E+02  2.223478658E+02  0.000000000E+00  0.00000E+00  9.000E+00
      25     1     1     2     0     0  1.268439490E+02 -7.205218462E+01 -1.505289837E+01  1.926979358E+02  1.250000000E+02  0.00000E+00  9.000E+00
      25     1     1     2     0     0 -2.160676046E+02  3.675663480E+01  6.046885912E+02  6.552171795E+02  1.250000000E+02  0.00000E+00  9.000E+00
      21     1     1     2   502   512  8.922365567E+01  3.529554982E+01 -6.851440160E+01  1.179019075E+02  9.536743164E-07  0.00000E+00  9.000E+00
#rwgt            1           1   6.3928369306603700E-002           9      184070           0
</event>
<event>
      5   9999  3.79277E-02  1.55285E+01 -1.00000E+00  1.75979E-01
      21    -1     0     0   502   501  0.000000000E+00  0.000000000E+00  1.983324524E+02  1.983324524E+02  0.000000000E+00  0.00000E+00  9.000E+00
      21    -1     0     0   511   502  0.000000000E+00  0.000000000E+00 -2.666793447E+02  2.666793447E+02  0.000000000E+00  0.00000E+00  9.000E+00
      25     1     1     2     0     0 -4.857571834E+01 -2.912690446E+01  1.489461796E+02  2.025288656E+02  1.250000000E+02  0.00000E+00  9.000E+00
      25     1     1     2     0     0  3.596032062E+01  2.007234065E+01 -1.973113750E+02  2.371767742E+02  1.250000000E+02  0.00000E+00  9.000E+00
      21     1     1     2   511   501  1.261539771E+01  9.054563809E+00 -1.998169695E+01  2.530615732E+01  3.371747881E-07  0.00000E+00  9.000E+00
#rwgt            1           1   4.9307541006747946E-002           9      184189           0
</event>
<event>
      5   9999  3.79277E-02  1.63202E+01 -1.00000E+00  1.74001E-01
      -1    -1     0     0     0   501  0.000000000E+00  0.000000000E+00  7.837508721E+02  7.837508721E+02  0.000000000E+00  0.00000E+00  9.000E+00
      21    -1     0     0   501   502  0.000000000E+00  0.000000000E+00 -5.993760976E+02  5.993760976E+02  0.000000000E+00  0.00000E+00  9.000E+00
      25     1     1     2     0     0  2.793946327E+01 -7.119943162E+01 -4.050834100E+02  4.307755120E+02  1.250000000E+02  0.00000E+00  9.000E+00
      25     1     1     2     0     0 -2.004862844E+01  5.691367775E+01 -1.547989338E+02  2.079154254E+02  1.250000000E+02  0.00000E+00  9.000E+00
      -1     1     1     2     0   502 -7.890834829E+00  1.428575386E+01  7.442571183E+02  7.444360323E+02  1.078959322E-05  0.00000E+00  9.000E+00
#rwgt            1           1   5.1035335310373256E-002           9      184431           0
</event>
<event>
      5   9999  3.79277E-02  5.96538E+01 -1.00000E+00  1.34838E-01
      21    -1     0     0   502   501  0.000000000E+00  0.000000000E+00  1.507745770E+03  1.507745770E+03  0.000000000E+00  0.00000E+00  9.000E+00
      21    -1     0     0   501   511  0.000000000E+00  0.000000000E+00 -5.732260568E+01  5.732260568E+01  0.000000000E+00  0.00000E+00  9.000E+00
      25     1     1     2     0     0  1.437039094E+01 -1.121331002E+02  1.236813710E+03  1.248244165E+03  1.250000000E+02  0.00000E+00  9.000E+00
      25     1     1     2     0     0  3.680827051E+01  8.148478367E+01  2.055141749E+02  2.566236443E+02  1.250000000E+02  0.00000E+00  9.000E+00
      21     1     1     2   502   511 -5.117866145E+01  3.064831653E+01  8.095279047E+00  6.020056675E+01  9.078709013E-07  0.00000E+00  9.000E+00
#rwgt            1           1   3.7241378572656171E-002           9      184590           0
</event>
<event>
      5   9999  3.79277E-02  8.09505E+01 -1.00000E+00  1.28102E-01
      21    -1     0     0   502   512  0.000000000E+00  0.000000000E+00  1.211274731E+02  1.211274731E+02  0.000000000E+00  0.00000E+00  9.000E+00
      21    -1     0     0   501   502  0.000000000E+00  0.000000000E+00 -4.660226839E+02  4.660226839E+02  0.000000000E+00  0.00000E+00  9.000E+00
      25     1     1     2     0     0  4.858218713E+01 -3.534898734E+01  3.371319994E+00  1.387304783E+02  1.250000000E+02  0.00000E+00  9.000E+00
      25     1     1     2     0     0 -8.483888390E+01 -3.702806047E+01 -3.308897385E+02  3.656251257E+02  1.250000000E+02  0.00000E+00  9.000E+00
      21     1     1     2   501   512  3.625669677E+01  7.237704781E+01 -1.737679229E+01  8.279455309E+01  1.735713456E-06  0.00000E+00  9.000E+00
#rwgt            1           1   3.8292185465100749E-002           9      184767           0
</event>
<event>
      5   9999  3.79277E-02  3.29779E+01 -1.00000E+00  1.50239E-01
      21    -1     0     0   502   501  0.000000000E+00  0.000000000E+00  9.715040327E+01  9.715040327E+01  0.000000000E+00  0.00000E+00  9.000E+00
      21    -1     0     0   511   502  0.000000000E+00  0.000000000E+00 -5.890924628E+02  5.890924628E+02  0.000000000E+00  0.00000E+00  9.000E+00
      25     1     1     2     0     0 -4.151322741E+01  1.217909385E+02 -3.279881053E+02  3.738416482E+02  1.250000000E+02  0.00000E+00  9.000E+00
      25     1     1     2     0     0  7.124450470E+01 -1.360596235E+02 -6.550533396E+01  2.085760038E+02  1.250000000E+02  0.00000E+00  9.000E+00
      21     1     1     2   511   501 -2.973127729E+01  1.426868505E+01 -9.844862030E+01  1.038252140E+02  1.907348633E-06  0.00000E+00  9.000E+00
#rwgt            1           1   4.1305875060601252E-002           9      184862           0
</event>
<event>
      5   9999  3.79277E-02  3.00427E+01 -1.00000E+00  1.52997E-01
      21    -1     0     0   502   501  0.000000000E+00  0.000000000E+00  4.136505733E+01  4.136505733E+01  0.000000000E+00  0.00000E+00  9.000E+00
      21    -1     0     0   501   512  0.000000000E+00  0.000000000E+00 -9.930655811E+02  9.930655811E+02  0.000000000E+00  0.00000E+00  9.000E+00
      25     1     1     2     0     0 -8.151975976E+01 -2.309824875E+01 -2.481974137E+02  2.905270323E+02  1.250000000E+02  0.00000E+00  9.000E+00
      25     1     1     2     0     0  1.042228301E+02  4.277405203E+01 -3.420320238E+02  3.811862054E+02  1.250000000E+02  0.00000E+00  9.000E+00
      21     1     1     2   502   512 -2.270307034E+01 -1.967580329E+01 -3.614710862E+02  3.627174007E+02  3.814697266E-06  0.00000E+00  9.000E+00
#rwgt            1           1   4.7110512908981585E-002           9      185022           0
</event>
<event>
      5   9999  3.79277E-02  1.50541E+02 -1.00000E+00  1.16332E-01
      21    -1     0     0   511   501  0.000000000E+00  0.000000000E+00  7.682790407E+02  7.682790407E+02  0.000000000E+00  0.00000E+00  9.000E+00
      21    -1     0     0   501   502  0.000000000E+00  0.000000000E+00 -3.696085954E+02  3.696085954E+02  0.000000000E+00  0.00000E+00  9.000E+00
      25     1     1     2     0     0 -5.189901028E-02  2.321370152E+02  2.359134099E+02  3.537905221E+02  1.250000000E+02  0.00000E+00  9.000E+00
      25     1     1     2     0     0  1.230856895E+02 -1.453894452E+02 -2.538618214E+02  3.411143534E+02  1.250000000E+02  0.00000E+00  9.000E+00
      21     1     1     2   511   502 -1.230337905E+02 -8.674756995E+01  4.166188567E+02  4.429827607E+02  5.394796609E-06  0.00000E+00  9.000E+00
#rwgt            1           1   4.4554532872929001E-002           9      185179           0
</event>
<event>
      5   9999  3.79277E-02  1.32621E+01 -1.00000E+00  1.82575E-01
      21    -1     0     0   512   501  0.000000000E+00  0.000000000E+00  2.691866307E+03  2.691866307E+03  0.000000000E+00  0.00000E+00  9.000E+00
      21    -1     0     0   501   502  0.000000000E+00  0.000000000E+00 -1.355980002E+01  1.355980002E+01  0.000000000E+00  0.00000E+00  9.000E+00
      25     1     1     2     0     0 -5.445721087E+01  4.971395838E+01  4.750523378E+02  4.967260705E+02  1.250000000E+02  0.00000E+00  9.000E+00
      25     1     1     2     0     0  4.256488780E+01 -4.384412098E+01  2.098875853E+03  2.103482570E+03  1.250000000E+02  0.00000E+00  9.000E+00
      21     1     1     2   512   502  1.189232307E+01 -5.869837408E+00  1.043783167E+02  1.052174669E+02  1.348699152E-06  0.00000E+00  9.000E+00
#rwgt            1           1  0.13908193673360786                9      185238           0
</event>
<event>
      5   9999  3.79277E-02  5.11461E+01 -1.00000E+00  1.38516E-01
      21    -1     0     0   502   501  0.000000000E+00  0.000000000E+00  1.041488073E+02  1.041488073E+02  0.000000000E+00  0.00000E+00  9.000E+00
      21    -1     0     0   511   502  0.000000000E+00  0.000000000E+00 -9.875491564E+02  9.875491564E+02  0.000000000E+00  0.00000E+00  9.000E+00
      25     1     1     2     0     0 -1.105749275E-01 -1.418506117E+02 -1.250292399E+02  2.266691843E+02  1.250000000E+02  0.00000E+00  9.000E+00
      25     1     1     2     0     0  5.024689272E+01  1.519638314E+02 -1.450147660E+02  2.495436608E+02  1.250000000E+02  0.00000E+00  9.000E+00
      21     1     1     2   511   501 -5.013631779E+01 -1.011321963E+01 -6.133563432E+02  6.154851187E+02  7.629394531E-06  0.00000E+00  9.000E+00
#rwgt            1           1   3.5918737577808939E-002           9      185516           0
</event>
<event>
      5   9999  3.79277E-02  4.01321E+01 -1.00000E+00  1.44751E-01
      21    -1     0     0   502   501  0.000000000E+00  0.000000000E+00  2.165423686E+02  2.165423686E+02  0.000000000E+00  0.00000E+00  9.000E+00
      21    -1     0     0   512   502  0.000000000E+00  0.000000000E+00 -1.233516700E+03  1.233516700E+03  0.000000000E+00  0.00000E+00  9.000E+00
      25     1     1     2     0     0  2.949118077E+02  3.398487482E+02 -2.306854740E+02  5.208751616E+02  1.250000000E+02  0.00000E+00  9.000E+00
      25     1     1     2     0     0 -2.551509980E+02 -3.452949728E+02 -6.644472105E+02  8.009030813E+02  1.250000000E+02  0.00000E+00  9.000E+00
      21     1     1     2   512   501 -3.976080978E+01  5.446224588E+00 -1.218416468E+02  1.282808258E+02  1.348699152E-06  0.00000E+00  9.000E+00
#rwgt            1           1   4.8649279648192122E-002           9      185583           0
</event>
<event>
      5   9999  3.79277E-02  3.49273E+01 -1.00000E+00  1.48590E-01
      21    -1     0     0   502   501  0.000000000E+00  0.000000000E+00  4.358892693E+02  4.358892693E+02  0.000000000E+00  0.00000E+00  9.000E+00
       3    -1     0     0   501     0  0.000000000E+00  0.000000000E+00 -8.188657969E+01  8.188657969E+01  0.000000000E+00  0.00000E+00  9.000E+00
      25     1     1     2     0     0 -2.608633760E+01  2.130396834E+00  9.581865656E+01  1.596597963E+02  1.250000000E+02  0.00000E+00  9.000E+00
      25     1     1     2     0     0  2.495523830E+01 -3.703937568E+01  2.847926591E+02  3.142077942E+02  1.250000000E+02  0.00000E+00  9.000E+00
       3     1     1     2   502     0  1.131099295E+00  3.490897885E+01 -2.660862601E+01  4.390825854E+01  9.536743164E-07  0.00000E+00  9.000E+00
#rwgt            1           1   4.8070210460700362E-002           9      185734           0
</event>
<event>
      5   9999  3.79277E-02  1.29258E+01 -1.00000E+00  1.83697E-01
      21    -1     0     0   502   511  0.000000000E+00  0.000000000E+00  1.159389292E+02  1.159389292E+02  0.000000000E+00  0.00000E+00  9.000E+00
      21    -1     0     0   501   502  0.000000000E+00  0.000000000E+00 -4.498077541E+02  4.498077541E+02  0.000000000E+00  0.00000E+00  9.000E+00
      25     1     1     2     0     0 -1.233003824E+02  5.413032908E+01 -1.288508751E+02  2.244117306E+02  1.250000000E+02  0.00000E+00  9.000E+00
      25     1     1     2     0     0  1.293709708E+02 -4.271870706E+01 -2.406225496E+02  3.034566648E+02  1.250000000E+02  0.00000E+00  9.000E+00
      21     1     1     2   501   511 -6.070588338E+00 -1.141162203E+01  3.560459986E+01  3.787828786E+01  1.066240300E-06  0.00000E+00  9.000E+00
#rwgt            1           1   4.3247625999639570E-002           9      185832           0
</event>
<event>
      5   9999  3.79277E-02  2.37894E+02 -1.00000E+00  1.08972E-01
      21    -1     0     0   502   512  0.000000000E+00  0.000000000E+00  2.350702303E+02  2.350702303E+02  0.000000000E+00  0.00000E+00  9.000E+00
      21    -1     0     0   501   502  0.000000000E+00  0.000000000E+00 -6.730272480E+02  6.730272480E+02  0.000000000E+00  0.00000E+00  9.000E+00
      25     1     1     2     0     0 -1.388025074E+02 -1.543436806E+02 -3.277969196E+02  4.076320992E+02  1.250000000E+02  0.00000E+00  9.000E+00
      25     1     1     2     0     0 -9.577427687E+01  1.939297252E+02 -4.528064348E+01  2.538834124E+02  1.250000000E+02  0.00000E+00  9.000E+00
      21     1     1     2   501   512  2.345767842E+02 -3.958604465E+01 -6.487945466E+01  2.465819666E+02  4.264961200E-06  0.00000E+00  9.000E+00
#rwgt            1           1   3.4124257079441923E-002           9      186054           0
</event>
<event>
      5   9999 -3.79277E-02  1.00879E+02 -1.00000E+00  1.23657E-01
      21    -1     0     0   502   501  0.000000000E+00  0.000000000E+00  7.465761196E+01  7.465761196E+01  0.000000000E+00  0.00000E+00  9.000E+00
      21    -1     0     0   501   511  0.000000000E+00  0.000000000E+00 -1.319427562E+03  1.319427562E+03  0.000000000E+00  0.00000E+00  9.000E+00
      25     1     1     2     0     0  2.370801430E+02 -1.225145452E+02 -4.582376516E+02  5.448151552E+02  1.250000000E+02  0.00000E+00  9.000E+00
      25     1     1     2     0     0 -1.364197070E+02  1.158720239E+02 -5.704828914E+02  6.108292656E+02  1.250000000E+02  0.00000E+00  9.000E+00
      21     1     1     2   502   511 -1.006604360E+02  6.642521316E+00 -2.160494069E+02  2.384407529E+02  3.814697266E-06  0.00000E+00  9.000E+00
#rwgt            1           1 -0.21501443351653848                9      186189           0
</event>
<event>
      5   9999  3.79277E-02  8.47999E+01 -1.00000E+00  1.27137E-01
      21    -1     0     0   502   501  0.000000000E+00  0.000000000E+00  1.665504745E+03  1.665504745E+03  0.000000000E+00  0.00000E+00  9.000E+00
      21    -1     0     0   501   512  0.000000000E+00  0.000000000E+00 -6.272195352E+01  6.272195352E+01  0.000000000E+00  0.00000E+00  9.000E+00
      25     1     1     2     0     0 -2.548324763E+02 -4.160598755E+01  1.087216527E+03  1.124426710E+03  1.250000000E+02  0.00000E+00  9.000E+00
      25     1     1     2     0     0  1.707057296E+02  5.226955354E+01  4.363834163E+02  4.877786777E+02  1.250000000E+02  0.00000E+00  9.000E+00
      21     1     1     2   502   512  8.412674668E+01 -1.066356599E+01  7.918284786E+01  1.160213107E+02  2.336015456E-06  0.00000E+00  9.000E+00
#rwgt            1           1   5.2825618533686808E-002           9      186246           0
</event>
<event>
      5   9999  3.79277E-02  1.10518E+02 -1.00000E+00  1.21905E-01
      21    -1     0     0   511   501  0.000000000E+00  0.000000000E+00  9.786543548E+01  9.786543548E+01  0.000000000E+00  0.00000E+00  9.000E+00
      21    -1     0     0   501   502  0.000000000E+00  0.000000000E+00 -9.142781268E+02  9.142781268E+02  0.000000000E+00  0.00000E+00  9.000E+00
      25     1     1     2     0     0  2.089909089E+02  1.071971267E+01 -5.117538164E+02  5.668413189E+02  1.250000000E+02  0.00000E+00  9.000E+00
      25     1     1     2     0     0 -1.426126598E+02 -9.908388924E+01 -1.919034757E+02  2.874159561E+02  1.250000000E+02  0.00000E+00  9.000E+00
      21     1     1     2   511   502 -6.637824909E+01  8.836417656E+01 -1.127553992E+02  1.578862872E+02  0.000000000E+00  0.00000E+00  9.000E+00
#rwgt            1           1   4.1782093537978529E-002           9      186396           0
</event>
<event>
      5   9999  3.79277E-02  2.08949E+01 -1.00000E+00  1.64816E-01
      21    -1     0     0   502   501  0.000000000E+00  0.000000000E+00  3.271262620E+02  3.271262620E+02  0.000000000E+00  0.00000E+00  9.000E+00
      21    -1     0     0   512   502  0.000000000E+00  0.000000000E+00 -1.529678645E+02  1.529678645E+02  0.000000000E+00  0.00000E+00  9.000E+00
      25     1     1     2     0     0  1.041787999E+02 -5.729358978E+01  1.861818940E+01  1.735148834E+02  1.250000000E+02  0.00000E+00  9.000E+00
      25     1     1     2     0     0 -9.652353471E+01  7.673560043E+01  1.947085152E+02  2.621861000E+02  1.250000000E+02  0.00000E+00  9.000E+00
      21     1     1     2   512   501 -7.655265239E+00 -1.944201065E+01 -3.916830717E+01  4.439314306E+01  4.768371582E-07  0.00000E+00  9.000E+00
#rwgt            1           1   3.9406051535927973E-002           9      186495           0
</event>
<event>
      5   9999  3.79277E-02  7.52573E+01 -1.00000E+00  1.29647E-01
      21    -1     0     0   502   501  0.000000000E+00  0.000000000E+00  6.333774090E+02  6.333774090E+02  0.000000000E+00  0.00000E+00  9.000E+00
      21    -1     0     0   501   511  0.000000000E+00  0.000000000E+00 -1.526826561E+02  1.526826561E+02  0.000000000E+00  0.00000E+00  9.000E+00
      25     1     1     2     0     0  8.899874629E+01  2.720134465E+01  5.476869826E+02  5.694266599E+02  1.250000000E+02  0.00000E+00  9.000E+00
      25     1     1     2     0     0 -1.710652877E+01 -4.949001333E+00 -6.341149944E+01  1.412909912E+02  1.250000000E+02  0.00000E+00  9.000E+00
      21     1     1     2   502   511 -7.189221752E+01 -2.225234332E+01 -3.580730273E+00  7.534241404E+01  1.447178190E-06  0.00000E+00  9.000E+00
#rwgt            1           1   2.8923850565295416E-002           9      186636           0
</event>
<event>
      5   9999  3.79277E-02  1.51757E+02 -1.00000E+00  1.16194E-01
      21    -1     0     0   502   512  0.000000000E+00  0.000000000E+00  3.139936903E+02  3.139936903E+02  0.000000000E+00  0.00000E+00  9.000E+00
      21    -1     0     0   501   502  0.000000000E+00  0.000000000E+00 -3.469888417E+02  3.469888417E+02  0.000000000E+00  0.00000E+00  9.000E+00
      25     1     1     2     0     0  1.629768517E+02 -1.903445439E+02 -1.201129646E+02  3.047041579E+02  1.250000000E+02  0.00000E+00  9.000E+00
      25     1     1     2     0     0 -1.424716250E+02  3.997958591E+01  4.940319177E+01  1.999054941E+02  1.250000000E+02  0.00000E+00  9.000E+00
      21     1     1     2   501   512 -2.050522671E+01  1.503649580E+02  3.771462147E+01  1.563728799E+02  1.430511475E-06  0.00000E+00  9.000E+00
#rwgt            1           1   3.1982157513918662E-002           9      186733           0
</event>
<event>
      5   9999  3.79277E-02  2.02459E+01 -1.00000E+00  1.65932E-01
      21    -1     0     0   511   501  0.000000000E+00  0.000000000E+00  2.698306918E+02  2.698306918E+02  0.000000000E+00  0.00000E+00  9.000E+00
      21    -1     0     0   501   502  0.000000000E+00  0.000000000E+00 -3.984891036E+02  3.984891036E+02  0.000000000E+00  0.00000E+00  9.000E+00
      25     1     1     2     0     0  2.119377380E+02  3.744388178E+01  4.752129584E+01  2.533829565E+02  1.250000000E+02  0.00000E+00  9.000E+00
      25     1     1     2     0     0 -2.220034196E+02 -1.987747517E+01 -2.384121729E+02  3.494939148E+02  1.250000000E+02  0.00000E+00  9.000E+00
      21     1     1     2   511   502  1.006568164E+01 -1.756640660E+01  6.223246515E+01  6.544292404E+01  0.000000000E+00  0.00000E+00  9.000E+00
#rwgt            1           1   3.8548956197242620E-002           9      186779           0
</event>
<event>
      5   9999  3.79277E-02  2.64812E+01 -1.00000E+00  1.56901E-01
      21    -1     0     0   502   501  0.000000000E+00  0.000000000E+00  6.927529159E+01  6.927529159E+01  0.000000000E+00  0.00000E+00  9.000E+00
      21    -1     0     0   512   502  0.000000000E+00  0.000000000E+00 -6.026085646E+02  6.026085646E+02  0.000000000E+00  0.00000E+00  9.000E+00
      25     1     1     2     0     0  3.988259173E+01  1.473908444E+02 -2.841757458E+02  3.459704274E+02  1.250000000E+02  0.00000E+00  9.000E+00
      25     1     1     2     0     0 -4.418133760E+01 -1.212608530E+02 -1.921994503E+02  2.631003872E+02  1.250000000E+02  0.00000E+00  9.000E+00
      21     1     1     2   512   501  4.298745863E+00 -2.612999139E+01 -5.695807695E+01  6.281304161E+01  6.743495762E-07  0.00000E+00  9.000E+00
#rwgt            1           1   3.6998297729017138E-002           9      186988           0
</event>
<event>
      5   9999  3.79277E-02  1.78650E+01 -1.00000E+00  1.70519E-01
      21    -1     0     0   502   511  0.000000000E+00  0.000000000E+00  8.791144174E+02  8.791144174E+02  0.000000000E+00  0.00000E+00  9.000E+00
      21    -1     0     0   501   502  0.000000000E+00  0.000000000E+00 -1.077510185E+02  1.077510185E+02  0.000000000E+00  0.00000E+00  9.000E+00
      25     1     1     2     0     0  2.405524793E+01  2.444963603E+02  3.576029277E+02  4.515107741E+02  1.250000000E+02  0.00000E+00  9.000E+00
      25     1     1     2     0     0 -2.416896122E+01 -2.623609690E+02  2.933935035E+02  4.136691488E+02  1.250000000E+02  0.00000E+00  9.000E+00
      21     1     1     2   501   511  1.137132887E-01  1.786460865E+01  1.203669677E+02  1.216855130E+02  0.000000000E+00  0.00000E+00  9.000E+00
#rwgt            1           1   2.7817412136360176E-002           9      187173           0
</event>
<event>
      5   9999  3.79277E-02  1.06093E+02 -1.00000E+00  1.22684E-01
      21    -1     0     0   502   501  0.000000000E+00  0.000000000E+00  5.322586340E+01  5.322586340E+01  0.000000000E+00  0.00000E+00  9.000E+00
      21    -1     0     0   501   512  0.000000000E+00  0.000000000E+00 -1.458391497E+03  1.458391497E+03  0.000000000E+00  0.00000E+00  9.000E+00
      25     1     1     2     0     0  1.554657445E+02 -1.354366538E+01 -5.729225454E+02  6.068099139E+02  1.250000000E+02  0.00000E+00  9.000E+00
      25     1     1     2     0     0 -1.947898784E+02 -8.499241385E+01 -5.316332941E+02  5.860253975E+02  1.250000000E+02  0.00000E+00  9.000E+00
      21     1     1     2   502   512  3.932413387E+01  9.853607923E+01 -3.006097937E+02  3.187820485E+02  5.394796609E-06  0.00000E+00  9.000E+00
#rwgt            1           1   4.4081702851946500E-002           9      187351           0
</event>
<event>
      5   9999  3.79277E-02  3.55074E+01 -1.00000E+00  1.48124E-01
      21    -1     0     0   502   501  0.000000000E+00  0.000000000E+00  1.034547007E+03  1.034547007E+03  0.000000000E+00  0.00000E+00  9.000E+00
      21    -1     0     0   511   502  0.000000000E+00  0.000000000E+00 -4.347699903E+01  4.347699903E+01  0.000000000E+00  0.00000E+00  9.000E+00
      25     1     1     2     0     0  3.491310228E+01  7.061193822E+01  1.455178819E+02  2.073774927E+02  1.250000000E+02  0.00000E+00  9.000E+00
      25     1     1     2     0     0 -5.265622497E+01 -3.985552029E+01  8.024233415E+02  8.147817864E+02  1.250000000E+02  0.00000E+00  9.000E+00
      21     1     1     2   511   501  1.774312269E+01 -3.075641793E+01  4.312878430E+01  5.586472663E+01  8.259061849E-07  0.00000E+00  9.000E+00
#rwgt            1           1   4.9071554213847381E-002           9      187469           0
</event>
<event>
      5   9999  3.79277E-02  1.64052E+01 -1.00000E+00  1.73797E-01
      21    -1     0     0   502   501  0.000000000E+00  0.000000000E+00  3.244317270E+01  3.244317270E+01  0.000000000E+00  0.00000E+00  9.000E+00
      21    -1     0     0   501   512  0.000000000E+00  0.000000000E+00 -1.409876249E+03  1.409876249E+03  0.000000000E+00  0.00000E+00  9.000E+00
      25     1     1     2     0     0 -1.209909700E+02  2.102955739E+01 -8.269628312E+02  8.453245420E+02  1.250000000E+02  0.00000E+00  9.000E+00
      25     1     1     2     0     0  1.194757566E+02 -4.694478141E+00 -3.023634554E+02  3.483463129E+02  1.250000000E+02  0.00000E+00  9.000E+00
      21     1     1     2   502   512  1.515213317E+00 -1.633507925E+01 -2.481067897E+02  2.486485668E+02  3.814697266E-06  0.00000E+00  9.000E+00
#rwgt            1           1   5.0474354202490697E-002           9      187690           0
</event>
<event>
      5   9999 -3.79277E-02  3.19212E+01 -1.00000E+00  1.51191E-01
      21    -1     0     0   502   511  0.000000000E+00  0.000000000E+00  4.767979903E+01  4.767979903E+01  0.000000000E+00  0.00000E+00  9.000E+00
      21    -1     0     0   501   502  0.000000000E+00  0.000000000E+00 -1.157430562E+03  1.157430562E+03  0.000000000E+00  0.00000E+00  9.000E+00
      25     1     1     2     0     0 -1.428289950E+02  1.912046113E+01 -2.339157536E+02  3.018398477E+02  1.250000000E+02  0.00000E+00  9.000E+00
      25     1     1     2     0     0  1.143995397E+02 -3.363695683E+01 -8.275413578E+02  8.453806234E+02  1.250000000E+02  0.00000E+00  9.000E+00
      21     1     1     2   501   511  2.842945527E+01  1.451649569E+01 -4.829365111E+01  5.788988955E+01  6.743495762E-07  0.00000E+00  9.000E+00
#rwgt            1           1  -1.8397869409955338E-002           9      187881           0
</event>
<event>
      5   9999  3.79277E-02  1.05836E+02 -1.00000E+00  1.22730E-01
      21    -1     0     0   502   512  0.000000000E+00  0.000000000E+00  4.277989545E+02  4.277989545E+02  0.000000000E+00  0.00000E+00  9.000E+00
      21    -1     0     0   501   502  0.000000000E+00  0.000000000E+00 -5.848285198E+02  5.848285198E+02  0.000000000E+00  0.00000E+00  9.000E+00
      25     1     1     2     0     0 -3.039220789E+02  2.590029404E+02 -2.105361255E+02  4.684032593E+02  1.250000000E+02  0.00000E+00  9.000E+00
      25     1     1     2     0     0  2.387680955E+02 -3.424065195E+02  4.238992771E+01  4.378062745E+02  1.250000000E+02  0.00000E+00  9.000E+00
      21     1     1     2   501   512  6.515398333E+01  8.340357905E+01  1.111663252E+01  1.064179405E+02  8.429369702E-07  0.00000E+00  9.000E+00
#rwgt            1           1   2.8700793807342188E-002           9      188032           0
</event>
<event>
      5   9999  3.79277E-02  5.60996E+00 -1.00000E+00  2.30103E-01
      21    -1     0     0   511   501  0.000000000E+00  0.000000000E+00  6.533994348E+01  6.533994348E+01  0.000000000E+00  0.00000E+00  9.000E+00
      21    -1     0     0   501   502  0.000000000E+00  0.000000000E+00 -1.120251013E+03  1.120251013E+03  0.000000000E+00  0.00000E+00  9.000E+00
      25     1     1     2     0     0 -1.259766712E+02  1.894756269E+02 -4.340483483E+02  5.057609154E+02  1.250000000E+02  0.00000E+00  9.000E+00
      25     1     1     2     0     0  1.285294558E+02 -1.844801330E+02 -6.228454923E+02  6.738799951E+02  1.250000000E+02  0.00000E+00  9.000E+00
      21     1     1     2   511   502 -2.552784611E+00 -4.995493898E+00  1.982770968E+00  5.950046157E+00  1.562846971E-07  0.00000E+00  9.000E+00
#rwgt            1           1   4.3835575896615679E-002           9      188207           0
</event>
<event>
      5   9999  3.79277E-02  4.16209E+01 -1.00000E+00  1.43778E-01
      21    -1     0     0   512   501  0.000000000E+00  0.000000000E+00  4.240568756E+01  4.240568756E+01  0.000000000E+00  0.00000E+00  9.000E+00
      21    -1     0     0   501   502  0.000000000E+00  0.000000000E+00 -1.283156588E+03  1.283156588E+03  0.000000000E+00  0.00000E+00  9.000E+00
      25     1     1     2     0     0  6.663341827E+01 -1.076031736E+02 -8.527707333E+02  8.711265000E+02  1.250000000E+02  0.00000E+00  9.000E+00
      25     1     1     2     0     0 -1.080210846E+02  1.032028284E+02 -3.264767265E+02  3.801728968E+02  1.250000000E+02  0.00000E+00  9.000E+00
      21     1     1     2   512   502  4.138766631E+01  4.400345220E+00 -6.150344080E+01  7.426287895E+01  6.743495762E-07  0.00000E+00  9.000E+00
#rwgt            1           1   3.6080826558570554E-002           9      188698           0
</event>
<event>
      5   9999  3.79277E-02  1.67397E+01 -1.00000E+00  1.73009E-01
      21    -1     0     0   502   501  0.000000000E+00  0.000000000E+00  9.539495982E+01  9.539495982E+01  0.000000000E+00  0.00000E+00  9.000E+00
      21    -1     0     0   501   511  0.000000000E+00  0.000000000E+00 -1.253315001E+03  1.253315001E+03  0.000000000E+00  0.00000E+00  9.000E+00
      25     1     1     2     0     0  1.545816613E+02 -2.211486754E+02 -5.853187654E+02  6.565251585E+02  1.250000000E+02  0.00000E+00  9.000E+00
      25     1     1     2     0     0 -1.498027869E+02  2.051055836E+02 -2.768316225E+02  3.959418172E+02  1.250000000E+02  0.00000E+00  9.000E+00
      21     1     1     2   502   511 -4.778874383E+00  1.604309180E+01 -2.957696533E+02  2.962429852E+02  3.814697266E-06  0.00000E+00  9.000E+00
#rwgt            1           1   3.5032490959753540E-002           9      188805           0
</event>
<event>
      5   9999  3.79277E-02  2.56011E+01 -1.00000E+00  1.57982E-01
      21    -1     0     0   502   501  0.000000000E+00  0.000000000E+00  1.143946421E+03  1.143946421E+03  0.000000000E+00  0.00000E+00  9.000E+00
      21    -1     0     0   512   502  0.000000000E+00  0.000000000E+00 -6.755994136E+01  6.755994136E+01  0.000000000E+00  0.00000E+00  9.000E+00
      25     1     1     2     0     0  1.344294352E+02  7.114174595E+01  7.162511197E+02  7.428143022E+02  1.250000000E+02  0.00000E+00  9.000E+00
      25     1     1     2     0     0 -1.257109146E+02 -4.707091004E+01  3.890208187E+02  4.300942943E+02  1.250000000E+02  0.00000E+00  9.000E+00
      21     1     1     2   512   501 -8.718520618E+00 -2.407083592E+01 -2.888545919E+01  3.859776543E+01  1.846782373E-06  0.00000E+00  9.000E+00
#rwgt            1           1   3.9286939961105806E-002           9      189059           0
</event>
<event>
      5   9999  3.79277E-02  1.42998E+02 -1.00000E+00  1.17222E-01
      21    -1     0     0   502   501  0.000000000E+00  0.000000000E+00  8.028498742E+01  8.028498742E+01  0.000000000E+00  0.00000E+00  9.000E+00
      21    -1     0     0   511   502  0.000000000E+00  0.000000000E+00 -1.471918807E+03  1.471918807E+03  0.000000000E+00  0.00000E+00  9.000E+00
      25     1     1     2     0     0 -1.643250576E+01 -1.732137130E+02 -2.690741829E+02  3.439461200E+02  1.250000000E+02  0.00000E+00  9.000E+00
      25     1     1     2     0     0 -1.197482973E+02  1.295875836E+02 -2.806529618E+02  3.542932140E+02  1.250000000E+02  0.00000E+00  9.000E+00
      21     1     1     2   511   501  1.361808030E+02  4.362612944E+01 -8.419066749E+02  8.539644603E+02  0.000000000E+00  0.00000E+00  9.000E+00
#rwgt            1           1   3.7933290579511780E-002           9      189186           0
</event>
<event>
      5   9999  3.79277E-02  1.23732E+01 -1.00000E+00  1.85640E-01
      21    -1     0     0   502   501  0.000000000E+00  0.000000000E+00  1.913756632E+03  1.913756632E+03  0.000000000E+00  0.00000E+00  9.000E+00
      21    -1     0     0   501   512  0.000000000E+00  0.000000000E+00 -2.499332491E+01  2.499332491E+01  0.000000000E+00  0.00000E+00  9.000E+00
      25     1     1     2     0     0 -9.621591480E+01  5.576379906E+01  1.430913034E+03  1.440661034E+03  1.250000000E+02  0.00000E+00  9.000E+00
      25     1     1     2     0     0  9.136901616E+01 -4.437941920E+01  4.582263257E+02  4.857099912E+02  1.250000000E+02  0.00000E+00  9.000E+00
      21     1     1     2   502   512  4.846898638E+00 -1.138437986E+01 -3.760529329E-01  1.237893158E+01  4.700956212E-07  0.00000E+00  9.000E+00
#rwgt            1           1  0.22898454889725001                9      189274           0
</event>
<event>
      5   9999  3.79277E-02  3.09566E+01  7.55638E-03  1.52099E-01
       2    -1     0     0   501     0  0.000000000E+00  0.000000000E+00  1.833061940E+03  1.833061940E+03  0.000000000E+00  0.00000E+00  9.000E+00
      -2    -1     0     0     0   502  0.000000000E+00  0.000000000E+00 -6.878526377E+01  6.878526377E+01  0.000000000E+00  0.00000E+00  9.000E+00
      25     1     1     2     0     0  3.017647652E+01 -2.227766812E+02  5.918001512E+02  6.452848119E+02  1.250000000E+02  0.00000E+00  9.000E+00
      25     1     1     2     0     0 -5.591006078E+01  2.055692412E+02  1.193727231E+03  1.219013679E+03  1.250000000E+02  0.00000E+00  9.000E+00
      21     1     1     2   501   502  2.573358426E+01  1.720744004E+01 -2.125070578E+01  3.754871300E+01  1.545128989E-06  0.00000E+00  9.000E+00
#rwgt            3           7   2.8603718979582129E-005           9      189466           0
</event>
<event>
      5   9999  3.79277E-02  9.66442E+01 -1.00000E+00  1.24498E-01
      21    -1     0     0   511   501  0.000000000E+00  0.000000000E+00  2.594985372E+03  2.594985372E+03  0.000000000E+00  0.00000E+00  9.000E+00
      21    -1     0     0   501   502  0.000000000E+00  0.000000000E+00 -6.290575778E+01  6.290575778E+01  0.000000000E+00  0.00000E+00  9.000E+00
      25     1     1     2     0     0 -1.895840565E+02  8.256337380E+01  3.367888137E+02  4.145003380E+02  1.250000000E+02  0.00000E+00  9.000E+00
      25     1     1     2     0     0  1.789339218E+02  1.349219790E+01  5.047294985E+02  5.500693179E+02  1.250000000E+02  0.00000E+00  9.000E+00
      21     1     1     2   511   502  1.065013467E+01 -9.605557170E+01  1.690561302E+03  1.693321474E+03  0.000000000E+00  0.00000E+00  9.000E+00
#rwgt            1           1   4.0946865536850278E-002           9      189485           0
</event>
<event>
      5   9999  3.79277E-02  2.88118E+01 -1.00000E+00  1.54269E-01
      21    -1     0     0   502   501  0.000000000E+00  0.000000000E+00  3.758918155E+02  3.758918155E+02  0.000000000E+00  0.00000E+00  9.000E+00
      21    -1     0     0   501   512  0.000000000E+00  0.000000000E+00 -1.668838636E+02  1.668838636E+02  0.000000000E+00  0.00000E+00  9.000E+00
      25     1     1     2     0     0 -1.146317051E+01  4.304629052E+01  3.130099761E+02  3.399774000E+02  1.250000000E+02  0.00000E+00  9.000E+00
      25     1     1     2     0     0  2.652684140E+01 -1.848605430E+01 -4.429088505E+01  1.364994140E+02  1.250000000E+02  0.00000E+00  9.000E+00
      21     1     1     2   502   512 -1.506367090E+01 -2.456023622E+01 -5.971113908E+01  6.629886511E+01  6.743495762E-07  0.00000E+00  9.000E+00
#rwgt            1           1   3.8684563618263064E-002           9      189584           0
</event>
<event>
      5   9999  3.79277E-02  5.11676E+01 -1.00000E+00  1.38506E-01
      21    -1     0     0   502   501  0.000000000E+00  0.000000000E+00  1.709923423E+02  1.709923423E+02  0.000000000E+00  0.00000E+00  9.000E+00
      21    -1     0     0   511   502  0.000000000E+00  0.000000000E+00 -4.344661822E+02  4.344661822E+02  0.000000000E+00  0.00000E+00  9.000E+00
      25     1     1     2     0     0 -3.907508547E+00 -2.337299786E+02 -1.013507231E+02  2.837991201E+02  1.250000000E+02  0.00000E+00  9.000E+00
      25     1     1     2     0     0  2.548233531E+01  1.873333233E+02 -1.326702210E+02  2.626204694E+02  1.250000000E+02  0.00000E+00  9.000E+00
      21     1     1     2   511   501 -2.157482676E+01  4.639665528E+01 -2.945289579E+01  5.903893496E+01  9.536743164E-07  0.00000E+00  9.000E+00
#rwgt            1           1   4.1237546742621436E-002           9      189824           0
</event>
<event>
      5   9999  3.79277E-02  3.11425E+01 -1.00000E+00  1.51921E-01
      21    -1     0     0   502   512  0.000000000E+00  0.000000000E+00  2.526772312E+02  2.526772312E+02  0.000000000E+00  0.00000E+00  9.000E+00
      21    -1     0     0   501   502  0.000000000E+00  0.000000000E+00 -3.341191365E+02  3.341191365E+02  0.000000000E+00  0.00000E+00  9.000E+00
      25     1     1     2     0     0 -1.253487408E+01 -1.286373433E+02  1.604117511E+02  2.409597872E+02  1.250000000E+02  0.00000E+00  9.000E+00
      25     1     1     2     0     0  1.182474796E+01  1.597717008E+02 -2.402378148E+02  3.146522345E+02  1.250000000E+02  0.00000E+00  9.000E+00
      21     1     1     2   501   512  7.101261230E-01 -3.113435743E+01 -1.615841595E+00  3.118434600E+01  4.573467151E-07  0.00000E+00  9.000E+00
#rwgt            1           1   4.4928904241243149E-002           9      189947           0
</event>
<event>
      5   9999  3.79277E-02  3.94861E+01 -1.00000E+00  1.45189E-01
      21    -1     0     0   502   501  0.000000000E+00  0.000000000E+00  1.963224263E+02  1.963224263E+02  0.000000000E+00  0.00000E+00  9.000E+00
      21    -1     0     0   511   502  0.000000000E+00  0.000000000E+00 -4.632439001E+02  4.632439001E+02  0.000000000E+00  0.00000E+00  9.000E+00
      25     1     1     2     0     0  5.856444299E+01  1.346749335E+02 -3.690673835E+01  1.963523339E+02  1.250000000E+02  0.00000E+00  9.000E+00
      25     1     1     2     0     0 -8.088987198E+01 -1.021060726E+02  4.444541374E+01  1.859279867E+02  1.250000000E+02  0.00000E+00  9.000E+00
      21     1     1     2   511   501  2.232542899E+01 -3.256886088E+01 -2.744601492E+02  2.772860057E+02  3.814697266E-06  0.00000E+00  9.000E+00
#rwgt            1           1   4.2806848847114373E-002           9      190073           0
</event>
<event>
      5   9999  3.79277E-02  2.05080E+01 -1.00000E+00  1.65475E-01
      21    -1     0     0   502   501  0.000000000E+00  0.000000000E+00  7.336756488E+02  7.336756488E+02  0.000000000E+00  0.00000E+00  9.000E+00
      21    -1     0     0   501   512  0.000000000E+00  0.000000000E+00 -8.869986911E+01  8.869986911E+01  0.000000000E+00  0.00000E+00  9.000E+00
      25     1     1     2     0     0 -6.399207974E+01 -8.523251045E+01  3.523822331E+01  1.680068436E+02  1.250000000E+02  0.00000E+00  9.000E+00
      25     1     1     2     0     0  7.342169627E+01  1.034440293E+02  6.082736403E+02  6.338085154E+02  1.250000000E+02  0.00000E+00  9.000E+00
      21     1     1     2   502   512 -9.429616527E+00 -1.821151882E+01  1.463916067E+00  2.056015894E+01  5.511415603E-07  0.00000E+00  9.000E+00
#rwgt            1           1   5.0379164500613145E-002           9      190184           0
</event>
<event>
      5   9999  3.79277E-02  1.97759E+01 -1.00000E+00  1.66774E-01
      21    -1     0     0   502   501  0.000000000E+00  0.000000000E+00  1.412711769E+03  1.412711769E+03  0.000000000E+00  0.00000E+00  9.000E+00
      21    -1     0     0   501   511  0.000000000E+00  0.000000000E+00 -3.917141394E+01  3.917141394E+01  0.000000000E+00  0.00000E+00  9.000E+00
      25     1     1     2     0     0  1.612239716E+02 -8.051014747E+01  7.314379321E+02  7.636108311E+02  1.250000000E+02  0.00000E+00  9.000E+00
      25     1     1     2     0     0 -1.622265689E+02  1.002606447E+02  5.940417949E+02  6.363020593E+02  1.250000000E+02  0.00000E+00  9.000E+00
      21     1     1     2   502   511  1.002597274E+00 -1.975049725E+01  4.806062821E+01  5.197029273E+01  0.000000000E+00  0.00000E+00  9.000E+00
#rwgt            1           1   3.9375753183636050E-002           9      190349           0
</event>
<event>
      5   9999  3.79277E-02  8.59949E+01 -1.00000E+00  1.26849E-01
      21    -1     0     0   512   501  0.000000000E+00  0.000000000E+00  3.284591674E+02  3.284591674E+02  0.000000000E+00  0.00000E+00  9.000E+00
      21    -1     0     0   501   502  0.000000000E+00  0.000000000E+00 -2.455137968E+02  2.455137968E+02  0.000000000E+00  0.00000E+00  9.000E+00
      25     1     1     2     0     0 -1.944505580E+02  1.464442548E+02  3.073231812E+01  2.753659649E+02  1.250000000E+02  0.00000E+00  9.000E+00
      25     1     1     2     0     0  1.467103818E+02 -7.491807985E+01  2.438555742E+01  2.082217814E+02  1.250000000E+02  0.00000E+00  9.000E+00
      21     1     1     2   512   502  4.774017620E+01 -7.152617495E+01  2.782749514E+01  9.038521789E+01  1.390207266E-06  0.00000E+00  9.000E+00
#rwgt            1           1   3.2038610374175082E-002           9      190474           0
</event>
<event>
      5   9999  3.79277E-02  9.20547E+01 -1.00000E+00  1.25467E-01
      21    -1     0     0   502   501  0.000000000E+00  0.000000000E+00  3.052475128E+03  3.052475128E+03  0.000000000E+00  0.00000E+00  9.000E+00
      21    -1     0     0   501   511  0.000000000E+00  0.000000000E+00 -1.069093694E+02  1.069093694E+02  0.000000000E+00  0.00000E+00  9.000E+00
      25     1     1     2     0     0  1.930834393E+02  4.239993238E+01  2.013897533E+03  2.027433659E+03  1.250000000E+02  0.00000E+00  9.000E+00
      25     1     1     2     0     0 -1.010758720E+02 -3.945304455E+01  1.002328475E+03  1.015903660E+03  1.250000000E+02  0.00000E+00  9.000E+00
      21     1     1     2   502   511 -9.200756728E+01 -2.946887839E+00 -7.066024974E+01  1.160471778E+02  4.955437110E-06  0.00000E+00  9.000E+00
#rwgt            1           1   2.1866243325752741E-002           9      190608           0
</event>
<event>
      5   9999  3.79277E-02  1.16698E+01 -1.00000E+00  1.88311E-01
      -4    -1     0     0     0   501  0.000000000E+00  0.000000000E+00  1.431928784E+02  1.431928784E+02  0.000000000E+00  0.00000E+00  9.000E+00
      21    -1     0     0   501   502  0.000000000E+00  0.000000000E+00 -4.187392019E+02  4.187392019E+02  0.000000000E+00  0.00000E+00  9.000E+00
      25     1     1     2     0     0 -1.158906200E+02  1.282920052E+02 -1.988200812E+02  2.916228714E+02  1.250000000E+02  0.00000E+00  9.000E+00
      25     1     1     2     0     0  1.265383283E+02 -1.330681453E+02 -1.005103908E+02  2.438163622E+02  1.250000000E+02  0.00000E+00  9.000E+00
      -4     1     1     2     0   502 -1.064770829E+01  4.776140089E+00  2.378414847E+01  2.649284666E+01  5.840038640E-07  0.00000E+00  9.000E+00
#rwgt            1           1   2.8467186799433077E-002           9      190692           0
</event>
<event>
      5   9999  3.79277E-02  4.15811E+01 -1.00000E+00  1.43804E-01
      21    -1     0     0   502   501  0.000000000E+00  0.000000000E+00  1.105482722E+02  1.105482722E+02  0.000000000E+00  0.00000E+00  9.000E+00
      21    -1     0     0   511   502  0.000000000E+00  0.000000000E+00 -4.494812190E+02  4.494812190E+02  0.000000000E+00  0.00000E+00  9.000E+00
      25     1     1     2     0     0 -2.248551479E+01 -8.433108249E+01  2.538154008E+01  1.545527497E+02  1.250000000E+02  0.00000E+00  9.000E+00
      25     1     1     2     0     0  2.387340371E+01  4.277312941E+01 -2.488896232E+02  2.827906019E+02  1.250000000E+02  0.00000E+00  9.000E+00
      21     1     1     2   511   501 -1.387888918E+00  4.155795307E+01 -1.154248638E+02  1.226861397E+02  1.348699152E-06  0.00000E+00  9.000E+00
#rwgt            1           1   5.1380495593124173E-002           9      190927           0
</event>
<event>
      5   9999  3.79277E-02  3.91753E+01 -1.00000E+00  1.45404E-01
      21    -1     0     0   502   512  0.000000000E+00  0.000000000E+00  9.665918909E+02  9.665918909E+02  0.000000000E+00  0.00000E+00  9.000E+00
      21    -1     0     0   501   502  0.000000000E+00  0.000000000E+00 -1.703247507E+02  1.703247507E+02  0.000000000E+00  0.00000E+00  9.000E+00
      25     1     1     2     0     0 -9.573693403E+01 -2.737162680E+02  1.296952890E+02  3.413678718E+02  1.250000000E+02  0.00000E+00  9.000E+00
      25     1     1     2     0     0  9.668771861E+01  2.345525415E+02  2.510147556E+02  3.781491997E+02  1.250000000E+02  0.00000E+00  9.000E+00
      21     1     1     2   501   512 -9.507845833E-01  3.916372654E+01  4.155570956E+02  4.173995701E+02  7.629394531E-06  0.00000E+00  9.000E+00
#rwgt            1           1   3.0386391834425819E-002           9      191015           0
</event>
<event>
      5   9999  3.79277E-02  6.19371E+01 -1.00000E+00  1.33970E-01
      21    -1     0     0   502   501  0.000000000E+00  0.000000000E+00  3.611137916E+02  3.611137916E+02  0.000000000E+00  0.00000E+00  9.000E+00
      21    -1     0     0   511   502  0.000000000E+00  0.000000000E+00 -1.062937913E+02  1.062937913E+02  0.000000000E+00  0.00000E+00  9.000E+00
      25     1     1     2     0     0  7.157919870E+01  1.012993925E+01  3.792277768E+01  1.492961300E+02  1.250000000E+02  0.00000E+00  9.000E+00
      25     1     1     2     0     0 -8.883590760E+01  4.935461641E+01  1.937849272E+02  2.520025688E+02  1.250000000E+02  0.00000E+00  9.000E+00
      21     1     1     2   511   501  1.725670890E+01 -5.948455566E+01  2.311229541E+01  6.610888414E+01  5.840038640E-07  0.00000E+00  9.000E+00
#rwgt            1           1   3.9366962288536603E-002           9      191132           0
</event>
<event>
      5   9999  3.79277E-02  1.10089E+02 -1.00000E+00  1.21979E-01
      21    -1     0     0   512   501  0.000000000E+00  0.000000000E+00  1.770129033E+02  1.770129033E+02  0.000000000E+00  0.00000E+00  9.000E+00
      21    -1     0     0   501   502  0.000000000E+00  0.000000000E+00 -2.973724205E+03  2.973724205E+03  0.000000000E+00  0.00000E+00  9.000E+00
      25     1     1     2     0     0  2.468928833E+02 -6.752953023E+01 -2.590747590E+03  2.606360375E+03  1.250000000E+02  0.00000E+00  9.000E+00
      25     1     1     2     0     0 -3.541400506E+02  4.267567557E+01 -9.863832414E+01  3.906288619E+02  1.250000000E+02  0.00000E+00  9.000E+00
      21     1     1     2   512   502  1.072471673E+02  2.485385465E+01 -1.073253882E+02  1.537478713E+02  2.336015456E-06  0.00000E+00  9.000E+00
#rwgt            1           1   4.6540648911388045E-002           9      191261           0
</event>
<event>
      5   9999  3.79277E-02  4.85682E+00 -1.00000E+00  2.45070E-01
      21    -1     0     0   502   501  0.000000000E+00  0.000000000E+00  5.045599260E+02  5.045599260E+02  0.000000000E+00  0.00000E+00  9.000E+00
      21    -1     0     0   501   511  0.000000000E+00  0.000000000E+00 -1.510370032E+02  1.510370032E+02  0.000000000E+00  0.00000E+00  9.000E+00
      25     1     1     2     0     0 -3.398794214E+01  3.737734021E+01  4.015347653E+02  4.235651231E+02  1.250000000E+02  0.00000E+00  9.000E+00
      25     1     1     2     0     0  3.844472858E+01 -3.544710700E+01  4.202450301E+01  1.418645601E+02  1.250000000E+02  0.00000E+00  9.000E+00
      21     1     1     2   502   511 -4.456786443E+00 -1.930233217E+00 -9.003634549E+01  9.016724602E+01  1.651812370E-06  0.00000E+00  9.000E+00
#rwgt            2          11   3.3623355204910328E-004           9      191549           0
</event>
<event>
      5   9999 -3.79277E-02  8.15401E+01 -1.00000E+00  1.27950E-01
       2    -1     0     0   502     0  0.000000000E+00  0.000000000E+00  4.867512075E+02  4.867512075E+02  0.000000000E+00  0.00000E+00  9.000E+00
      21    -1     0     0   501   502  0.000000000E+00  0.000000000E+00 -5.594038597E+02  5.594038597E+02  0.000000000E+00  0.00000E+00  9.000E+00
      25     1     1     2     0     0 -1.099129929E+02  5.943207781E+01 -2.558703878E+02  3.109786057E+02  1.250000000E+02  0.00000E+00  9.000E+00
      25     1     1     2     0     0  1.077963712E+02  2.208056380E+01 -2.466711870E+02  2.976227200E+02  1.250000000E+02  0.00000E+00  9.000E+00
       2     1     1     2   501     0  2.116621626E+00 -8.151264162E+01  4.298889227E+02  4.375537414E+02  0.000000000E+00  0.00000E+00  9.000E+00
#rwgt            1           1  -3.6523482287167397E-002           9      191689           0
</event>
<event>
      5   9999  4.28956E-02  2.04695E+01 -1.00000E+00  1.65542E-01
      21    -1     0     0   511   501  0.000000000E+00  0.000000000E+00  4.134168937E+02  4.134168937E+02  0.000000000E+00  0.00000E+00  9.000E+00
      21    -1     0     0   501   502  0.000000000E+00  0.000000000E+00 -3.796575885E+02  3.796575885E+02  0.000000000E+00  0.00000E+00  9.000E+00
      25     1     1     2     0     0 -7.060879979E+01 -2.867515007E+02  3.733127356E+01  3.228477192E+02  1.250000000E+02  0.00000E+00  9.000E+00
      25     1     1     2     0     0  8.960447347E+01  2.791249045E+02 -1.285070844E+02  3.436258791E+02  1.250000000E+02  0.00000E+00  9.000E+00
      21     1     1     2   511   502 -1.899567368E+01  7.626596178E+00  1.249351161E+02  1.266008840E+02  1.348699152E-06  0.00000E+00  9.000E+00
#rwgt            1           1  0.31389066010790634                9      191795           0
</event>
<event>
      5   9999  3.79277E-02  8.80651E+01 -1.00000E+00  1.26362E-01
      21    -1     0     0   502   501  0.000000000E+00  0.000000000E+00  1.158300547E+02  1.158300547E+02  0.000000000E+00  0.00000E+00  9.000E+00
      21    -1     0     0   501   512  0.000000000E+00  0.000000000E+00 -7.835804814E+02  7.835804814E+02  0.000000000E+00  0.00000E+00  9.000E+00
      25     1     1     2     0     0 -2.626887269E+01 -1.805502405E+02 -1.398919652E+02  2.616929593E+02  1.250000000E+02  0.00000E+00  9.000E+00
      25     1     1     2     0     0 -5.488676205E+01  2.147442640E+02 -2.997248603E+02  3.931763567E+02  1.250000000E+02  0.00000E+00  9.000E+00
      21     1     1     2   502   512  8.115563474E+01 -3.419402352E+01 -2.281336013E+02  2.445412201E+02  4.672030912E-06  0.00000E+00  9.000E+00
#rwgt            1           1   3.9299251722805682E-003           9      192109           0
</event>
<event>
      5   9999  3.79277E-02  5.62691E+01 -1.00000E+00  1.36210E-01
      21    -1     0     0   502   511  0.000000000E+00  0.000000000E+00  2.654977968E+02  2.654977968E+02  0.000000000E+00  0.00000E+00  9.000E+00
      21    -1     0     0   501   502  0.000000000E+00  0.000000000E+00 -2.089875367E+02  2.089875367E+02  0.000000000E+00  0.00000E+00  9.000E+00
      25     1     1     2     0     0  3.999039051E+01 -1.567198741E+02 -1.434203227E+01  2.049171641E+02  1.250000000E+02  0.00000E+00  9.000E+00
      25     1     1     2     0     0  4.954566503E+00  1.228648394E+02 -4.649233145E+00  1.754050509E+02  1.250000000E+02  0.00000E+00  9.000E+00
      21     1     1     2   501   511 -4.494495702E+01  3.385503464E+01  7.550152551E+01  9.416311851E+01  9.536743164E-07  0.00000E+00  9.000E+00
#rwgt            1           1   4.0308094030777855E-002           9      192189           0
</event>
<event>
      5   9999  3.79277E-02  1.17804E+02 -1.00000E+00  1.20710E-01
      21    -1     0     0   502   501  0.000000000E+00  0.000000000E+00  2.082193332E+02  2.082193332E+02  0.000000000E+00  0.00000E+00  9.000E+00
      21    -1     0     0   501   512  0.000000000E+00  0.000000000E+00 -1.049974986E+03  1.049974986E+03  0.000000000E+00  0.00000E+00  9.000E+00
      25     1     1     2     0     0 -2.449623401E+02  5.958132688E+01 -2.101739787E+01  2.821758558E+02  1.250000000E+02  0.00000E+00  9.000E+00
      25     1     1     2     0     0  1.947943095E+02  4.700665611E+01 -1.190034235E+02  2.644641063E+02  1.250000000E+02  0.00000E+00  9.000E+00
      21     1     1     2   502   512  5.016803064E+01 -1.065879830E+02 -7.017348317E+02  7.115543574E+02  7.629394531E-06  0.00000E+00  9.000E+00
#rwgt            1           1   4.0241277108367161E-002           9      192294           0
</event>
<event>
      5   9999  3.79277E-02  4.98237E+01 -1.00000E+00  1.39163E-01
      21    -1     0     0   511   501  0.000000000E+00  0.000000000E+00  9.629773700E+02  9.629773700E+02  0.000000000E+00  0.00000E+00  9.000E+00
      21    -1     0     0   501   502  0.000000000E+00  0.000000000E+00 -1.621439916E+02  1.621439916E+02  0.000000000E+00  0.00000E+00  9.000E+00
      25     1     1     2     0     0  7.638960612E+01  9.609708227E+01 -8.621843322E+01  1.952655612E+02  1.250000000E+02  0.00000E+00  9.000E+00
      25     1     1     2     0     0 -2.961497862E+01 -7.893504560E+01  2.579381244E+02  2.987722618E+02  1.250000000E+02  0.00000E+00  9.000E+00
      21     1     1     2   511   502 -4.677462750E+01 -1.716203667E+01  6.291136872E+02  6.310835386E+02  7.629394531E-06  0.00000E+00  9.000E+00
#rwgt            1           1   3.5546286144445403E-002           9      192514           0
</event>
<event>
      5   9999  3.79277E-02  8.92601E+01 -1.00000E+00  1.26089E-01
      21    -1     0     0   502   501  0.000000000E+00  0.000000000E+00  2.011485674E+02  2.011485674E+02  0.000000000E+00  0.00000E+00  9.000E+00
      21    -1     0     0   501   512  0.000000000E+00  0.000000000E+00 -6.801537731E+02  6.801537731E+02  0.000000000E+00  0.00000E+00  9.000E+00
      25     1     1     2     0     0 -2.156705663E+02  2.148024062E+01  5.476044011E+01  2.561228216E+02  1.250000000E+02  0.00000E+00  9.000E+00
      25     1     1     2     0     0  1.583172930E+02  4.691543174E+01 -2.343704919E+02  3.127618111E+02  1.250000000E+02  0.00000E+00  9.000E+00
      21     1     1     2   502   512  5.735327330E+01 -6.839567236E+01 -2.993951539E+02  3.124177078E+02  6.607249480E-06  0.00000E+00  9.000E+00
#rwgt            1           1   4.0809963440159878E-002           9      192606           0
</event>
<event>
      5   9999  3.79277E-02  4.06902E+01 -1.00000E+00  1.44381E-01
      21    -1     0     0   502   501  0.000000000E+00  0.000000000E+00  7.263946902E+02  7.263946902E+02  0.000000000E+00  0.00000E+00  9.000E+00
      21    -1     0     0   511   502  0.000000000E+00  0.000000000E+00 -1.508554127E+02  1.508554127E+02  0.000000000E+00  0.00000E+00  9.000E+00
      25     1     1     2     0     0  1.727199667E+02  3.249897354E+00  1.008291447E+02  2.358691696E+02  1.250000000E+02  0.00000E+00  9.000E+00
      25     1     1     2     0     0 -1.327410705E+02 -1.082495060E+01  5.368681447E+02  5.670888608E+02  1.250000000E+02  0.00000E+00  9.000E+00
      21     1     1     2   511   501 -3.997889626E+01  7.575053250E+00 -6.215801192E+01  7.429207242E+01  1.784161275E-06  0.00000E+00  9.000E+00
#rwgt            1           1   4.4498712983891929E-002           9      192704           0
</event>
<event>
      5   9999  3.79277E-02  3.60942E+01 -1.00000E+00  1.47663E-01
      21    -1     0     0   512   501  0.000000000E+00  0.000000000E+00  2.431018656E+02  2.431018656E+02  0.000000000E+00  0.00000E+00  9.000E+00
      21    -1     0     0   501   502  0.000000000E+00  0.000000000E+00 -6.955247262E+02  6.955247262E+02  0.000000000E+00  0.00000E+00  9.000E+00
      25     1     1     2     0     0  8.837324376E+01  4.898743548E+01  1.682864747E+02  2.327121325E+02  1.250000000E+02  0.00000E+00  9.000E+00
      25     1     1     2     0     0 -1.242523697E+02 -4.505305960E+01 -6.397459876E+02  6.651077794E+02  1.250000000E+02  0.00000E+00  9.000E+00
      21     1     1     2   512   502  3.587912589E+01 -3.934375877E+00  1.903665232E+01  4.080667984E+01  1.011524364E-06  0.00000E+00  9.000E+00
#rwgt            1           1   2.9109303935931648E-002           9      192921           0
</event>
<event>
      5   9999  3.79277E-02  3.71130E+01 -1.00000E+00  1.46887E-01
      21    -1     0     0   502   501  0.000000000E+00  0.000000000E+00  3.738648060E+02  3.738648060E+02  0.000000000E+00  0.00000E+00  9.000E+00
      21    -1     0     0   501   511  0.000000000E+00  0.000000000E+00 -2.498110187E+02  2.498110187E+02  0.000000000E+00  0.00000E+00  9.000E+00
      25     1     1     2     0     0  2.001672248E+02 -1.605531170E+02  1.027164344E+01  2.856128988E+02  1.250000000E+02  0.00000E+00  9.000E+00
      25     1     1     2     0     0 -2.029838458E+02  1.235471810E+02  1.290877453E+02  2.979177631E+02  1.250000000E+02  0.00000E+00  9.000E+00
      21     1     1     2   502   511  2.816620968E+00  3.700593605E+01 -1.530560152E+01  4.014516278E+01  3.371747881E-07  0.00000E+00  9.000E+00
#rwgt            1           1   4.5363416367761276E-002           9      193141           0
</event>
<event>
      5   9999  3.79277E-02  3.38305E+02 -1.00000E+00  1.03924E-01
      21    -1     0     0   502   501  0.000000000E+00  0.000000000E+00  4.305143307E+02  4.305143307E+02  0.000000000E+00  0.00000E+00  9.000E+00
      21    -1     0     0   512   502  0.000000000E+00  0.000000000E+00 -6.444677687E+02  6.444677687E+02  0.000000000E+00  0.00000E+00  9.000E+00
      25     1     1     2     0     0  1.034512921E+02 -3.762115504E+01 -2.412057085E+02  2.931257665E+02  1.250000000E+02  0.00000E+00  9.000E+00
      25     1     1     2     0     0 -1.207585359E+01  3.633525693E+02  1.626875716E+02  4.174483942E+02  1.250000000E+02  0.00000E+00  9.000E+00
      21     1     1     2   512   501 -9.137543852E+01 -3.257314143E+02 -1.354353010E+02  3.644079387E+02  3.814697266E-06  0.00000E+00  9.000E+00
#rwgt            1           1   5.3217940579184386E-002           9      193424           0
</event>
<event>
      5   9999  3.79277E-02  7.18289E+01 -1.00000E+00  1.30656E-01
      21    -1     0     0   502   511  0.000000000E+00  0.000000000E+00  8.070862593E+02  8.070862593E+02  0.000000000E+00  0.00000E+00  9.000E+00
      21    -1     0     0   501   502  0.000000000E+00  0.000000000E+00 -7.323984013E+01  7.323984013E+01  0.000000000E+00  0.00000E+00  9.000E+00
      25     1     1     2     0     0 -1.296593429E+02  2.769562575E+01  2.513675626E+02  3.104661727E+02  1.250000000E+02  0.00000E+00  9.000E+00
      25     1     1     2     0     0  1.764785930E+02 -8.216903031E+01  3.631355721E+02  4.305680981E+02  1.250000000E+02  0.00000E+00  9.000E+00
      21     1     1     2   501   511 -4.681925005E+01  5.447340457E+01  1.193432844E+02  1.392918286E+02  3.568322551E-06  0.00000E+00  9.000E+00
#rwgt            1           1   3.4754347584366484E-002           9      193494           0
</event>
<event>
      5   9999  3.79277E-02  1.37433E+02 -1.00000E+00  1.17920E-01
      21    -1     0     0   502   501  0.000000000E+00  0.000000000E+00  1.810496707E+03  1.810496707E+03  0.000000000E+00  0.00000E+00  9.000E+00
       2    -1     0     0   501     0  0.000000000E+00  0.000000000E+00 -9.311778188E+01  9.311778188E+01  0.000000000E+00  0.00000E+00  9.000E+00
      25     1     1     2     0     0  8.441820164E+01 -1.419503673E+01  1.350909907E+03  1.359378721E+03  1.250000000E+02  0.00000E+00  9.000E+00
      25     1     1     2     0     0  2.343740110E+01  9.937151236E+01  3.732345213E+02  4.066362221E+02  1.250000000E+02  0.00000E+00  9.000E+00
       2     1     1     2   502     0 -1.078556027E+02 -8.517647564E+01 -6.765502347E+00  1.375995460E+02  4.318766816E-06  0.00000E+00  9.000E+00
#rwgt            1           1   4.3880586446672240E-002           9      193627           0
</event>
<event>
      5   9999  3.79277E-02  5.00894E+01 -1.00000E+00  1.39031E-01
      21    -1     0     0   511   501  0.000000000E+00  0.000000000E+00  6.928812654E+02  6.928812654E+02  0.000000000E+00  0.00000E+00  9.000E+00
      21    -1     0     0   501   502  0.000000000E+00  0.000000000E+00 -8.250602532E+01  8.250602532E+01  0.000000000E+00  0.00000E+00  9.000E+00
      25     1     1     2     0     0  1.421042061E+02  1.109414254E+01  3.012581863E+02  3.559468784E+02  1.250000000E+02  0.00000E+00  9.000E+00
      25     1     1     2     0     0 -1.909822536E+02 -1.451003311E-01  2.189154442E+02  3.162644684E+02  1.250000000E+02  0.00000E+00  9.000E+00
      21     1     1     2   511   502  4.887804748E+01 -1.094904221E+01  9.020160961E+01  1.031759440E+02  2.132480600E-06  0.00000E+00  9.000E+00
#rwgt            1           1   4.2512069564851464E-002           9      193752           0
</event>
<event>
      5   9999  3.79277E-02  3.94949E+01 -1.00000E+00  1.45183E-01
      21    -1     0     0   502   501  0.000000000E+00  0.000000000E+00  4.586121671E+01  4.586121671E+01  0.000000000E+00  0.00000E+00  9.000E+00
       2    -1     0     0   501     0  0.000000000E+00  0.000000000E+00 -1.600097857E+03  1.600097857E+03  0.000000000E+00  0.00000E+00  9.000E+00
      25     1     1     2     0     0 -3.003540395E+00  1.358422649E+02 -3.414007121E+02  3.881257378E+02  1.250000000E+02  0.00000E+00  9.000E+00
      25     1     1     2     0     0 -3.411839870E+01 -1.493257850E+02 -4.220487720E+02  4.660605338E+02  1.250000000E+02  0.00000E+00  9.000E+00
       2     1     1     2   502     0  3.712193910E+01  1.348352011E+01 -7.907871564E+02  7.917728022E+02  1.525878906E-05  0.00000E+00  9.000E+00
#rwgt            1           1   3.9659100121943958E-002           9      193828           0
</event>
<event>
      5   9999  3.79277E-02  1.65516E+01 -1.00000E+00  1.73449E-01
      21    -1     0     0   511   501  0.000000000E+00  0.000000000E+00  1.421203560E+03  1.421203560E+03  0.000000000E+00  0.00000E+00  9.000E+00
      21    -1     0     0   501   502  0.000000000E+00  0.000000000E+00 -3.037977023E+01  3.037977023E+01  0.000000000E+00  0.00000E+00  9.000E+00
      25     1     1     2     0     0  1.444957242E+01 -1.487769684E+02  6.841179926E+02  7.113267915E+02  1.250000000E+02  0.00000E+00  9.000E+00
      25     1     1     2     0     0 -3.053128107E+01  1.526929121E+02  6.020503977E+02  6.343003752E+02  1.250000000E+02  0.00000E+00  9.000E+00
      21     1     1     2   511   502  1.608170865E+01 -3.915943714E+00  1.046553992E+02  1.059561633E+02  0.000000000E+00  0.00000E+00  9.000E+00
#rwgt            1           1   2.8297547891180902E-003           9      193965           0
</event>
<event>
      5   9999  3.79277E-02  8.41479E+00 -1.00000E+00  2.04841E-01
      21    -1     0     0   502   512  0.000000000E+00  0.000000000E+00  1.914302528E+02  1.914302528E+02  0.000000000E+00  0.00000E+00  9.000E+00
      21    -1     0     0   501   502  0.000000000E+00  0.000000000E+00 -3.201531560E+02  3.201531560E+02  0.000000000E+00  0.00000E+00  9.000E+00
      25     1     1     2     0     0  7.864818553E+01 -1.863792536E+02 -8.733823809E+01  2.533292938E+02  1.250000000E+02  0.00000E+00  9.000E+00
      25     1     1     2     0     0 -7.447161742E+01  1.936843857E+02 -4.870968276E+01  2.470977464E+02  1.250000000E+02  0.00000E+00  9.000E+00
      21     1     1     2   501   512 -4.176568107E+00 -7.305132088E+00  7.325017708E+00  1.115636860E+01  1.460009660E-07  0.00000E+00  9.000E+00
#rwgt            1           1   4.1922117294920277E-002           9      194226           0
</event>
<event>
      5   9999  3.79277E-02  4.24798E+01 -1.00000E+00  1.43238E-01
       2    -1     0     0   502     0  0.000000000E+00  0.000000000E+00  5.834690690E+02  5.834690690E+02  0.000000000E+00  0.00000E+00  9.000E+00
      21    -1     0     0   501   502  0.000000000E+00  0.000000000E+00 -5.254965539E+02  5.254965539E+02  0.000000000E+00  0.00000E+00  9.000E+00
      25     1     1     2     0     0 -1.205832743E+02  6.052725599E+01 -3.306206017E+02  3.783369623E+02  1.250000000E+02  0.00000E+00  9.000E+00
      25     1     1     2     0     0  1.585246494E+02 -7.963183997E+01 -1.008784026E+02  2.393172508E+02  1.250000000E+02  0.00000E+00  9.000E+00
       2     1     1     2   501     0 -3.794137507E+01  1.910458399E+01  4.894715194E+02  4.913114098E+02  7.629394531E-06  0.00000E+00  9.000E+00
#rwgt            1           1   2.9241524033130097E-002           9      194516           0
</event>
<event>
      5   9999  3.79277E-02  2.75759E+01 -1.00000E+00  1.55626E-01
      21    -1     0     0   502   511  0.000000000E+00  0.000000000E+00  3.913176780E+02  3.913176780E+02  0.000000000E+00  0.00000E+00  9.000E+00
      21    -1     0     0   501   502  0.000000000E+00  0.000000000E+00 -1.220304578E+02  1.220304578E+02  0.000000000E+00  0.00000E+00  9.000E+00
      25     1     1     2     0     0 -5.345968159E+01 -1.015096362E+02 -1.499257733E+01  1.703288618E+02  1.250000000E+02  0.00000E+00  9.000E+00
      25     1     1     2     0     0  6.911418137E+01  7.880795078E+01  2.280456017E+02  2.803876952E+02  1.250000000E+02  0.00000E+00  9.000E+00
      21     1     1     2   501   511 -1.565449978E+01  2.270168543E+01  5.623419578E+01  6.263157877E+01  1.348699152E-06  0.00000E+00  9.000E+00
#rwgt            1           1   4.4476714023294311E-002           9      194748           0
</event>
<event>
      5   9999  3.79277E-02  1.12277E+02 -1.00000E+00  1.21608E-01
      21    -1     0     0   512   501  0.000000000E+00  0.000000000E+00  9.429774437E+02  9.429774437E+02  0.000000000E+00  0.00000E+00  9.000E+00
      21    -1     0     0   501   502  0.000000000E+00  0.000000000E+00 -4.572515322E+02  4.572515322E+02  0.000000000E+00  0.00000E+00  9.000E+00
      25     1     1     2     0     0 -1.225586005E+01 -1.333965049E+02  1.186448349E+02  2.182806232E+02  1.250000000E+02  0.00000E+00  9.000E+00
      25     1     1     2     0     0  7.377062572E+01  2.273218522E+02 -3.580000922E+02  4.482258311E+02  1.250000000E+02  0.00000E+00  9.000E+00
      21     1     1     2   512   502 -6.151476568E+01 -9.392534728E+01  7.250811688E+02  7.337225216E+02  0.000000000E+00  0.00000E+00  9.000E+00
#rwgt            1           1   4.2135240919896198E-002           9      194965           0
</event>
<event>
      5   9999  3.79277E-02  9.54676E+00 -1.00000E+00  1.98115E-01
      21    -1     0     0   502   511  0.000000000E+00  0.000000000E+00  6.301563512E+02  6.301563512E+02  0.000000000E+00  0.00000E+00  9.000E+00
      21    -1     0     0   501   502  0.000000000E+00  0.000000000E+00 -8.676725950E+02  8.676725950E+02  0.000000000E+00  0.00000E+00  9.000E+00
      25     1     1     2     0     0  1.985353012E+02 -1.697508269E+01 -1.767459826E+02  2.942253585E+02  1.250000000E+02  0.00000E+00  9.000E+00
      25     1     1     2     0     0 -1.916462847E+02  1.036584654E+01 -6.113984467E+02  6.528926480E+02  1.250000000E+02  0.00000E+00  9.000E+00
      21     1     1     2   501   511 -6.889016473E+00  6.609236153E+00  5.506281854E+02  5.507109397E+02  1.078959322E-05  0.00000E+00  9.000E+00
#rwgt            1           1   3.3299996319001532E-002           9      195231           0
</event>
<event>
      5   9999 -3.79277E-02  4.77692E+01 -1.00000E+00  1.40216E-01
      21    -1     0     0   512   501  0.000000000E+00  0.000000000E+00  9.069906186E+02  9.069906186E+02  0.000000000E+00  0.00000E+00  9.000E+00
      21    -1     0     0   501   502  0.000000000E+00  0.000000000E+00 -7.634554400E+01  7.634554400E+01  0.000000000E+00  0.00000E+00  9.000E+00
      25     1     1     2     0     0  1.252475904E+01  8.400314150E+01  2.166107582E+01  1.526682664E+02  1.250000000E+02  0.00000E+00  9.000E+00
      25     1     1     2     0     0  2.727790667E+01 -5.759024801E+01  5.766118707E+02  5.934365765E+02  1.250000000E+02  0.00000E+00  9.000E+00
      21     1     1     2   512   502 -3.980266570E+01 -2.641289348E+01  2.323721281E+02  2.372313197E+02  3.814697266E-06  0.00000E+00  9.000E+00
#rwgt            1           1 -0.17442529246010249                9      195563           0
</event>
<event>
      5   9999  3.79277E-02  4.00195E+01 -1.00000E+00  1.44827E-01
      21    -1     0     0   502   501  0.000000000E+00  0.000000000E+00  1.872790310E+03  1.872790310E+03  0.000000000E+00  0.00000E+00  9.000E+00
      21    -1     0     0   511   502  0.000000000E+00  0.000000000E+00 -3.917271790E+02  3.917271790E+02  0.000000000E+00  0.00000E+00  9.000E+00
      25     1     1     2     0     0  1.876195392E+02 -1.818550402E+01  1.177706688E+03  1.199228856E+03  1.250000000E+02  0.00000E+00  9.000E+00
      25     1     1     2     0     0 -1.879894282E+02  5.820325634E+01  6.633250671E+02  7.031022606E+02  1.250000000E+02  0.00000E+00  9.000E+00
      21     1     1     2   511   501  3.698889217E-01 -4.001775232E+01 -3.599686251E+02  3.621863724E+02  5.394796609E-06  0.00000E+00  9.000E+00
#rwgt            1           1   3.7363115943003199E-002           9      195665           0
</event>
<event>
      5   9999  3.79277E-02  8.95759E+01 -1.00000E+00  1.26017E-01
      21    -1     0     0   502   501  0.000000000E+00  0.000000000E+00  7.140434008E+01  7.140434008E+01  0.000000000E+00  0.00000E+00  9.000E+00
      21    -1     0     0   512   502  0.000000000E+00  0.000000000E+00 -1.238789591E+03  1.238789591E+03  0.000000000E+00  0.00000E+00  9.000E+00
      25     1     1     2     0     0 -1.365313118E+02  1.176209462E+02 -4.796278644E+02  5.273929980E+02  1.250000000E+02  0.00000E+00  9.000E+00
      25     1     1     2     0     0  6.426087549E+01 -6.469810318E+01 -9.130085297E+01  1.796556440E+02  1.250000000E+02  0.00000E+00  9.000E+00
      21     1     1     2   512   501  7.227043627E+01 -5.292284298E+01 -5.964565340E+02  6.031452895E+02  0.000000000E+00  0.00000E+00  9.000E+00
#rwgt            1           1   4.8485785630373014E-002           9      195852           0
</event>
<event>
      5   9999  3.79277E-02  6.11680E+00 -1.00000E+00  2.24179E-01
      21    -1     0     0   511   501  0.000000000E+00  0.000000000E+00  4.049658377E+02  4.049658377E+02  0.000000000E+00  0.00000E+00  9.000E+00
      21    -1     0     0   501   502  0.000000000E+00  0.000000000E+00 -1.294652796E+02  1.294652796E+02  0.000000000E+00  0.00000E+00  9.000E+00
      25     1     1     2     0     0 -3.624824063E+01 -7.751056676E+01  9.462500486E+01  1.786077111E+02  1.250000000E+02  0.00000E+00  9.000E+00
      25     1     1     2     0     0  3.075114702E+01  8.019331725E+01 -2.165458361E+01  1.532009209E+02  1.250000000E+02  0.00000E+00  9.000E+00
      21     1     1     2   511   502  5.497093607E+00 -2.682750484E+00  2.025301369E+02  2.026224853E+02  0.000000000E+00  0.00000E+00  9.000E+00
#rwgt            1           1   2.6769274030723950E-002           9      195925           0
</event>
<event>
      5   9999  3.79277E-02  9.32047E+01 -1.00000E+00  1.25218E-01
      21    -1     0     0   512   501  0.000000000E+00  0.000000000E+00  3.946309597E+02  3.946309597E+02  0.000000000E+00  0.00000E+00  9.000E+00
      21    -1     0     0   501   502  0.000000000E+00  0.000000000E+00 -1.138747564E+02  1.138747564E+02  0.000000000E+00  0.00000E+00  9.000E+00
      25     1     1     2     0     0  6.007625834E+01 -9.163181631E+01  1.027278947E+02  1.954061589E+02  1.250000000E+02  0.00000E+00  9.000E+00
      25     1     1     2     0     0 -3.670278188E+01  1.405432304E+00  2.313007543E+01  1.323218418E+02  1.250000000E+02  0.00000E+00  9.000E+00
      21     1     1     2   512   502 -2.337347646E+01  9.022638401E+01  1.548982331E+02  1.807777154E+02  3.303624740E-06  0.00000E+00  9.000E+00
#rwgt            1           1   5.6466774816069848E-002           9      196136           0
</event>
<event>
      5   9999  3.79277E-02  1.44929E+02 -1.00000E+00  1.16989E-01
       2    -1     0     0   502     0  0.000000000E+00  0.000000000E+00  2.175424602E+03  2.175424602E+03  0.000000000E+00  0.00000E+00  9.000E+00
      21    -1     0     0   501   502  0.000000000E+00  0.000000000E+00 -1.042694358E+02  1.042694358E+02  0.000000000E+00  0.00000E+00  9.000E+00
      25     1     1     2     0     0  1.487971389E+01 -1.863957085E+02  1.756658854E+02  2.853914318E+02  1.250000000E+02  0.00000E+00  9.000E+00
      25     1     1     2     0     0  1.255339112E+02  1.505020913E+02  2.459801911E+02  3.384389114E+02  1.250000000E+02  0.00000E+00  9.000E+00
       2     1     1     2   501     0 -1.404136251E+02  3.589361725E+01  1.649509089E+03  1.655863694E+03  2.157918644E-05  0.00000E+00  9.000E+00
#rwgt            1           1   3.5745897564743660E-002           9      196272           0
</event>
<event>
      5   9999  3.79277E-02  1.97631E+01 -1.00000E+00  1.66797E-01
      21    -1     0     0   502   501  0.000000000E+00  0.000000000E+00  3.025313796E+02  3.025313796E+02  0.000000000E+00  0.00000E+00  9.000E+00
      21    -1     0     0   511   502  0.000000000E+00  0.000000000E+00 -1.086359575E+03  1.086359575E+03  0.000000000E+00  0.00000E+00  9.000E+00
      25     1     1     2     0     0  1.231803527E+02 -1.408596361E+02 -5.499610002E+01  2.316557950E+02  1.250000000E+02  0.00000E+00  9.000E+00
      25     1     1     2     0     0 -1.153924024E+02  1.590235802E+02  1.507657998E+02  2.774152699E+02  1.250000000E+02  0.00000E+00  9.000E+00
      21     1     1     2   511   501 -7.787950282E+00 -1.816394412E+01 -8.795978952E+02  8.798198896E+02  1.525878906E-05  0.00000E+00  9.000E+00
#rwgt            1           1   3.5566882433923197E-002           9      196359           0
</event>
<event>
      5   9999 -3.79277E-02  5.03487E+01 -1.00000E+00  1.38904E-01
      21    -1     0     0   502   512  0.000000000E+00  0.000000000E+00  3.604860286E+01  3.604860286E+01  0.000000000E+00  0.00000E+00  9.000E+00
      21    -1     0     0   501   502  0.000000000E+00  0.000000000E+00 -1.724788259E+03  1.724788259E+03  0.000000000E+00  0.00000E+00  9.000E+00
      25     1     1     2     0     0  9.800978003E+01 -1.372442203E+02 -8.874717632E+02  9.119610866E+02  1.250000000E+02  0.00000E+00  9.000E+00
      25     1     1     2     0     0 -1.454716117E+02  1.204404852E+02 -7.009836104E+02  7.366620137E+02  1.250000000E+02  0.00000E+00  9.000E+00
      21     1     1     2   501   512  4.746183169E+01  1.680373513E+01 -1.002842828E+02  1.122137619E+02  1.348699152E-06  0.00000E+00  9.000E+00
#rwgt            1           1 -0.16528378360698559                9      196615           0
</event>
<event>
      5   9999  3.79277E-02  4.53690E+01 -1.00000E+00  1.41527E-01
      21    -1     0     0   502   501  0.000000000E+00  0.000000000E+00  2.308149190E+01  2.308149190E+01  0.000000000E+00  0.00000E+00  9.000E+00
      21    -1     0     0   501   511  0.000000000E+00  0.000000000E+00 -3.359776599E+03  3.359776599E+03  0.000000000E+00  0.00000E+00  9.000E+00
      25     1     1     2     0     0  1.035904285E+02 -1.471958774E+01 -3.807493850E+02  4.141771811E+02  1.250000000E+02  0.00000E+00  9.000E+00
      25     1     1     2     0     0 -1.163940138E+02  5.824449003E+01 -1.339776601E+03  1.351875116E+03  1.250000000E+02  0.00000E+00  9.000E+00
      21     1     1     2   502   511  1.280358528E+01 -4.352490229E+01 -1.616169121E+03  1.616805794E+03  3.051757812E-05  0.00000E+00  9.000E+00
#rwgt            1           1   3.9760598513328041E-002           9      196887           0
</event>
<event>
      5   9999  3.79277E-02  1.84232E+01 -1.00000E+00  1.69367E-01
      21    -1     0     0   502   512  0.000000000E+00  0.000000000E+00  3.678333490E+01  3.678333490E+01  0.000000000E+00  0.00000E+00  9.000E+00
      21    -1     0     0   501   502  0.000000000E+00  0.000000000E+00 -1.059015624E+03  1.059015624E+03  0.000000000E+00  0.00000E+00  9.000E+00
      25     1     1     2     0     0  9.054079263E+01 -5.230562947E+01 -6.939117864E+02  7.127917517E+02  1.250000000E+02  0.00000E+00  9.000E+00
      25     1     1     2     0     0 -1.045169288E+02  4.030223310E+01 -3.227060427E+02  3.637475064E+02  1.250000000E+02  0.00000E+00  9.000E+00
      21     1     1     2   501   512  1.397613621E+01  1.200339637E+01 -5.614459766E+00  1.925970057E+01  2.064765462E-07  0.00000E+00  9.000E+00
#rwgt            1           1   4.1080353186554168E-002           9      197072           0
</event>
<event>
      5   9999  3.79277E-02  2.38963E+01 -1.00000E+00  1.60234E-01
      21    -1     0     0   502   501  0.000000000E+00  0.000000000E+00  2.466854528E+02  2.466854528E+02  0.000000000E+00  0.00000E+00  9.000E+00
      21    -1     0     0   501   511  0.000000000E+00  0.000000000E+00 -5.273646789E+02  5.273646789E+02  0.000000000E+00  0.00000E+00  9.000E+00
      25     1     1     2     0     0 -1.272507807E+02 -1.216703561E+02 -1.151819383E+02  2.447208934E+02  1.250000000E+02  0.00000E+00  9.000E+00
      25     1     1     2     0     0  1.419517160E+02  1.028311127E+02  1.175393677E+02  2.452856098E+02  1.250000000E+02  0.00000E+00  9.000E+00
      21     1     1     2   502   511 -1.470093533E+01  1.883924340E+01 -2.830366554E+02  2.840436285E+02  5.394796609E-06  0.00000E+00  9.000E+00
#rwgt            1           1   2.6534893063624217E-002           9      197204           0
</event>
<event>
      5   9999  3.79277E-02  3.14160E+01 -1.00000E+00  1.51662E-01
      21    -1     0     0   502   512  0.000000000E+00  0.000000000E+00  5.613842379E+02  5.613842379E+02  0.000000000E+00  0.00000E+00  9.000E+00
      21    -1     0     0   501   502  0.000000000E+00  0.000000000E+00 -3.693008502E+02  3.693008502E+02  0.000000000E+00  0.00000E+00  9.000E+00
      25     1     1     2     0     0  1.476717948E+02 -1.319186519E+02 -1.967488488E+02  3.058506158E+02  1.250000000E+02  0.00000E+00  9.000E+00
      25     1     1     2     0     0 -1.558376109E+02  1.015824370E+02 -1.040750845E+01  2.243605774E+02  1.250000000E+02  0.00000E+00  9.000E+00
      21     1     1     2   501   512  8.165816072E+00  3.033621493E+01  3.992397449E+02  4.004738948E+02  5.394796609E-06  0.00000E+00  9.000E+00
#rwgt            1           1   4.0916392303298604E-002           9      197375           0
</event>
<event>
      5   9999 -3.79277E-02  5.80020E+01 -1.00000E+00  1.35494E-01
      21    -1     0     0   511   501  0.000000000E+00  0.000000000E+00  5.646784614E+01  5.646784614E+01  0.000000000E+00  0.00000E+00  9.000E+00
      21    -1     0     0   501   502  0.000000000E+00  0.000000000E+00 -1.050347332E+03  1.050347332E+03  0.000000000E+00  0.00000E+00  9.000E+00
      25     1     1     2     0     0  9.296821643E+01 -3.431380042E+01 -1.634633385E+02  2.283983126E+02  1.250000000E+02  0.00000E+00  9.000E+00
      25     1     1     2     0     0 -1.222690067E+02 -1.574310759E+01 -7.859818972E+02  8.053509161E+02  1.250000000E+02  0.00000E+00  9.000E+00
      21     1     1     2   511   502  2.930079031E+01  5.005690801E+01 -4.443424986E+01  7.306594907E+01  8.259061849E-07  0.00000E+00  9.000E+00
#rwgt            1           1  -3.7668687444401626E-002           9      197621           0
</event>
<event>
      5   9999  3.79277E-02  2.70974E+01 -1.00000E+00  1.56174E-01
      21    -1     0     0   512   501  0.000000000E+00  0.000000000E+00  1.920068404E+02  1.920068404E+02  0.000000000E+00  0.00000E+00  9.000E+00
      21    -1     0     0   501   502  0.000000000E+00  0.000000000E+00 -2.323018242E+02  2.323018242E+02  0.000000000E+00  0.00000E+00  9.000E+00
      25     1     1     2     0     0 -1.004066599E+02  5.152234254E+01  8.735747217E+01  1.897165704E+02  1.250000000E+02  0.00000E+00  9.000E+00
      25     1     1     2     0     0  9.107412676E+01 -2.608279130E+01 -1.345303427E+02  2.066354802E+02  1.250000000E+02  0.00000E+00  9.000E+00
      21     1     1     2   512   502  9.332533138E+00 -2.543955124E+01  6.877886815E+00  2.795661405E+01  1.460009660E-07  0.00000E+00  9.000E+00
#rwgt            1           1   2.5593218102876427E-002           9      197784           0
</event>
<event>
      5   9999 -3.79277E-02  3.44488E+01 -1.00000E+00  1.48983E-01
      21    -1     0     0   502   511  0.000000000E+00  0.000000000E+00  1.468261827E+03  1.468261827E+03  0.000000000E+00  0.00000E+00  9.000E+00
      21    -1     0     0   501   502  0.000000000E+00  0.000000000E+00 -6.217585831E+01  6.217585831E+01  0.000000000E+00  0.00000E+00  9.000E+00
      25     1     1     2     0     0  6.858781649E-01  2.443110854E+02  6.090590910E+02  6.680317007E+02  1.250000000E+02  0.00000E+00  9.000E+00
      25     1     1     2     0     0  1.779804524E+01 -2.152410798E+02  4.574511382E+02  5.210873599E+02  1.250000000E+02  0.00000E+00  9.000E+00
      21     1     1     2   501   511 -1.848392341E+01 -2.907000569E+01  3.395757400E+02  3.413186251E+02  3.814697266E-06  0.00000E+00  9.000E+00
#rwgt            1           1 -0.13878266239619613                9      197922           0
</event>
<event>
      5   9999 -3.79277E-02  6.57867E+01 -1.00000E+00  1.32601E-01
       2    -1     0     0   502     0  0.000000000E+00  0.000000000E+00  6.679344539E+02  6.679344539E+02  0.000000000E+00  0.00000E+00  9.000E+00
      21    -1     0     0   501   502  0.000000000E+00  0.000000000E+00 -3.998189979E+02  3.998189979E+02  0.000000000E+00  0.00000E+00  9.000E+00
      25     1     1     2     0     0 -4.008444411E+02 -2.681078520E+00  2.685924356E+01  4.207491808E+02  1.250000000E+02  0.00000E+00  9.000E+00
      25     1     1     2     0     0  3.628339070E+02 -5.101334858E+01 -1.001128447E+01  3.872673903E+02  1.250000000E+02  0.00000E+00  9.000E+00
       2     1     1     2   501     0  3.801053411E+01  5.369442710E+01  2.512674969E+02  2.597368807E+02  3.814697266E-06  0.00000E+00  9.000E+00
#rwgt            1           1 -0.34133418583331981                9      198068           0
</event>
<event>
      5   9999  3.79277E-02  1.26904E+01 -1.00000E+00  1.84509E-01
      21    -1     0     0   502   511  0.000000000E+00  0.000000000E+00  4.442253782E+02  4.442253782E+02  0.000000000E+00  0.00000E+00  9.000E+00
      21    -1     0     0   501   502  0.000000000E+00  0.000000000E+00 -1.181231170E+02  1.181231170E+02  0.000000000E+00  0.00000E+00  9.000E+00
      25     1     1     2     0     0  1.031947794E+02 -1.380783702E+02  1.018500995E+02  2.360365259E+02  1.250000000E+02  0.00000E+00  9.000E+00
      25     1     1     2     0     0 -1.111829040E+02  1.479392218E+02  2.043439013E+02  3.027029592E+02  1.250000000E+02  0.00000E+00  9.000E+00
      21     1     1     2   501   511  7.988124622E+00 -9.860851554E+00  1.990826036E+01  2.360901012E+01  3.371747881E-07  0.00000E+00  9.000E+00
#rwgt            1           1   3.0252978761456828E-002           9      198231           0
</event>
<event>
      5   9999  3.79277E-02  1.70541E+01 -1.00000E+00  1.72289E-01
      21    -1     0     0   502   501  0.000000000E+00  0.000000000E+00  7.516999735E+02  7.516999735E+02  0.000000000E+00  0.00000E+00  9.000E+00
       3    -1     0     0   501     0  0.000000000E+00  0.000000000E+00 -4.035420698E+02  4.035420698E+02  0.000000000E+00  0.00000E+00  9.000E+00
      25     1     1     2     0     0 -7.668251977E+01 -1.930763644E+02  4.739482714E+02  5.323632738E+02  1.250000000E+02  0.00000E+00  9.000E+00
      25     1     1     2     0     0  9.144748719E+01  2.016109224E+02  1.832343393E+02  3.133838382E+02  1.250000000E+02  0.00000E+00  9.000E+00
       3     1     1     2   502     0 -1.476496742E+01 -8.534557978E+00 -3.090247070E+02  3.094949313E+02  6.607249480E-06  0.00000E+00  9.000E+00
#rwgt            1           1   3.6406391878195159E-002           9      198486           0
</event>
<event>
      5   9999  3.79277E-02  1.95656E+02 -1.00000E+00  1.11996E-01
      21    -1     0     0   502   501  0.000000000E+00  0.000000000E+00  2.616847561E+02  2.616847561E+02  0.000000000E+00  0.00000E+00  9.000E+00
       2    -1     0     0   501     0  0.000000000E+00  0.000000000E+00 -1.329239670E+03  1.329239670E+03  0.000000000E+00  0.00000E+00  9.000E+00
      25     1     1     2     0     0 -1.262592616E+02 -2.993129258E+02 -1.091927928E+01  3.482439653E+02  1.250000000E+02  0.00000E+00  9.000E+00
      25     1     1     2     0     0  2.371389900E+02  1.381085307E+02 -1.949968706E+02  3.591067340E+02  1.250000000E+02  0.00000E+00  9.000E+00
       2     1     1     2   502     0 -1.108797284E+02  1.612043951E+02 -8.616387637E+02  8.835737265E+02  0.000000000E+00  0.00000E+00  9.000E+00
#rwgt            2          13   1.0179275798478124E-003           9      198644           0
</event>
<event>
      5   9999  3.79277E-02  7.47037E+01 -1.00000E+00  1.29806E-01
       2    -1     0     0   502     0  0.000000000E+00  0.000000000E+00  1.198819304E+03  1.198819304E+03  0.000000000E+00  0.00000E+00  9.000E+00
      21    -1     0     0   501   502  0.000000000E+00  0.000000000E+00 -5.111414129E+01  5.111414129E+01  0.000000000E+00  0.00000E+00  9.000E+00
      25     1     1     2     0     0 -4.078652061E+01 -5.023093529E+01  8.351398386E+01  1.636651234E+02  1.250000000E+02  0.00000E+00  9.000E+00
      25     1     1     2     0     0  1.781688238E+01 -2.085375183E+01  8.464326438E+02  8.560523003E+02  1.250000000E+02  0.00000E+00  9.000E+00
       2     1     1     2   501     0  2.296963824E+01  7.108468712E+01  2.177585349E+02  2.302160215E+02  2.697398305E-06  0.00000E+00  9.000E+00
#rwgt            1           1   3.9809963423028727E-002           9      198768           0
</event>
<event>
      5   9999 -3.79277E-02  5.68440E+01 -1.00000E+00  1.35969E-01
      21    -1     0     0   502   511  0.000000000E+00  0.000000000E+00  4.681045456E+01  4.681045456E+01  0.000000000E+00  0.00000E+00  9.000E+00
      21    -1     0     0   501   502  0.000000000E+00  0.000000000E+00 -2.134644525E+03  2.134644525E+03  0.000000000E+00  0.00000E+00  9.000E+00
      25     1     1     2     0     0  5.682758273E+01 -1.673520579E+02 -1.182320974E+03  1.201975029E+03  1.250000000E+02  0.00000E+00  9.000E+00
      25     1     1     2     0     0 -1.839099431E+00  1.817573266E+02 -8.948554051E+02  9.216454329E+02  1.250000000E+02  0.00000E+00  9.000E+00
      21     1     1     2   501   511 -5.498848330E+01 -1.440526870E+01 -1.065769191E+01  5.783451789E+01  2.567846683E-06  0.00000E+00  9.000E+00
#rwgt            1           1 -0.66370390986280081                9      198854           0
</event>
<event>
      5   9999  3.79277E-02  1.68533E+02 -1.00000E+00  1.14423E-01
      21    -1     0     0   512   501  0.000000000E+00  0.000000000E+00  9.917716993E+02  9.917716993E+02  0.000000000E+00  0.00000E+00  9.000E+00
      21    -1     0     0   501   502  0.000000000E+00  0.000000000E+00 -3.359401298E+02  3.359401298E+02  0.000000000E+00  0.00000E+00  9.000E+00
      25     1     1     2     0     0 -2.117926531E+02 -3.225478158E+02  7.576829487E+01  4.126245944E+02  1.250000000E+02  0.00000E+00  9.000E+00
      25     1     1     2     0     0  6.332911413E+01  2.427869331E+02 -3.023267471E+01  2.819487297E+02  1.250000000E+02  0.00000E+00  9.000E+00
      21     1     1     2   512   502  1.484635390E+02  7.976088269E+01  6.102959493E+02  6.331385050E+02  7.629394531E-06  0.00000E+00  9.000E+00
#rwgt            1           1   4.0269581675562015E-002           9      199141           0
</event>
<event>
      5   9999  3.79277E-02  4.75552E+01 -1.00000E+00  1.40329E-01
      21    -1     0     0   502   501  0.000000000E+00  0.000000000E+00  8.717569518E+01  8.717569518E+01  0.000000000E+00  0.00000E+00  9.000E+00
      21    -1     0     0   501   511  0.000000000E+00  0.000000000E+00 -2.312142718E+03  2.312142718E+03  0.000000000E+00  0.00000E+00  9.000E+00
      25     1     1     2     0     0  3.504872689E+01 -1.710241132E+02 -1.016409937E+02  2.375574712E+02  1.250000000E+02  0.00000E+00  9.000E+00
      25     1     1     2     0     0  6.487926363E-01  2.024435780E+02 -7.335351204E+02  7.711566612E+02  1.250000000E+02  0.00000E+00  9.000E+00
      21     1     1     2   502   511 -3.569751953E+01 -3.141946479E+01 -1.389790909E+03  1.390604281E+03  1.525878906E-05  0.00000E+00  9.000E+00
#rwgt            1           1   4.3062264878028625E-002           9      199191           0
</event>
<event>
      5   9999  3.79277E-02  1.61632E+02 -1.00000E+00  1.15122E-01
       1    -1     0     0   502     0  0.000000000E+00  0.000000000E+00  7.844905066E+02  7.844905066E+02  0.000000000E+00  0.00000E+00  9.000E+00
      21    -1     0     0   501   502  0.000000000E+00  0.000000000E+00 -6.083296840E+02  6.083296840E+02  0.000000000E+00  0.00000E+00  9.000E+00
      25     1     1     2     0     0  1.850289529E+02 -3.148664888E+01 -6.233079312E+01  2.339599330E+02  1.250000000E+02  0.00000E+00  9.000E+00
      25     1     1     2     0     0 -2.348483677E+01  3.680421292E+01 -4.409801476E+02  4.604286896E+02  1.250000000E+02  0.00000E+00  9.000E+00
       1     1     1     2   501     0 -1.615441162E+02 -5.317564037E+00  6.794717634E+02  6.984315680E+02  7.629394531E-06  0.00000E+00  9.000E+00
#rwgt            1           1   4.7498949224899167E-002           9      199572           0
</event>
<event>
      5   9999  3.79277E-02  6.10257E+01 -1.00000E+00  1.34311E-01
      21    -1     0     0   502   501  0.000000000E+00  0.000000000E+00  4.383077668E+02  4.383077668E+02  0.000000000E+00  0.00000E+00  9.000E+00
      21    -1     0     0   511   502  0.000000000E+00  0.000000000E+00 -3.590991588E+02  3.590991588E+02  0.000000000E+00  0.00000E+00  9.000E+00
      25     1     1     2     0     0  2.025483714E+02 -1.027224293E+02  2.178551053E+02  3.386201221E+02  1.250000000E+02  0.00000E+00  9.000E+00
      25     1     1     2     0     0 -1.940751292E+02  4.228784037E+01  6.717206579E+01  2.441116622E+02  1.250000000E+02  0.00000E+00  9.000E+00
      21     1     1     2   511   501 -8.473242204E+00  6.043458893E+01 -2.058185631E+02  2.146751413E+02  3.814697266E-06  0.00000E+00  9.000E+00
#rwgt            1           1   3.1386423548618453E-002           9      199628           0
</event>
<event>
      5   9999  3.79277E-02  2.03170E+01 -1.00000E+00  1.65807E-01
      21    -1     0     0   502   501  0.000000000E+00  0.000000000E+00  3.703110502E+02  3.703110502E+02  0.000000000E+00  0.00000E+00  9.000E+00
      21    -1     0     0   501   512  0.000000000E+00  0.000000000E+00 -2.571773791E+02  2.571773791E+02  0.000000000E+00  0.00000E+00  9.000E+00
      25     1     1     2     0     0  1.891947973E+02 -4.789273471E+01  9.344189674E+01  2.498895224E+02  1.250000000E+02  0.00000E+00  9.000E+00
      25     1     1     2     0     0 -2.083878734E+02  5.455664479E+01  1.191502963E+02  2.760864473E+02  1.250000000E+02  0.00000E+00  9.000E+00
      21     1     1     2   502   512  1.919307609E+01 -6.663910075E+00 -9.945852193E+01  1.015124596E+02  1.907348633E-06  0.00000E+00  9.000E+00
#rwgt            1           1   3.5133868006978486E-002           9      199740           0
</event>
<event>
      5   9999  3.79277E-02  2.53311E+01 -1.00000E+00  1.58324E-01
       1    -1     0     0   502     0  0.000000000E+00  0.000000000E+00  1.788384196E+03  1.788384196E+03  0.000000000E+00  0.00000E+00  9.000E+00
      21    -1     0     0   501   502  0.000000000E+00  0.000000000E+00 -6.153857293E+01  6.153857293E+01  0.000000000E+00  0.00000E+00  9.000E+00
      25     1     1     2     0     0  6.857199809E+01  1.761797795E+02  5.918954526E+02  6.338033295E+02  1.250000000E+02  0.00000E+00  9.000E+00
      25     1     1     2     0     0 -8.330800024E+01 -1.967835727E+02  3.390388549E+02  4.198051244E+02  1.250000000E+02  0.00000E+00  9.000E+00
       1     1     1     2   501     0  1.473600214E+01  2.060379314E+01  7.959113160E+02  7.963143155E+02  1.525878906E-05  0.00000E+00  9.000E+00
#rwgt            1           1   3.0915145084335734E-002           9      199933           0
</event>
<event>
      5   9999  3.79277E-02  1.96098E+01 -1.00000E+00  1.67078E-01
      21    -1     0     0   511   501  0.000000000E+00  0.000000000E+00  5.122101312E+02  5.122101312E+02  0.000000000E+00  0.00000E+00  9.000E+00
      21    -1     0     0   501   502  0.000000000E+00  0.000000000E+00 -1.126614455E+02  1.126614455E+02  0.000000000E+00  0.00000E+00  9.000E+00
      25     1     1     2     0     0  1.602225985E+02  6.995382403E+01  1.048553458E+02  2.391327291E+02  1.250000000E+02  0.00000E+00  9.000E+00
      25     1     1     2     0     0 -1.788110266E+02 -6.370750109E+01  2.558246896E+02  3.422035954E+02  1.250000000E+02  0.00000E+00  9.000E+00
      21     1     1     2   511   502  1.858842805E+01 -6.246322934E+00  3.886865037E+01  4.353525225E+01  6.743495762E-07  0.00000E+00  9.000E+00
#rwgt            1           1   3.5890624707229535E-002           9      200090           0
</event>
<event>
      5   9999  3.79277E-02  6.90865E+01 -1.00000E+00  1.31510E-01
      21    -1     0     0   502   501  0.000000000E+00  0.000000000E+00  2.663660903E+02  2.663660903E+02  0.000000000E+00  0.00000E+00  9.000E+00
      21    -1     0     0   501   512  0.000000000E+00  0.000000000E+00 -6.205680561E+02  6.205680561E+02  0.000000000E+00  0.00000E+00  9.000E+00
      25     1     1     2     0     0 -1.273133281E+02 -1.586435842E+02 -2.143274992E+01  2.397098936E+02  1.250000000E+02  0.00000E+00  9.000E+00
      25     1     1     2     0     0  1.426273594E+02  9.127575597E+01  8.263548845E+01  2.261138015E+02  1.250000000E+02  0.00000E+00  9.000E+00
      21     1     1     2   502   512 -1.531403129E+01  6.736782824E+01 -4.154047044E+02  4.211104514E+02  0.000000000E+00  0.00000E+00  9.000E+00
#rwgt            1           1   8.7791346004017376E-002           9      200472           0
</event>
<event>
      5   9999  3.89773E-02  9.54180E+01 -1.00000E+00  1.24751E-01
      21    -1     0     0   502   501  0.000000000E+00  0.000000000E+00  1.751013911E+02  1.751013911E+02  0.000000000E+00  0.00000E+00  9.000E+00
      21    -1     0     0   511   502  0.000000000E+00  0.000000000E+00 -1.039517818E+03  1.039517818E+03  0.000000000E+00  0.00000E+00  9.000E+00
      25     1     1     2     0     0 -1.132570540E+02  1.386229553E+02 -4.031888404E+01  2.220227385E+02  1.250000000E+02  0.00000E+00  9.000E+00
      25     1     1     2     0     0  1.464015187E+02 -2.280994408E+02 -1.955097588E+02  3.568078269E+02  1.250000000E+02  0.00000E+00  9.000E+00
      21     1     1     2   511   501 -3.314446463E+01  8.947648553E+01 -6.285877841E+02  6.357886436E+02  0.000000000E+00  0.00000E+00  9.000E+00
#rwgt            1           1  0.53233122971726488                9      200575           0
</event>
<event>
      5   9999  3.79277E-02  9.71336E+01 -1.00000E+00  1.24399E-01
      21    -1     0     0   502   501  0.000000000E+00  0.000000000E+00  8.575594399E+01  8.575594399E+01  0.000000000E+00  0.00000E+00  9.000E+00
      21    -1     0     0   501   512  0.000000000E+00  0.000000000E+00 -2.325189329E+03  2.325189329E+03  0.000000000E+00  0.00000E+00  9.000E+00
      25     1     1     2     0     0 -2.434171323E+02 -9.614617234E+01 -1.029889006E+03  1.069949696E+03  1.250000000E+02  0.00000E+00  9.000E+00
      25     1     1     2     0     0  3.323323571E+02  1.352489187E+02 -5.166090229E+02  6.412853874E+02  1.250000000E+02  0.00000E+00  9.000E+00
      21     1     1     2   502   512 -8.891522482E+01 -3.910274634E+01 -6.929353563E+02  6.997101900E+02  7.629394531E-06  0.00000E+00  9.000E+00
#rwgt            1           1  0.38289239462812030                9      200751           0
</event>
<event>
      5   9999  3.79277E-02  8.41592E+01 -1.00000E+00  1.27293E-01
       2    -1     0     0   502     0  0.000000000E+00  0.000000000E+00  6.189756903E+02  6.189756903E+02  0.000000000E+00  0.00000E+00  9.000E+00
      21    -1     0     0   501   502  0.000000000E+00  0.000000000E+00 -1.366394185E+02  1.366394185E+02  0.000000000E+00  0.00000E+00  9.000E+00
      25     1     1     2     0     0 -1.459840567E+02 -8.550025571E+01  2.145379404E+02  3.004549324E+02  1.250000000E+02  0.00000E+00  9.000E+00
      25     1     1     2     0     0  1.424643084E+02  1.414733845E+00  1.662399815E+01  1.902614989E+02  1.250000000E+02  0.00000E+00  9.000E+00
       2     1     1     2   501     0  3.519748240E+00  8.408552186E+01  2.511743333E+02  2.648986774E+02  4.672030912E-06  0.00000E+00  9.000E+00
#rwgt            1           1   4.5966384600237199E-002           9      200840           0
</event>
<event>
      5   9999  3.79277E-02  5.86793E+01 -1.00000E+00  1.35222E-01
       3    -1     0     0   502     0  0.000000000E+00  0.000000000E+00  6.642063459E+02  6.642063459E+02  0.000000000E+00  0.00000E+00  9.000E+00
      21    -1     0     0   501   502  0.000000000E+00  0.000000000E+00 -2.231657703E+02  2.231657703E+02  0.000000000E+00  0.00000E+00  9.000E+00
      25     1     1     2     0     0 -1.404744208E+02 -7.850341487E+00  3.666251269E+01  1.917389647E+02  1.250000000E+02  0.00000E+00  9.000E+00
      25     1     1     2     0     0  1.141484761E+02  6.029269599E+01 -8.778054665E+01  1.999887701E+02  1.250000000E+02  0.00000E+00  9.000E+00
       3     1     1     2   501     0  2.632594468E+01 -5.244235450E+01  4.921586095E+02  4.956443814E+02  0.000000000E+00  0.00000E+00  9.000E+00
#rwgt            1           1   3.8066275612142118E-002           9      200887           0
</event>
<event>
      5   9999  3.79277E-02  3.19647E+01 -1.00000E+00  1.51151E-01
       2    -1     0     0   502     0  0.000000000E+00  0.000000000E+00  4.017859101E+02  4.017859101E+02  0.000000000E+00  0.00000E+00  9.000E+00
      21    -1     0     0   501   502  0.000000000E+00  0.000000000E+00 -1.156010118E+02  1.156010118E+02  0.000000000E+00  0.00000E+00  9.000E+00
      25     1     1     2     0     0  3.774571047E+01  4.656635316E+01 -4.193621379E+01  1.448337320E+02  1.250000000E+02  0.00000E+00  9.000E+00
      25     1     1     2     0     0 -5.644279051E+01 -2.064028195E+01  2.977119743E+02  3.284345133E+02  1.250000000E+02  0.00000E+00  9.000E+00
       2     1     1     2   501     0  1.869708004E+01 -2.592607121E+01  3.040913773E+01  4.411867664E+01  0.000000000E+00  0.00000E+00  9.000E+00
#rwgt            1           1   3.4225064156024484E-002           9      201064           0
</event>
<event>
      5   9999  3.79277E-02  5.42420E+01 -1.00000E+00  1.37087E-01
      21    -1     0     0   511   501  0.000000000E+00  0.000000000E+00  4.470278167E+01  4.470278167E+01  0.000000000E+00  0.00000E+00  9.000E+00
      21    -1     0     0   501   502  0.000000000E+00  0.000000000E+00 -1.793618008E+03  1.793618008E+03  0.000000000E+00  0.00000E+00  9.000E+00
      25     1     1     2     0     0 -4.442648241E+01 -2.396969572E+02 -8.739228364E+02  9.158572311E+02  1.250000000E+02  0.00000E+00  9.000E+00
      25     1     1     2     0     0  3.424038731E+01  1.864199289E+02 -7.869967098E+02  8.190931664E+02  1.250000000E+02  0.00000E+00  9.000E+00
      21     1     1     2   511   502  1.018609510E+01  5.327702828E+01 -8.799568017E+01  1.033703923E+02  1.651812370E-06  0.00000E+00  9.000E+00
#rwgt            1           1   3.3991997835688112E-002           9      201165           0
</event>
<event>
      5   9999  3.79277E-02  3.58244E+01 -1.00000E+00  1.47874E-01
      21    -1     0     0   502   501  0.000000000E+00  0.000000000E+00  3.916049612E+01  3.916049612E+01  0.000000000E+00  0.00000E+00  9.000E+00
      21    -1     0     0   501   512  0.000000000E+00  0.000000000E+00 -2.620608053E+03  2.620608053E+03  0.000000000E+00  0.00000E+00  9.000E+00
      25     1     1     2     0     0  1.743004419E+02 -1.861494439E+02 -1.505260989E+03  1.531818496E+03  1.250000000E+02  0.00000E+00  9.000E+00
      25     1     1     2     0     0 -1.788618182E+02  1.506166303E+02 -6.756290602E+02  7.257937354E+02  1.250000000E+02  0.00000E+00  9.000E+00
      21     1     1     2   502   512  4.561376289E+00  3.553281365E+01 -4.005575073E+02  4.021563174E+02  0.000000000E+00  0.00000E+00  9.000E+00
#rwgt            1           1  0.14242545103085913                9      201319           0
</event>
<event>
      5   9999  3.79277E-02  8.92589E+01 -1.00000E+00  1.26089E-01
      21    -1     0     0   502   501  0.000000000E+00  0.000000000E+00  1.577431958E+02  1.577431958E+02  0.000000000E+00  0.00000E+00  9.000E+00
      21    -1     0     0   511   502  0.000000000E+00  0.000000000E+00 -1.085905810E+03  1.085905810E+03  0.000000000E+00  0.00000E+00  9.000E+00
      25     1     1     2     0     0  1.130051259E+02 -1.008109932E+02 -1.523836790E+02  2.485534157E+02  1.250000000E+02  0.00000E+00  9.000E+00
      25     1     1     2     0     0 -1.728111944E+02  3.455102776E+01 -1.883271121E+00  2.160695008E+02  1.250000000E+02  0.00000E+00  9.000E+00
      21     1     1     2   511   501  5.980606853E+01  6.625996549E+01 -7.738956644E+02  7.790260896E+02  1.078959322E-05  0.00000E+00  9.000E+00
#rwgt            1           1   4.6800508386329057E-002           9      201544           0
</event>
<event>
      5   9999  3.79277E-02  3.28129E+01 -1.00000E+00  1.50385E-01
      21    -1     0     0   502   501  0.000000000E+00  0.000000000E+00  1.703686261E+02  1.703686261E+02  0.000000000E+00  0.00000E+00  9.000E+00
      21    -1     0     0   501   512  0.000000000E+00  0.000000000E+00 -3.134313868E+02  3.134313868E+02  0.000000000E+00  0.00000E+00  9.000E+00
      25     1     1     2     0     0 -6.389443034E+01 -8.842934770E+01  5.470508788E+01  1.746994402E+02  1.250000000E+02  0.00000E+00  9.000E+00
      25     1     1     2     0     0  5.327637744E+01  5.738186858E+01 -4.700467249E+01  1.548079148E+02  1.250000000E+02  0.00000E+00  9.000E+00
      21     1     1     2   502   512  1.061805290E+01  3.104747912E+01 -1.507631761E+02  1.542926579E+02  0.000000000E+00  0.00000E+00  9.000E+00
#rwgt            1           1   4.7528412406999246E-002           9      201606           0
</event>
<event>
      5   9999  3.79277E-02  7.73004E+01 -1.00000E+00  1.29075E-01
      21    -1     0     0   511   501  0.000000000E+00  0.000000000E+00  5.302626950E+02  5.302626950E+02  0.000000000E+00  0.00000E+00  9.000E+00
      21    -1     0     0   501   502  0.000000000E+00  0.000000000E+00 -7.672677079E+02  7.672677079E+02  0.000000000E+00  0.00000E+00  9.000E+00
      25     1     1     2     0     0  7.454030340E+01  2.278186886E+02  4.176740218E+02  4.975280898E+02  1.250000000E+02  0.00000E+00  9.000E+00
      25     1     1     2     0     0 -1.694233944E+01 -2.793728593E+02 -6.544741155E+02  7.227016018E+02  1.250000000E+02  0.00000E+00  9.000E+00
      21     1     1     2   511   502 -5.759796396E+01  5.155417076E+01 -2.049192009E-01  7.730071130E+01  1.833189201E-06  0.00000E+00  9.000E+00
#rwgt            1           1   5.6979056299650020E-002           9      201680           0
</event>
<event>
      5   9999  3.79277E-02  1.03849E+02 -1.00000E+00  1.23095E-01
      -2    -1     0     0     0   501  0.000000000E+00  0.000000000E+00  9.109132010E+02  9.109132010E+02  0.000000000E+00  0.00000E+00  9.000E+00
      21    -1     0     0   501   502  0.000000000E+00  0.000000000E+00 -3.212975754E+02  3.212975754E+02  0.000000000E+00  0.00000E+00  9.000E+00
      25     1     1     2     0     0 -2.232392892E+02  2.851299449E+00  1.045213002E+02  2.763939441E+02  1.250000000E+02  0.00000E+00  9.000E+00
      25     1     1     2     0     0  1.759722500E+02  8.961689811E+01 -1.722425805E+02  2.903272769E+02  1.250000000E+02  0.00000E+00  9.000E+00
      -2     1     1     2     0   502  4.726703910E+01 -9.246819756E+01  6.573369058E+02  6.654895553E+02  1.321449896E-05  0.00000E+00  9.000E+00
#rwgt            1           1   3.8998656405196085E-002           9      201872           0
</event>
<event>
      5   9999  3.79277E-02  2.07074E+01 -1.00000E+00  1.65133E-01
      21    -1     0     0   502   501  0.000000000E+00  0.000000000E+00  9.685822854E+01  9.685822854E+01  0.000000000E+00  0.00000E+00  9.000E+00
      21    -1     0     0   501   511  0.000000000E+00  0.000000000E+00 -4.623039076E+02  4.623039076E+02  0.000000000E+00  0.00000E+00  9.000E+00
      25     1     1     2     0     0 -1.174568721E+01 -2.980096304E+01  3.134471915E+01  1.327913777E+02  1.250000000E+02  0.00000E+00  9.000E+00
      25     1     1     2     0     0  7.148741411E+00  4.999167527E+01 -3.548504280E+02  3.795972845E+02  1.250000000E+02  0.00000E+00  9.000E+00
      21     1     1     2   502   511  4.596945803E+00 -2.019071223E+01 -4.193997020E+01  4.677347401E+01  6.743495762E-07  0.00000E+00  9.000E+00
#rwgt            1           1   2.8662565175934442E-002           9      201980           0
</event>
<event>
      5   9999  3.79277E-02  2.71534E+01 -1.00000E+00  1.56109E-01
      21    -1     0     0   512   501  0.000000000E+00  0.000000000E+00  1.668842028E+02  1.668842028E+02  0.000000000E+00  0.00000E+00  9.000E+00
      21    -1     0     0   501   502  0.000000000E+00  0.000000000E+00 -3.050365932E+02  3.050365932E+02  0.000000000E+00  0.00000E+00  9.000E+00
      25     1     1     2     0     0 -1.084614454E+02 -8.129033226E+01 -1.517534114E+02  2.388013843E+02  1.250000000E+02  0.00000E+00  9.000E+00
      25     1     1     2     0     0  1.261607659E+02  1.018826260E+02  5.649168264E+00  2.048255878E+02  1.250000000E+02  0.00000E+00  9.000E+00
      21     1     1     2   512   502 -1.769932050E+01 -2.059229371E+01  7.951852706E+00  2.829382385E+01  3.264680848E-07  0.00000E+00  9.000E+00
#rwgt            1           1   3.8009244777660829E-002           9      202218           0
</event>
<event>
      5   9999  3.79277E-02  1.33822E+02 -1.00000E+00  1.18392E-01
      21    -1     0     0   502   501  0.000000000E+00  0.000000000E+00  1.937853271E+02  1.937853271E+02  0.000000000E+00  0.00000E+00  9.000E+00
      21    -1     0     0   501   511  0.000000000E+00  0.000000000E+00 -2.980237419E+02  2.980237419E+02  0.000000000E+00  0.00000E+00  9.000E+00
      25     1     1     2     0     0 -1.928448638E+01 -2.056952740E+01  5.656744825E+01  1.400709573E+02  1.250000000E+02  0.00000E+00  9.000E+00
      25     1     1     2     0     0  8.318938528E+01 -9.700831916E+01 -9.880085919E+01  2.042491067E+02  1.250000000E+02  0.00000E+00  9.000E+00
      21     1     1     2   502   511 -6.390489891E+01  1.175778466E+02 -6.200500391E+01  1.474890051E+02  2.236564522E-06  0.00000E+00  9.000E+00
#rwgt            1           1   5.3599301729575936E-002           9      202472           0
</event>
<event>
      5   9999  3.79277E-02  2.94633E+01 -1.00000E+00  1.53586E-01
      21    -1     0     0   502   501  0.000000000E+00  0.000000000E+00  1.801577307E+03  1.801577307E+03  0.000000000E+00  0.00000E+00  9.000E+00
      21    -1     0     0   501   512  0.000000000E+00  0.000000000E+00 -1.533804841E+02  1.533804841E+02  0.000000000E+00  0.00000E+00  9.000E+00
      25     1     1     2     0     0 -7.534677501E+00 -2.192042676E+02  1.654982462E+03  1.674126409E+03  1.250000000E+02  0.00000E+00  9.000E+00
      25     1     1     2     0     0  2.161787667E+01  1.933247055E+02 -4.189906682E+01  2.349942683E+02  1.250000000E+02  0.00000E+00  9.000E+00
      21     1     1     2   502   512 -1.408319917E+01  2.587956214E+01  3.511342787E+01  4.583711436E+01  6.743495762E-07  0.00000E+00  9.000E+00
#rwgt            1           1   8.8104087944535253E-002           9      202585           0
</event>
<event>
      5   9999  3.79277E-02  1.22322E+02 -1.00000E+00  1.20016E-01
      21    -1     0     0   502   501  0.000000000E+00  0.000000000E+00  1.872981169E+02  1.872981169E+02  0.000000000E+00  0.00000E+00  9.000E+00
      21    -1     0     0   511   502  0.000000000E+00  0.000000000E+00 -1.287416270E+03  1.287416270E+03  0.000000000E+00  0.00000E+00  9.000E+00
      25     1     1     2     0     0  8.504824409E+01  5.459092631E+00 -1.819298855E+02  2.366146418E+02  1.250000000E+02  0.00000E+00  9.000E+00
      25     1     1     2     0     0  5.643841056E+00 -8.754198083E+01  1.190758949E+02  1.936479282E+02  1.250000000E+02  0.00000E+00  9.000E+00
      21     1     1     2   511   501 -9.069208514E+01  8.208288820E+01 -1.037264163E+03  1.044451817E+03  1.525878906E-05  0.00000E+00  9.000E+00
#rwgt            1           1   4.6763694891345353E-002           9      202701           0
</event>
<event>
      5   9999  3.79277E-02  5.29132E+01 -1.00000E+00  1.37687E-01
      21    -1     0     0   502   501  0.000000000E+00  0.000000000E+00  3.893399260E+02  3.893399260E+02  0.000000000E+00  0.00000E+00  9.000E+00
      21    -1     0     0   501   512  0.000000000E+00  0.000000000E+00 -3.818444793E+02  3.818444793E+02  0.000000000E+00  0.00000E+00  9.000E+00
      25     1     1     2     0     0  9.673903851E+01 -1.207013050E+02  8.744296562E+01  2.172522010E+02  1.250000000E+02  0.00000E+00  9.000E+00
      25     1     1     2     0     0 -7.573407752E+01  1.692666705E+02  1.809821750E+02  2.876915082E+02  1.250000000E+02  0.00000E+00  9.000E+00
      21     1     1     2   502   512 -2.100496099E+01 -4.856536546E+01 -2.609296939E+02  2.662406961E+02  3.814697266E-06  0.00000E+00  9.000E+00
#rwgt            1           1   4.2229667481237187E-002           9      202788           0
</event>
<event>
      5   9999  3.79277E-02  2.20343E+02 -1.00000E+00  1.10138E-01
      21    -1     0     0   502   501  0.000000000E+00  0.000000000E+00  1.221762895E+03  1.221762895E+03  0.000000000E+00  0.00000E+00  9.000E+00
      21    -1     0     0   501   511  0.000000000E+00  0.000000000E+00 -4.653909553E+02  4.653909553E+02  0.000000000E+00  0.00000E+00  9.000E+00
      25     1     1     2     0     0 -1.360599122E+02  7.430927572E+01  5.733577459E+02  6.069582135E+02  1.250000000E+02  0.00000E+00  9.000E+00
      25     1     1     2     0     0  3.134350725E+02 -2.050340166E+02  5.350011065E+02  6.649298283E+02  1.250000000E+02  0.00000E+00  9.000E+00
      21     1     1     2   502   511 -1.773751603E+02  1.307247409E+02 -3.519869124E+02  4.152658087E+02  3.814697266E-06  0.00000E+00  9.000E+00
#rwgt            1           1   4.2789255282293548E-002           9      202916           0
</event>
<event>
      5   9999  3.79277E-02  6.41283E+01 -1.00000E+00  1.33177E-01
      21    -1     0     0   502   501  0.000000000E+00  0.000000000E+00  1.523260499E+03  1.523260499E+03  0.000000000E+00  0.00000E+00  9.000E+00
      21    -1     0     0   512   502  0.000000000E+00  0.000000000E+00 -8.191192616E+01  8.191192616E+01  0.000000000E+00  0.00000E+00  9.000E+00
      25     1     1     2     0     0 -1.022712061E+02  1.462872010E+02  1.156227709E+03  1.176582704E+03  1.250000000E+02  0.00000E+00  9.000E+00
      25     1     1     2     0     0  1.462157080E+02 -9.958266592E+01  2.925701394E+02  3.640302557E+02  1.250000000E+02  0.00000E+00  9.000E+00
      21     1     1     2   512   501 -4.394450186E+01 -4.670453504E+01 -7.449275621E+00  6.455946518E+01  1.121454699E-06  0.00000E+00  9.000E+00
#rwgt            1           1   3.8201697296942734E-002           9      202950           0
</event>
<event>
      5   9999  3.79277E-02  1.56194E+01 -1.00000E+00  1.75744E-01
      21    -1     0     0   511   501  0.000000000E+00  0.000000000E+00  2.731148922E+02  2.731148922E+02  0.000000000E+00  0.00000E+00  9.000E+00
      21    -1     0     0   501   502  0.000000000E+00  0.000000000E+00 -3.870137421E+02  3.870137421E+02  0.000000000E+00  0.00000E+00  9.000E+00
      25     1     1     2     0     0 -2.671039918E+01  1.008918354E+02  1.984075148E+02  2.566771315E+02  1.250000000E+02  0.00000E+00  9.000E+00
      25     1     1     2     0     0  4.069445151E+01 -9.393405125E+01 -3.372878758E+02  3.739889778E+02  1.250000000E+02  0.00000E+00  9.000E+00
      21     1     1     2   511   502 -1.398405234E+01 -6.957784169E+00  2.498151110E+01  2.946252496E+01  3.371747881E-07  0.00000E+00  9.000E+00
#rwgt            1           1   3.9421655187217339E-002           9      203151           0
</event>
<event>
      5   9999  3.79277E-02  1.44850E+02 -1.00000E+00  1.16998E-01
      21    -1     0     0   502   501  0.000000000E+00  0.000000000E+00  3.111115276E+03  3.111115276E+03  0.000000000E+00  0.00000E+00  9.000E+00
       3    -1     0     0   501     0  0.000000000E+00  0.000000000E+00 -2.722849450E+01  2.722849450E+01  0.000000000E+00  0.00000E+00  9.000E+00
      25     1     1     2     0     0 -1.108404661E+02  8.947330172E+01  2.182229543E+03  2.190443302E+03  1.250000000E+02  0.00000E+00  9.000E+00
      25     1     1     2     0     0  2.985285545E+01  3.062108419E+01  2.801731990E+02  3.097593667E+02  1.250000000E+02  0.00000E+00  9.000E+00
       3     1     1     2   502     0  8.098761068E+01 -1.200943859E+02  6.214840391E+02  6.381411015E+02  1.078959322E-05  0.00000E+00  9.000E+00
#rwgt            1           1   8.9181866151718997E-002           9      203445           0
</event>
<event>
      5   9999  3.79277E-02  9.78365E+00 -1.00000E+00  1.96862E-01
      21    -1     0     0   502   501  0.000000000E+00  0.000000000E+00  6.553052393E+02  6.553052393E+02  0.000000000E+00  0.00000E+00  9.000E+00
      21    -1     0     0   511   502  0.000000000E+00  0.000000000E+00 -1.284236906E+02  1.284236906E+02  0.000000000E+00  0.00000E+00  9.000E+00
      25     1     1     2     0     0 -2.123673258E+02 -1.159787318E+02  1.347110935E+02  3.038470437E+02  1.250000000E+02  0.00000E+00  9.000E+00
      25     1     1     2     0     0  2.029759728E+02  1.132360580E+02  3.880038762E+02  4.692479710E+02  1.250000000E+02  0.00000E+00  9.000E+00
      21     1     1     2   511   501  9.391352969E+00  2.742673794E+00  4.166578960E+00  1.063391510E+01  1.460009660E-07  0.00000E+00  9.000E+00
#rwgt            1           1   4.0843930281057365E-002           9      203495           0
</event>
<event>
      5   9999  3.79277E-02  4.40512E+01 -1.00000E+00  1.42289E-01
      21    -1     0     0   502   501  0.000000000E+00  0.000000000E+00  7.313274566E+01  7.313274566E+01  0.000000000E+00  0.00000E+00  9.000E+00
       1    -1     0     0   501     0  0.000000000E+00  0.000000000E+00 -2.877328798E+03  2.877328798E+03  0.000000000E+00  0.00000E+00  9.000E+00
      25     1     1     2     0     0  1.921345033E+02 -3.301063998E+01 -7.089162584E+02  7.457832333E+02  1.250000000E+02  0.00000E+00  9.000E+00
      25     1     1     2     0     0 -2.072994883E+02  7.436917633E+01 -2.400673525E+02  3.489429552E+02  1.250000000E+02  0.00000E+00  9.000E+00
       1     1     1     2   502     0  1.516498498E+01 -4.135853636E+01 -1.855212441E+03  1.855735355E+03  2.157918644E-05  0.00000E+00  9.000E+00
#rwgt            1           1   2.5174101153859419E-002           9      203717           0
</event>
<event>
      5   9999  3.79277E-02  2.46960E+01 -1.00000E+00  1.59150E-01
      21    -1     0     0   511   501  0.000000000E+00  0.000000000E+00  1.855259437E+02  1.855259437E+02  0.000000000E+00  0.00000E+00  9.000E+00
      21    -1     0     0   501   502  0.000000000E+00  0.000000000E+00 -5.427646085E+02  5.427646085E+02  0.000000000E+00  0.00000E+00  9.000E+00
      25     1     1     2     0     0 -2.472554752E+02  8.825385152E+01 -1.115007687E+02  3.114184223E+02  1.250000000E+02  0.00000E+00  9.000E+00
      25     1     1     2     0     0  2.652853568E+02 -1.051304039E+02 -2.333869886E+02  3.892598217E+02  1.250000000E+02  0.00000E+00  9.000E+00
      21     1     1     2   511   502 -1.802988154E+01  1.687655237E+01 -1.235090749E+01  2.761230819E+01  3.769728732E-07  0.00000E+00  9.000E+00
#rwgt            1           1   4.7237454275016424E-002           9      203871           0
</event>
<event>
      5   9999  3.79277E-02  1.60390E+01 -1.00000E+00  1.74687E-01
      21    -1     0     0   502   512  0.000000000E+00  0.000000000E+00  3.017089437E+02  3.017089437E+02  0.000000000E+00  0.00000E+00  9.000E+00
      21    -1     0     0   501   502  0.000000000E+00  0.000000000E+00 -2.144247960E+02  2.144247960E+02  0.000000000E+00  0.00000E+00  9.000E+00
      25     1     1     2     0     0 -1.424343663E+02 -1.266516076E+02  6.008094600E+01  2.357178365E+02  1.250000000E+02  0.00000E+00  9.000E+00
      25     1     1     2     0     0  1.307068627E+02  1.157101348E+02 -3.379153855E+01  2.173476186E+02  1.250000000E+02  0.00000E+00  9.000E+00
      21     1     1     2   501   512  1.172750352E+01  1.094147280E+01  6.099474025E+01  6.306828445E+01  1.348699152E-06  0.00000E+00  9.000E+00
#rwgt            1           1   3.6272040244634353E-002           9      204153           0
</event>
<event>
      5   9999  3.79277E-02  2.60573E+01 -1.00000E+00  1.57415E-01
      21    -1     0     0   502   501  0.000000000E+00  0.000000000E+00  8.485743095E+01  8.485743095E+01  0.000000000E+00  0.00000E+00  9.000E+00
      21    -1     0     0   501   511  0.000000000E+00  0.000000000E+00 -4.784906116E+02  4.784906116E+02  0.000000000E+00  0.00000E+00  9.000E+00
      25     1     1     2     0     0  1.225440487E+02 -6.455194565E+01 -2.107976510E+02  2.815042580E+02  1.250000000E+02  0.00000E+00  9.000E+00
      25     1     1     2     0     0 -1.102774128E+02  4.156251661E+01 -1.087825269E+02  2.033400814E+02  1.250000000E+02  0.00000E+00  9.000E+00
      21     1     1     2   502   511 -1.226663596E+01  2.298942904E+01 -7.405300270E+01  7.850370319E+01  9.536743164E-07  0.00000E+00  9.000E+00
#rwgt            1           1   2.0703161996279279E-002           9      204338           0
</event>
<event>
      5   9999  3.79277E-02  2.41775E+01 -1.00000E+00  1.59847E-01
      21    -1     0     0   502   501  0.000000000E+00  0.000000000E+00  1.124843404E+02  1.124843404E+02  0.000000000E+00  0.00000E+00  9.000E+00
      21    -1     0     0   501   512  0.000000000E+00  0.000000000E+00 -2.674180046E+02  2.674180046E+02  0.000000000E+00  0.00000E+00  9.000E+00
      25     1     1     2     0     0 -5.171494369E+01  1.447892428E+01 -1.207242556E+02  1.818884838E+02  1.250000000E+02  0.00000E+00  9.000E+00
      25     1     1     2     0     0  2.763124255E+01 -1.660694031E+01  2.728065865E+01  1.319413141E+02  1.250000000E+02  0.00000E+00  9.000E+00
      21     1     1     2   502   512  2.408370114E+01  2.128016030E+00 -6.149006720E+01  6.607254707E+01  6.743495762E-07  0.00000E+00  9.000E+00
#rwgt            1           1  0.10805785329052488                9      204495           0
</event>
<event>
      5   9999  3.79277E-02  8.50236E+01 -1.00000E+00  1.27082E-01
      21    -1     0     0   502   511  0.000000000E+00  0.000000000E+00  1.173073680E+03  1.173073680E+03  0.000000000E+00  0.00000E+00  9.000E+00
      21    -1     0     0   501   502  0.000000000E+00  0.000000000E+00 -1.163587226E+02  1.163587226E+02  0.000000000E+00  0.00000E+00  9.000E+00
      25     1     1     2     0     0 -1.729484339E+02  8.381232144E+01  1.194677413E+02  2.585211929E+02  1.250000000E+02  0.00000E+00  9.000E+00
      25     1     1     2     0     0  2.492060477E+02 -1.214127410E+02  4.979256238E+02  5.834377728E+02  1.250000000E+02  0.00000E+00  9.000E+00
      21     1     1     2   501   511 -7.625761385E+01  3.760041953E+01  4.393215925E+02  4.474734370E+02  7.629394531E-06  0.00000E+00  9.000E+00
#rwgt            1           1   3.7678301481181675E-002           9      204654           0
</event>
<event>
      5   9999  3.79277E-02  8.77081E+00 -1.00000E+00  2.02581E-01
      21    -1     0     0   502   501  0.000000000E+00  0.000000000E+00  6.300372058E+01  6.300372058E+01  0.000000000E+00  0.00000E+00  9.000E+00
      21    -1     0     0   501   512  0.000000000E+00  0.000000000E+00 -1.718951937E+03  1.718951937E+03  0.000000000E+00  0.00000E+00  9.000E+00
      25     1     1     2     0     0  1.473312344E+02  7.649935012E+01 -8.889553984E+02  9.129213239E+02  1.250000000E+02  0.00000E+00  9.000E+00
      25     1     1     2     0     0 -1.533245639E+02 -7.009566895E+01 -1.649743610E+02  2.669519891E+02  1.250000000E+02  0.00000E+00  9.000E+00
      21     1     1     2   502   512  5.993329453E+00 -6.403681170E+00 -6.020184565E+02  6.020823441E+02  0.000000000E+00  0.00000E+00  9.000E+00
#rwgt            1           1   3.5322269440606055E-002           9      204739           0
</event>
<event>
      5   9999  3.79277E-02  5.67059E+01 -1.00000E+00  1.36027E-01
      21    -1     0     0   502   501  0.000000000E+00  0.000000000E+00  4.060167909E+02  4.060167909E+02  0.000000000E+00  0.00000E+00  9.000E+00
      21    -1     0     0   511   502  0.000000000E+00  0.000000000E+00 -4.419974740E+02  4.419974740E+02  0.000000000E+00  0.00000E+00  9.000E+00
      25     1     1     2     0     0  3.158938628E+02 -5.855432773E+01  2.312976712E+01  3.455105324E+02  1.250000000E+02  0.00000E+00  9.000E+00
      25     1     1     2     0     0 -3.555063440E+02  1.797831534E+01  4.898514262E+01  3.804372808E+02  1.250000000E+02  0.00000E+00  9.000E+00
      21     1     1     2   511   501  3.961248118E+01  4.057601239E+01 -1.080955928E+02  1.220664517E+02  2.336015456E-06  0.00000E+00  9.000E+00
#rwgt            1           1   2.9690021960938315E-002           9      205057           0
</event>
<event>
      5   9999  3.79277E-02  4.64687E+01 -1.00000E+00  1.40915E-01
      21    -1     0     0   502   501  0.000000000E+00  0.000000000E+00  6.653333981E+02  6.653333981E+02  0.000000000E+00  0.00000E+00  9.000E+00
      21    -1     0     0   501   512  0.000000000E+00  0.000000000E+00 -6.995804139E+01  6.995804139E+01  0.000000000E+00  0.00000E+00  9.000E+00
      25     1     1     2     0     0 -3.676639847E+01 -1.289085899E+02  4.078345547E+02  4.471277408E+02  1.250000000E+02  0.00000E+00  9.000E+00
      25     1     1     2     0     0 -3.028702118E+00  1.049149727E+02  1.764968130E+02  2.404006022E+02  1.250000000E+02  0.00000E+00  9.000E+00
      21     1     1     2   502   512  3.979510059E+01  2.399361720E+01  1.104398905E+01  4.776309654E+01  1.168007728E-06  0.00000E+00  9.000E+00
#rwgt            2          11   1.7374033110726344E-003           9      205119           0
</event>
<event>
      5   9999  3.79277E-02  1.26948E+02 -1.00000E+00  1.19340E-01
      21    -1     0     0   502   501  0.000000000E+00  0.000000000E+00  2.289740113E+02  2.289740113E+02  0.000000000E+00  0.00000E+00  9.000E+00
      21    -1     0     0   501   511  0.000000000E+00  0.000000000E+00 -7.926333416E+02  7.926333416E+02  0.000000000E+00  0.00000E+00  9.000E+00
      25     1     1     2     0     0  3.449636058E+00  1.018883207E+02  2.269061796E+01  1.628895148E+02  1.250000000E+02  0.00000E+00  9.000E+00
      25     1     1     2     0     0  9.128884397E+01 -1.863886291E+02  1.631443916E+01  2.428282006E+02  1.250000000E+02  0.00000E+00  9.000E+00
      21     1     1     2   502   511 -9.473848003E+01  8.450030840E+01 -6.026643874E+02  6.158896375E+02  0.000000000E+00  0.00000E+00  9.000E+00
#rwgt            1           1   1.4899545172169865E-002           9      205229           0
</event>
<event>
      5   9999 -3.79277E-02  2.59322E+01 -1.00000E+00  1.57569E-01
      21    -1     0     0   512   501  0.000000000E+00  0.000000000E+00  5.197794994E+02  5.197794994E+02  0.000000000E+00  0.00000E+00  9.000E+00
      21    -1     0     0   501   502  0.000000000E+00  0.000000000E+00 -1.659421777E+02  1.659421777E+02  0.000000000E+00  0.00000E+00  9.000E+00
      25     1     1     2     0     0  1.135184927E+02  2.023176009E+02  1.566474417E+02  3.065652962E+02  1.250000000E+02  0.00000E+00  9.000E+00
      25     1     1     2     0     0 -1.342229769E+02 -2.179317960E+02  1.422126713E+02  3.183700977E+02  1.250000000E+02  0.00000E+00  9.000E+00
      21     1     1     2   512   502  2.070448414E+01  1.561419512E+01  5.497720867E+01  6.078628321E+01  1.168007728E-06  0.00000E+00  9.000E+00
#rwgt            1           1  -2.1337926717410874E-002           9      205278           0
</event>
<event>
      5   9999  3.79277E-02  5.13324E+01 -1.00000E+00  1.38427E-01
      21    -1     0     0   502   511  0.000000000E+00  0.000000000E+00  4.505859209E+02  4.505859209E+02  0.000000000E+00  0.00000E+00  9.000E+00
      21    -1     0     0   501   502  0.000000000E+00  0.000000000E+00 -3.759515366E+02  3.759515366E+02  0.000000000E+00  0.00000E+00  9.000E+00
      25     1     1     2     0     0 -7.685507792E+01 -8.225682375E+01 -2.912850295E+02  3.363701183E+02  1.250000000E+02  0.00000E+00  9.000E+00
      25     1     1     2     0     0  7.154270187E+01  1.333135733E+02  1.017622728E+02  2.210688290E+02  1.250000000E+02  0.00000E+00  9.000E+00
      21     1     1     2   501   511  5.312376058E+00 -5.105674952E+01  2.641571410E+02  2.690985101E+02  0.000000000E+00  0.00000E+00  9.000E+00
#rwgt            1           1   4.6086496219299063E-002           9      205480           0
</event>
<event>
      5   9999  3.79277E-02  4.82742E+01 -1.00000E+00  1.39952E-01
      21    -1     0     0   502   501  0.000000000E+00  0.000000000E+00  3.899789182E+02  3.899789182E+02  0.000000000E+00  0.00000E+00  9.000E+00
      21    -1     0     0   512   502  0.000000000E+00  0.000000000E+00 -3.124933110E+02  3.124933110E+02  0.000000000E+00  0.00000E+00  9.000E+00
      25     1     1     2     0     0  9.080631968E+01 -3.991439540E+01  2.755608225E+01  1.619360501E+02  1.250000000E+02  0.00000E+00  9.000E+00
      25     1     1     2     0     0 -1.017988681E+02 -7.091632814E+00  2.703752091E+02  3.148667250E+02  1.250000000E+02  0.00000E+00  9.000E+00
      21     1     1     2   512   501  1.099254843E+01  4.700602821E+01 -2.204456842E+02  2.256694541E+02  0.000000000E+00  0.00000E+00  9.000E+00
#rwgt            1           1   4.4436816210257732E-002           9      205593           0
</event>
<event>
      5   9999  3.79277E-02  2.30690E+01 -1.00000E+00  1.61411E-01
      21    -1     0     0   502   501  0.000000000E+00  0.000000000E+00  4.491759359E+02  4.491759359E+02  0.000000000E+00  0.00000E+00  9.000E+00
      21    -1     0     0   501   511  0.000000000E+00  0.000000000E+00 -1.672273772E+02  1.672273772E+02  0.000000000E+00  0.00000E+00  9.000E+00
      25     1     1     2     0     0 -9.079869355E+01  1.437523476E+02  2.787362915E+02  3.496112990E+02  1.250000000E+02  0.00000E+00  9.000E+00
      25     1     1     2     0     0  7.058881306E+01 -1.548761805E+02  4.786653668E+01  2.165308688E+02  1.250000000E+02  0.00000E+00  9.000E+00
      21     1     1     2   502   511  2.020988049E+01  1.112383289E+01 -4.465426951E+01  5.026114516E+01  4.768371582E-07  0.00000E+00  9.000E+00
#rwgt            1           1   4.4839603066581371E-002           9      205667           0
</event>
<event>
      5   9999  3.79277E-02  2.85456E+01 -1.00000E+00  1.54554E-01
      21    -1     0     0   502   501  0.000000000E+00  0.000000000E+00  6.201865866E+02  6.201865866E+02  0.000000000E+00  0.00000E+00  9.000E+00
      21    -1     0     0   501   512  0.000000000E+00  0.000000000E+00 -1.051554216E+02  1.051554216E+02  0.000000000E+00  0.00000E+00  9.000E+00
      25     1     1     2     0     0  6.669984074E+01 -1.017767119E+02  4.616459959E+02  4.935072374E+02  1.250000000E+02  0.00000E+00  9.000E+00
      25     1     1     2     0     0 -5.256717250E+01  1.265783277E+02  7.062175275E+01  1.984888224E+02  1.250000000E+02  0.00000E+00  9.000E+00
      21     1     1     2   502   512 -1.413266825E+01 -2.480161582E+01 -1.723658364E+01  3.334594840E+01  6.743495762E-07  0.00000E+00  9.000E+00
#rwgt            1           1   3.8390374685479310E-002           9      205775           0
</event>
<event>
      5   9999  3.79277E-02  4.54977E+01 -1.00000E+00  1.41455E-01
      21    -1     0     0   502   501  0.000000000E+00  0.000000000E+00  3.748527122E+01  3.748527122E+01  0.000000000E+00  0.00000E+00  9.000E+00
      21    -1     0     0   511   502  0.000000000E+00  0.000000000E+00 -1.360793024E+03  1.360793024E+03  0.000000000E+00  0.00000E+00  9.000E+00
      25     1     1     2     0     0  1.009943041E+02 -3.036792254E+01 -3.057130561E+02  3.467095800E+02  1.250000000E+02  0.00000E+00  9.000E+00
      25     1     1     2     0     0 -1.348781800E+02  6.073107456E+01 -5.770450959E+02  6.086759643E+02  1.250000000E+02  0.00000E+00  9.000E+00
      21     1     1     2   511   501  3.388387589E+01 -3.036315202E+01 -4.405496010E+02  4.428927512E+02  7.629394531E-06  0.00000E+00  9.000E+00
#rwgt            1           1  0.18294815966520211                9      205962           0
</event>
<event>
      5   9999  3.79277E-02  1.46319E+02 -1.00000E+00  1.16823E-01
      21    -1     0     0   502   501  0.000000000E+00  0.000000000E+00  1.626536384E+02  1.626536384E+02  0.000000000E+00  0.00000E+00  9.000E+00
      21    -1     0     0   501   512  0.000000000E+00  0.000000000E+00 -1.501740310E+03  1.501740310E+03  0.000000000E+00  0.00000E+00  9.000E+00
      25     1     1     2     0     0 -1.419801422E+00  6.181559174E+01  1.036268025E+02  1.737431939E+02  1.250000000E+02  0.00000E+00  9.000E+00
      25     1     1     2     0     0  5.701210642E+01  7.353088026E+01 -2.948080059E+02  3.334575400E+02  1.250000000E+02  0.00000E+00  9.000E+00
      21     1     1     2   502   512 -5.559230500E+01 -1.353464720E+02 -1.147905468E+03  1.157193214E+03  1.525878906E-05  0.00000E+00  9.000E+00
#rwgt            2          11   1.1924911049665261E-003           9      206054           0
</event>
<event>
      5   9999  3.79277E-02  1.76500E+02 -1.00000E+00  1.13661E-01
      21    -1     0     0   502   501  0.000000000E+00  0.000000000E+00  3.158731385E+02  3.158731385E+02  0.000000000E+00  0.00000E+00  9.000E+00
      -1    -1     0     0     0   502  0.000000000E+00  0.000000000E+00 -5.466798678E+02  5.466798678E+02  0.000000000E+00  0.00000E+00  9.000E+00
      25     1     1     2     0     0  2.025984247E+02  1.414447904E+02 -5.978873629E+01  2.832886221E+02  1.250000000E+02  0.00000E+00  9.000E+00
      25     1     1     2     0     0 -5.381191469E+01 -2.363912211E+02  6.897940768E+01  2.813533192E+02  1.250000000E+02  0.00000E+00  9.000E+00
      -1     1     1     2     0   501 -1.487865100E+02  9.494643064E+01 -2.399974007E+02  2.979110649E+02  0.000000000E+00  0.00000E+00  9.000E+00
#rwgt            2          10   6.2729206026260412E-005           9      206359           0
</event>
<event>
      5   9999  3.79277E-02  1.17276E+01 -1.00000E+00  1.88083E-01
      21    -1     0     0   502   501  0.000000000E+00  0.000000000E+00  6.016921455E+02  6.016921455E+02  0.000000000E+00  0.00000E+00  9.000E+00
      21    -1     0     0   511   502  0.000000000E+00  0.000000000E+00 -8.361846103E+01  8.361846103E+01  0.000000000E+00  0.00000E+00  9.000E+00
      25     1     1     2     0     0  6.697076169E+01 -1.393258616E+02  3.465656843E+02  3.995366719E+02  1.250000000E+02  0.00000E+00  9.000E+00
      25     1     1     2     0     0 -7.841113391E+01  1.367461584E+02  1.810530224E+02  2.706529414E+02  1.250000000E+02  0.00000E+00  9.000E+00
      21     1     1     2   511   501  1.144037222E+01  2.579703165E+00 -9.545022324E+00  1.512099323E+01  1.685873940E-07  0.00000E+00  9.000E+00
#rwgt            1           1   3.7004356999531113E-002           9      206453           0
</event>
<event>
      5   9999 -3.79277E-02  1.12595E+02 -1.00000E+00  1.21554E-01
      21    -1     0     0   502   501  0.000000000E+00  0.000000000E+00  2.183687763E+02  2.183687763E+02  0.000000000E+00  0.00000E+00  9.000E+00
      21    -1     0     0   501   512  0.000000000E+00  0.000000000E+00 -5.490577945E+02  5.490577945E+02  0.000000000E+00  0.00000E+00  9.000E+00
      25     1     1     2     0     0 -4.154341580E+01  1.936138579E+02 -1.491636654E+02  2.776454222E+02  1.250000000E+02  0.00000E+00  9.000E+00
      25     1     1     2     0     0  4.124423442E+01 -3.062084282E+02 -9.153284248E+01  3.456413599E+02  1.250000000E+02  0.00000E+00  9.000E+00
      21     1     1     2   502   512  2.991813852E-01  1.125945703E+02 -8.999251032E+01  1.441397887E+02  1.907348633E-06  0.00000E+00  9.000E+00
#rwgt            1           1 -0.14039328576548016                9      206740           0
</event>
<event>
      5   9999  3.79277E-02  1.10755E+01 -1.00000E+00  1.90765E-01
       1    -1     0     0   502     0  0.000000000E+00  0.000000000E+00  5.099956603E+02  5.099956603E+02  0.000000000E+00  0.00000E+00  9.000E+00
      21    -1     0     0   501   502  0.000000000E+00  0.000000000E+00 -9.653018744E+01  9.653018744E+01  0.000000000E+00  0.00000E+00  9.000E+00
      25     1     1     2     0     0 -7.480728929E+00  6.030484335E-01  1.249244475E+02  1.768825671E+02  1.250000000E+02  0.00000E+00  9.000E+00
      25     1     1     2     0     0  1.650032701E+01  5.824490088E+00 -1.391592506E+01  1.269836149E+02  1.250000000E+02  0.00000E+00  9.000E+00
       1     1     1     2   501     0 -9.019598078E+00 -6.427538521E+00  3.024569504E+02  3.026596657E+02  5.394796609E-06  0.00000E+00  9.000E+00
#rwgt            1           1   5.6186271556812002E-002           9      206848           0
</event>
<event>
      5   9999 -3.79277E-02  1.84470E+02 -1.00000E+00  1.12941E-01
      21    -1     0     0   502   501  0.000000000E+00  0.000000000E+00  3.760676114E+02  3.760676114E+02  0.000000000E+00  0.00000E+00  9.000E+00
       1    -1     0     0   501     0  0.000000000E+00  0.000000000E+00 -6.973966488E+02  6.973966488E+02  0.000000000E+00  0.00000E+00  9.000E+00
      25     1     1     2     0     0  6.152179143E+01 -2.562946423E+02 -9.687320396E+01  3.073780931E+02  1.250000000E+02  0.00000E+00  9.000E+00
      25     1     1     2     0     0 -7.876389915E+01  7.263256901E+01  2.258353361E+02  2.794742223E+02  1.250000000E+02  0.00000E+00  9.000E+00
       1     1     1     2   502     0  1.724210772E+01  1.836620733E+02 -4.502911695E+02  4.866119448E+02  5.394796609E-06  0.00000E+00  9.000E+00
#rwgt            1           1  -9.4164721638083079E-002           9      207052           0
</event>
<event>
      5   9999  3.79277E-02  1.28717E+02 -1.00000E+00  1.19090E-01
      21    -1     0     0   511   501  0.000000000E+00  0.000000000E+00  6.316220049E+02  6.316220049E+02  0.000000000E+00  0.00000E+00  9.000E+00
      21    -1     0     0   501   502  0.000000000E+00  0.000000000E+00 -3.558106735E+02  3.558106735E+02  0.000000000E+00  0.00000E+00  9.000E+00
      25     1     1     2     0     0  1.095060091E+02 -1.764664233E+02 -6.526279996E+01  2.510302723E+02  1.250000000E+02  0.00000E+00  9.000E+00
      25     1     1     2     0     0 -2.103022327E+00  2.474075264E+02 -8.609446754E+01  2.902622335E+02  1.250000000E+02  0.00000E+00  9.000E+00
      21     1     1     2   511   502 -1.074029867E+02 -7.094110315E+01  4.271685989E+02  4.461401726E+02  0.000000000E+00  0.00000E+00  9.000E+00
#rwgt            2          11   2.3168403332366637E-003           9      207176           0
</event>
<event>
      5   9999  3.79277E-02  2.85536E+01 -1.00000E+00  1.54546E-01
      21    -1     0     0   502   512  0.000000000E+00  0.000000000E+00  6.287795634E+01  6.287795634E+01  0.000000000E+00  0.00000E+00  9.000E+00
      21    -1     0     0   501   502  0.000000000E+00  0.000000000E+00 -2.106767792E+03  2.106767792E+03  0.000000000E+00  0.00000E+00  9.000E+00
      25     1     1     2     0     0  1.761233680E+02 -2.049686393E+01 -1.652775555E+03  1.666952788E+03  1.250000000E+02  0.00000E+00  9.000E+00
      25     1     1     2     0     0 -1.538722750E+02  2.602851398E+00 -4.185257270E+02  4.631114725E+02  1.250000000E+02  0.00000E+00  9.000E+00
      21     1     1     2   501   512 -2.225109303E+01  1.789401253E+01  2.741144604E+01  3.958148809E+01  2.500555153E-06  0.00000E+00  9.000E+00
#rwgt            1           1   2.5656391144911136E-002           9      207331           0
</event>
<event>
      5   9999  3.79277E-02  5.49491E+01 -1.00000E+00  1.36776E-01
      21    -1     0     0   502   511  0.000000000E+00  0.000000000E+00  2.830270595E+02  2.830270595E+02  0.000000000E+00  0.00000E+00  9.000E+00
      21    -1     0     0   501   502  0.000000000E+00  0.000000000E+00 -3.297791886E+02  3.297791886E+02  0.000000000E+00  0.00000E+00  9.000E+00
      25     1     1     2     0     0 -1.376648270E+02  1.006446091E+02  1.679788588E+02  2.700422910E+02  1.250000000E+02  0.00000E+00  9.000E+00
      25     1     1     2     0     0  8.291446228E+01 -9.597518787E+01 -2.249182501E+02  2.868784829E+02  1.250000000E+02  0.00000E+00  9.000E+00
      21     1     1     2   501   511  5.475036467E+01 -4.669421191E+00  1.018726216E+01  5.588547428E+01  1.244581522E-06  0.00000E+00  9.000E+00
#rwgt            1           1   3.6949155485286850E-002           9      207465           0
</event>
<event>
      5   9999  3.79277E-02  1.92573E+01 -1.00000E+00  1.67737E-01
      21    -1     0     0   502   501  0.000000000E+00  0.000000000E+00  1.290286045E+02  1.290286045E+02  0.000000000E+00  0.00000E+00  9.000E+00
      21    -1     0     0   512   502  0.000000000E+00  0.000000000E+00 -9.407443681E+02  9.407443681E+02  0.000000000E+00  0.00000E+00  9.000E+00
      25     1     1     2     0     0 -1.581361667E+02 -1.234219298E+02 -2.355691878E+02  3.337032547E+02  1.250000000E+02  0.00000E+00  9.000E+00
      25     1     1     2     0     0  1.404217157E+02  1.309744500E+02 -8.474879280E+01  2.442947455E+02  1.250000000E+02  0.00000E+00  9.000E+00
      21     1     1     2   512   501  1.771445099E+01 -7.552520217E+00 -4.913977830E+02  4.917749724E+02  5.394796609E-06  0.00000E+00  9.000E+00
#rwgt            1           1   3.4424806428284521E-002           9      207590           0
</event>
<event>
      5   9999  3.79277E-02  7.03485E+01 -1.00000E+00  1.31112E-01
      21    -1     0     0   502   511  0.000000000E+00  0.000000000E+00  1.846512165E+02  1.846512165E+02  0.000000000E+00  0.00000E+00  9.000E+00
      21    -1     0     0   501   502  0.000000000E+00  0.000000000E+00 -2.480272282E+02  2.480272282E+02  0.000000000E+00  0.00000E+00  9.000E+00
      25     1     1     2     0     0  1.959853443E+01 -9.024359173E+01 -7.020851886E+01  1.705351709E+02  1.250000000E+02  0.00000E+00  9.000E+00
      25     1     1     2     0     0 -8.574943279E+01  1.141804269E+02 -9.168792395E+00  1.899978996E+02  1.250000000E+02  0.00000E+00  9.000E+00
      21     1     1     2   501   511  6.615089837E+01 -2.393683513E+01  1.600129960E+01  7.214537421E+01  1.599360450E-06  0.00000E+00  9.000E+00
#rwgt            1           1   3.4236228571042832E-002           9      207827           0
</event>
<event>
      5   9999 -3.79277E-02  6.21871E+01 -1.00000E+00  1.33878E-01
      21    -1     0     0   502   501  0.000000000E+00  0.000000000E+00  2.595246173E+02  2.595246173E+02  0.000000000E+00  0.00000E+00  9.000E+00
      21    -1     0     0   501   512  0.000000000E+00  0.000000000E+00 -4.647866535E+02  4.647866535E+02  0.000000000E+00  0.00000E+00  9.000E+00
      25     1     1     2     0     0  1.250561600E+02 -1.169316503E+02 -3.008614559E+01  2.141079872E+02  1.250000000E+02  0.00000E+00  9.000E+00
      25     1     1     2     0     0 -1.723469250E+02  1.573149812E+02  5.619708984E+01  2.706188811E+02  1.250000000E+02  0.00000E+00  9.000E+00
      21     1     1     2   502   512  4.729076501E+01 -4.038333089E+01 -2.313729805E+02  2.395844026E+02  2.697398305E-06  0.00000E+00  9.000E+00
#rwgt            1           1 -0.20964202712077834                9      207900           0
</event>
<event>
      5   9999 -3.79277E-02  1.51668E+01 -1.00000E+00  1.76932E-01
      21    -1     0     0   502   501  0.000000000E+00  0.000000000E+00  5.673491480E+02  5.673491480E+02  0.000000000E+00  0.00000E+00  9.000E+00
      21    -1     0     0   511   502  0.000000000E+00  0.000000000E+00 -1.475951831E+02  1.475951831E+02  0.000000000E+00  0.00000E+00  9.000E+00
      25     1     1     2     0     0  1.352608842E+02  4.701814022E+01  4.559181302E+02  4.939560241E+02  1.250000000E+02  0.00000E+00  9.000E+00
      25     1     1     2     0     0 -1.458920927E+02 -5.783522149E+01 -2.506620591E+01  2.021947829E+02  1.250000000E+02  0.00000E+00  9.000E+00
      21     1     1     2   511   501  1.063120853E+01  1.081708127E+01 -1.109795937E+01  1.879352399E+01  1.192092896E-07  0.00000E+00  9.000E+00
#rwgt            1           1  -5.5907781886211406E-002           9      208087           0
</event>
<event>
      5   9999  3.79277E-02  1.43905E+02 -1.00000E+00  1.17112E-01
      21    -1     0     0   502   501  0.000000000E+00  0.000000000E+00  5.901425648E+02  5.901425648E+02  0.000000000E+00  0.00000E+00  9.000E+00
      21    -1     0     0   501   512  0.000000000E+00  0.000000000E+00 -1.655801399E+02  1.655801399E+02  0.000000000E+00  0.00000E+00  9.000E+00
      25     1     1     2     0     0 -9.531816484E+01  4.954474288E+01  3.401256795E+02  3.779559656E+02  1.250000000E+02  0.00000E+00  9.000E+00
      25     1     1     2     0     0  1.690959281E+02  7.400858667E+01  3.529188960E+01  2.257016200E+02  1.250000000E+02  0.00000E+00  9.000E+00
      21     1     1     2   502   512 -7.377776324E+01 -1.235533295E+02  4.914485585E+01  1.520651191E+02  2.132480600E-06  0.00000E+00  9.000E+00
#rwgt            1           1   4.0241254867628938E-002           9      208366           0
</event>
<event>
      5   9999  3.79277E-02  7.27763E+01 -1.00000E+00  1.30371E-01
      21    -1     0     0   502   511  0.000000000E+00  0.000000000E+00  3.164654163E+02  3.164654163E+02  0.000000000E+00  0.00000E+00  9.000E+00
      21    -1     0     0   501   502  0.000000000E+00  0.000000000E+00 -3.624266446E+02  3.624266446E+02  0.000000000E+00  0.00000E+00  9.000E+00
      25     1     1     2     0     0 -3.078294519E+01 -1.237638557E+02 -2.654336845E+02  3.199142426E+02  1.250000000E+02  0.00000E+00  9.000E+00
      25     1     1     2     0     0  5.102900060E+01  5.386048968E+01  2.010804256E+01  1.467455097E+02  1.250000000E+02  0.00000E+00  9.000E+00
      21     1     1     2   501   511 -2.024605541E+01  6.990336605E+01  1.993644138E+02  2.122323086E+02  0.000000000E+00  0.00000E+00  9.000E+00
#rwgt            1           1   3.0255733777868624E-002           9      208545           0
</event>
<event>
      5   9999 -3.79277E-02  5.28172E+01 -1.00000E+00  1.37731E-01
      21    -1     0     0   512   501  0.000000000E+00  0.000000000E+00  1.275876403E+03  1.275876403E+03  0.000000000E+00  0.00000E+00  9.000E+00
      21    -1     0     0   501   502  0.000000000E+00  0.000000000E+00 -3.346483751E+01  3.346483751E+01  0.000000000E+00  0.00000E+00  9.000E+00
      25     1     1     2     0     0  6.016269064E+01 -7.586106499E+01  7.897912529E+02  8.054623974E+02  1.250000000E+02  0.00000E+00  9.000E+00
      25     1     1     2     0     0 -1.480379891E+01  1.029206908E+02  2.848186088E+02  3.279610663E+02  1.250000000E+02  0.00000E+00  9.000E+00
      21     1     1     2   512   502 -4.535889173E+01 -2.705962581E+01  1.678017038E+02  1.759177768E+02  2.697398305E-06  0.00000E+00  9.000E+00
#rwgt            1           1  -1.4771405153195005E-002           9      208649           0
</event>
<event>
      5   9999  3.79277E-02  8.06167E+01 -1.00000E+00  1.28188E-01
      21    -1     0     0   502   501  0.000000000E+00  0.000000000E+00  3.022967364E+02  3.022967364E+02  0.000000000E+00  0.00000E+00  9.000E+00
      21    -1     0     0   511   502  0.000000000E+00  0.000000000E+00 -6.259137245E+02  6.259137245E+02  0.000000000E+00  0.00000E+00  9.000E+00
      25     1     1     2     0     0  1.868382147E+02 -1.631771053E+02 -2.927478847E+02  4.035611604E+02  1.250000000E+02  0.00000E+00  9.000E+00
      25     1     1     2     0     0 -2.173694000E+02  8.856541377E+01  1.649171378E+02  3.129152456E+02  1.250000000E+02  0.00000E+00  9.000E+00
      21     1     1     2   511   501  3.053118531E+01  7.461169152E+01 -1.957862412E+02  2.117340550E+02  2.697398305E-06  0.00000E+00  9.000E+00
#rwgt            1           1   4.4320694944841227E-002           9      208777           0
</event>
<event>
      5   9999  3.79277E-02  7.67844E+01 -1.00000E+00  1.29218E-01
      21    -1     0     0   502   501  0.000000000E+00  0.000000000E+00  8.002984047E+02  8.002984047E+02  0.000000000E+00  0.00000E+00  9.000E+00
      21    -1     0     0   512   502  0.000000000E+00  0.000000000E+00 -9.933602285E+01  9.933602285E+01  0.000000000E+00  0.00000E+00  9.000E+00
      25     1     1     2     0     0 -1.611484038E+02 -7.122198700E+01  3.298928226E+02  3.943293723E+02  1.250000000E+02  0.00000E+00  9.000E+00
      25     1     1     2     0     0  2.296164838E+02  3.646617230E+01  3.102658555E+02  4.073615255E+02  1.250000000E+02  0.00000E+00  9.000E+00
      21     1     1     2   512   501 -6.846808002E+01  3.475581471E+01  6.080370380E+01  9.794352982E+01  6.743495762E-07  0.00000E+00  9.000E+00
#rwgt            1           1   2.8329326847839349E-002           9      208881           0
</event>
<event>
      5   9999  3.79277E-02  3.07673E+01 -1.00000E+00  1.52282E-01
      21    -1     0     0   511   501  0.000000000E+00  0.000000000E+00  1.900296269E+02  1.900296269E+02  0.000000000E+00  0.00000E+00  9.000E+00
      21    -1     0     0   501   502  0.000000000E+00  0.000000000E+00 -6.956347773E+02  6.956347773E+02  0.000000000E+00  0.00000E+00  9.000E+00
      25     1     1     2     0     0 -2.791956011E+02 -5.368651016E+01 -4.243315220E+02  5.258466180E+02  1.250000000E+02  0.00000E+00  9.000E+00
      25     1     1     2     0     0  2.495987944E+02  6.209237771E+01 -1.201947506E+02  3.102044480E+02  1.250000000E+02  0.00000E+00  9.000E+00
      21     1     1     2   511   502  2.959680677E+01 -8.405867545E+00  3.892112219E+01  4.961333825E+01  1.348699152E-06  0.00000E+00  9.000E+00
#rwgt            1           1   1.3741688517770538E-002           9      208953           0
</event>
<event>
      5   9999  3.79277E-02  2.16811E+01 -1.00000E+00  1.63528E-01
      21    -1     0     0   502   501  0.000000000E+00  0.000000000E+00  1.322530542E+03  1.322530542E+03  0.000000000E+00  0.00000E+00  9.000E+00
      21    -1     0     0   501   512  0.000000000E+00  0.000000000E+00 -4.515901908E+01  4.515901908E+01  0.000000000E+00  0.00000E+00  9.000E+00
      25     1     1     2     0     0  4.049917804E+01  5.934728168E+01  1.123153049E+03  1.132369222E+03  1.250000000E+02  0.00000E+00  9.000E+00
      25     1     1     2     0     0 -4.968283538E+01 -7.898732455E+01  1.331461841E+02  2.050860500E+02  1.250000000E+02  0.00000E+00  9.000E+00
      21     1     1     2   502   512  9.183657342E+00  1.964004287E+01  2.107229003E+01  3.023428937E+01  0.000000000E+00  0.00000E+00  9.000E+00
#rwgt            1           1   4.0076573359468223E-002           9      209353           0
</event>
<event>
      5   9999  3.79277E-02  3.39871E+01 -1.00000E+00  1.49369E-01
      21    -1     0     0   511   501  0.000000000E+00  0.000000000E+00  2.130590672E+02  2.130590672E+02  0.000000000E+00  0.00000E+00  9.000E+00
      21    -1     0     0   501   502  0.000000000E+00  0.000000000E+00 -2.815254241E+02  2.815254241E+02  0.000000000E+00  0.00000E+00  9.000E+00
      25     1     1     2     0     0  1.372038738E+02 -2.626957230E+01 -8.611990755E+01  2.062925881E+02  1.250000000E+02  0.00000E+00  9.000E+00
      25     1     1     2     0     0 -1.379212295E+02 -7.709973338E+00 -6.628133411E+01  1.977370084E+02  1.250000000E+02  0.00000E+00  9.000E+00
      21     1     1     2   511   502  7.173557035E-01  3.397954564E+01  8.393488473E+01  9.055489493E+01  9.536743164E-07  0.00000E+00  9.000E+00
#rwgt            1           1   3.1055874260144056E-002           9      209594           0
</event>
<event>
      5   9999  3.79277E-02  9.25358E+01 -1.00000E+00  1.25362E-01
      21    -1     0     0   502   501  0.000000000E+00  0.000000000E+00  2.857356102E+02  2.857356102E+02  0.000000000E+00  0.00000E+00  9.000E+00
      21    -1     0     0   512   502  0.000000000E+00  0.000000000E+00 -5.767863685E+02  5.767863685E+02  0.000000000E+00  0.00000E+00  9.000E+00
      25     1     1     2     0     0  2.272443781E+01 -5.296585804E+01  1.406523233E+02  1.967990300E+02  1.250000000E+02  0.00000E+00  9.000E+00
      25     1     1     2     0     0 -1.045949785E+02  9.609463314E+01  3.285498492E+01  1.920383766E+02  1.250000000E+02  0.00000E+00  9.000E+00
      21     1     1     2   512   501  8.187054072E+01 -4.312877511E+01 -4.645580665E+02  4.736845721E+02  5.394796609E-06  0.00000E+00  9.000E+00
#rwgt            1           1   3.8707985998859398E-002           9      209691           0
</event>
<event>
      5   9999 -4.60002E-02  1.95496E+01 -1.00000E+00  1.67190E-01
      21    -1     0     0   511   501  0.000000000E+00  0.000000000E+00  4.033458591E+01  4.033458591E+01  0.000000000E+00  0.00000E+00  9.000E+00
      21    -1     0     0   501   502  0.000000000E+00  0.000000000E+00 -1.800731727E+03  1.800731727E+03  0.000000000E+00  0.00000E+00  9.000E+00
      25     1     1     2     0     0  4.555556679E+01 -2.265056157E+02 -1.009068119E+03  1.042700135E+03  1.250000000E+02  0.00000E+00  9.000E+00
      25     1     1     2     0     0 -4.237091414E+01  2.072171980E+02 -7.255217473E+02  7.659902528E+02  1.250000000E+02  0.00000E+00  9.000E+00
      21     1     1     2   511   502 -3.184652647E+00  1.928841768E+01 -2.580727455E+01  3.237592452E+01  0.000000000E+00  0.00000E+00  9.000E+00
#rwgt            1           1 -0.59431150549892531                9      209809           0
</event>
<event>
      5   9999  3.79277E-02  2.57417E+01 -1.00000E+00  1.57806E-01
      21    -1     0     0   502   501  0.000000000E+00  0.000000000E+00  8.832782386E+02  8.832782386E+02  0.000000000E+00  0.00000E+00  9.000E+00
      21    -1     0     0   501   512  0.000000000E+00  0.000000000E+00 -1.038871142E+02  1.038871142E+02  0.000000000E+00  0.00000E+00  9.000E+00
      25     1     1     2     0     0 -3.659016392E+01  6.897064117E+01  7.337652553E+01  1.646356703E+02  1.250000000E+02  0.00000E+00  9.000E+00
      25     1     1     2     0     0  1.641986015E+01 -8.496416765E+01  7.534093032E+02  7.685955372E+02  1.250000000E+02  0.00000E+00  9.000E+00
      21     1     1     2   502   512  2.017030377E+01  1.599352648E+01 -4.739470434E+01  5.393414543E+01  1.784161275E-06  0.00000E+00  9.000E+00
#rwgt            1           1   4.5421493721608065E-002           9      210110           0
</event>
<event>
      5   9999  3.79277E-02  1.71509E+01 -1.00000E+00  1.72071E-01
      21    -1     0     0   502   501  0.000000000E+00  0.000000000E+00  1.420894699E+03  1.420894699E+03  0.000000000E+00  0.00000E+00  9.000E+00
      -3    -1     0     0     0   502  0.000000000E+00  0.000000000E+00 -7.698870664E+01  7.698870664E+01  0.000000000E+00  0.00000E+00  9.000E+00
      25     1     1     2     0     0  7.427556601E+01  2.673664461E+02  7.503187775E+02  8.096943523E+02  1.250000000E+02  0.00000E+00  9.000E+00
      25     1     1     2     0     0 -8.221894935E+01 -2.521659723E+02  6.016068239E+02  6.692558583E+02  1.250000000E+02  0.00000E+00  9.000E+00
      -3     1     1     2     0   501  7.943383339E+00 -1.520047386E+01 -8.019609133E+00  1.893319506E+01  1.685873940E-07  0.00000E+00  9.000E+00
#rwgt            1           1   3.5468555213965518E-002           9      210287           0
</event>
<event>
      5   9999  3.79277E-02  6.13780E+01 -1.00000E+00  1.34179E-01
      21    -1     0     0   502   511  0.000000000E+00  0.000000000E+00  1.764812973E+03  1.764812973E+03  0.000000000E+00  0.00000E+00  9.000E+00
      21    -1     0     0   501   502  0.000000000E+00  0.000000000E+00 -1.724879508E+02  1.724879508E+02  0.000000000E+00  0.00000E+00  9.000E+00
      25     1     1     2     0     0  6.161415367E+01 -4.067833851E+01 -9.906356267E+01  1.757544327E+02  1.250000000E+02  0.00000E+00  9.000E+00
      25     1     1     2     0     0 -1.169951891E+02  1.421699724E+01  1.796925348E+02  2.486049161E+02  1.250000000E+02  0.00000E+00  9.000E+00
      21     1     1     2   501   511  5.538103538E+01  2.646134127E+01  1.511696050E+03  1.512941575E+03  3.051757812E-05  0.00000E+00  9.000E+00
#rwgt            1           1   4.2376727103326330E-002           9      210505           0
</event>
<event>
      5   9999  3.79277E-02  2.13218E+01 -1.00000E+00  1.64108E-01
      21    -1     0     0   502   501  0.000000000E+00  0.000000000E+00  3.952711985E+02  3.952711985E+02  0.000000000E+00  0.00000E+00  9.000E+00
      21    -1     0     0   512   502  0.000000000E+00  0.000000000E+00 -2.178573647E+02  2.178573647E+02  0.000000000E+00  0.00000E+00  9.000E+00
      25     1     1     2     0     0 -6.584462993E+01 -8.013296150E+00 -1.665164115E+02  2.185233248E+02  1.250000000E+02  0.00000E+00  9.000E+00
      25     1     1     2     0     0  5.382655766E+01  2.562540976E+01  3.464796913E+02  3.731315270E+02  1.250000000E+02  0.00000E+00  9.000E+00
      21     1     1     2   512   501  1.201807226E+01 -1.761211361E+01 -2.549446008E+00  2.147371141E+01  4.977969256E-07  0.00000E+00  9.000E+00
#rwgt            1           1   4.8594553016965199E-002           9      210583           0
</event>
<event>
      5   9999  3.79277E-02  9.15651E+01 -1.00000E+00  1.25574E-01
      21    -1     0     0   502   501  0.000000000E+00  0.000000000E+00  9.974344464E+01  9.974344464E+01  0.000000000E+00  0.00000E+00  9.000E+00
      21    -1     0     0   511   502  0.000000000E+00  0.000000000E+00 -5.367792670E+02  5.367792670E+02  0.000000000E+00  0.00000E+00  9.000E+00
      25     1     1     2     0     0 -1.241879392E+02  3.465597779E+01 -1.232153725E+02  2.177859248E+02  1.250000000E+02  0.00000E+00  9.000E+00
      25     1     1     2     0     0  7.283030605E+01 -1.104620759E+02 -1.754384658E+02  2.528038350E+02  1.250000000E+02  0.00000E+00  9.000E+00
      21     1     1     2   511   501  5.135763310E+01  7.580609813E+01 -1.383819841E+02  1.659329519E+02  2.697398305E-06  0.00000E+00  9.000E+00
#rwgt            2          11   2.3946813840475061E-003           9      210899           0
</event>
<event>
      5   9999  3.79277E-02  6.75341E+01 -1.00000E+00  1.32014E-01
      21    -1     0     0   502   501  0.000000000E+00  0.000000000E+00  1.002529417E+02  1.002529417E+02  0.000000000E+00  0.00000E+00  9.000E+00
      21    -1     0     0   501   512  0.000000000E+00  0.000000000E+00 -5.280333134E+02  5.280333134E+02  0.000000000E+00  0.00000E+00  9.000E+00
      25     1     1     2     0     0  5.462536017E+01  1.746552149E+01 -1.315147584E+02  1.902895323E+02  1.250000000E+02  0.00000E+00  9.000E+00
      25     1     1     2     0     0 -1.181961559E+02 -4.026053063E+01 -5.142510488E+01  1.840129969E+02  1.250000000E+02  0.00000E+00  9.000E+00
      21     1     1     2   502   512  6.357079577E+01  2.279500914E+01 -2.448405084E+02  2.539837260E+02  3.814697266E-06  0.00000E+00  9.000E+00
#rwgt            1           1   4.2419819408618310E-002           9      210949           0
</event>
<event>
      5   9999  3.79277E-02  4.48826E+02 -1.00000E+00  1.00203E-01
      21    -1     0     0   502   511  0.000000000E+00  0.000000000E+00  5.380098341E+02  5.380098341E+02  0.000000000E+00  0.00000E+00  9.000E+00
      21    -1     0     0   501   502  0.000000000E+00  0.000000000E+00 -6.120981434E+02  6.120981434E+02  0.000000000E+00  0.00000E+00  9.000E+00
      25     1     1     2     0     0  6.623408168E+01  1.998203346E+01  9.593371563E+01  1.720886778E+02  1.250000000E+02  0.00000E+00  9.000E+00
      25     1     1     2     0     0  2.665309698E+02 -3.211674092E+02 -2.774465391E+02  5.165160643E+02  1.250000000E+02  0.00000E+00  9.000E+00
      21     1     1     2   501   511 -3.327650515E+02  3.011853757E+02  1.074245142E+02  4.615032354E+02  5.394796609E-06  0.00000E+00  9.000E+00
#rwgt            1           1   1.7857719268646450E-002           9      211081           0
</event>
<event>
      5   9999 -3.79277E-02  7.64714E+01 -1.00000E+00  1.29305E-01
      21    -1     0     0   502   501  0.000000000E+00  0.000000000E+00  7.822319368E+02  7.822319368E+02  0.000000000E+00  0.00000E+00  9.000E+00
      21    -1     0     0   512   502  0.000000000E+00  0.000000000E+00 -1.086255855E+02  1.086255855E+02  0.000000000E+00  0.00000E+00  9.000E+00
      25     1     1     2     0     0 -1.797167126E+02  1.529737977E+02  3.678689434E+02  4.545895282E+02  1.250000000E+02  0.00000E+00  9.000E+00
      25     1     1     2     0     0  1.829822730E+02 -7.657216319E+01  2.223675754E+02  3.231379689E+02  1.250000000E+02  0.00000E+00  9.000E+00
      21     1     1     2   512   501 -3.265560393E+00 -7.640163453E+01  8.336983249E+01  1.131300252E+02  0.000000000E+00  0.00000E+00  9.000E+00
#rwgt            1           1  -8.7185101393334782E-002           9      211109           0
</event>
<event>
      5   9999  3.79277E-02  9.74639E+01 -1.00000E+00  1.24332E-01
      21    -1     0     0   502   511  0.000000000E+00  0.000000000E+00  1.467012409E+02  1.467012409E+02  0.000000000E+00  0.00000E+00  9.000E+00
      21    -1     0     0   501   502  0.000000000E+00  0.000000000E+00 -6.541955946E+02  6.541955946E+02  0.000000000E+00  0.00000E+00  9.000E+00
      25     1     1     2     0     0 -1.869055453E+02 -3.883918077E+01 -7.043641254E+01  2.388063086E+02  1.250000000E+02  0.00000E+00  9.000E+00
      25     1     1     2     0     0  1.594345418E+02  1.323515131E+02 -3.757966690E+02  4.469725188E+02  1.250000000E+02  0.00000E+00  9.000E+00
      21     1     1     2   501   511  2.747100349E+01 -9.351233235E+01 -6.126127213E+01  1.151180081E+02  2.132480600E-06  0.00000E+00  9.000E+00
#rwgt            1           1   3.3447459754694125E-002           9      211185           0
</event>
<event>
      5   9999  3.79277E-02  3.11792E+01 -1.00000E+00  1.51886E-01
      21    -1     0     0   502   501  0.000000000E+00  0.000000000E+00  3.353972928E+02  3.353972928E+02  0.000000000E+00  0.00000E+00  9.000E+00
      21    -1     0     0   512   502  0.000000000E+00  0.000000000E+00 -1.023840628E+02  1.023840628E+02  0.000000000E+00  0.00000E+00  9.000E+00
      25     1     1     2     0     0  5.747626601E+01 -6.894368870E+01  7.043146474E+01  1.692404934E+02  1.250000000E+02  0.00000E+00  9.000E+00
      25     1     1     2     0     0 -3.204875422E+01  8.698759704E+01  1.757026210E+02  2.347133906E+02  1.250000000E+02  0.00000E+00  9.000E+00
      21     1     1     2   512   501 -2.542751179E+01 -1.804390835E+01 -1.312085579E+01  3.382747169E+01  4.460403188E-07  0.00000E+00  9.000E+00
#rwgt            1           1   4.7205707163434904E-002           9      211316           0
</event>
<event>
      5   9999  3.79277E-02  2.71502E+01 -1.00000E+00  1.56113E-01
      21    -1     0     0   502   511  0.000000000E+00  0.000000000E+00  1.163038633E+02  1.163038633E+02  0.000000000E+00  0.00000E+00  9.000E+00
      21    -1     0     0   501   502  0.000000000E+00  0.000000000E+00 -1.786284751E+03  1.786284751E+03  0.000000000E+00  0.00000E+00  9.000E+00
      25     1     1     2     0     0  2.225973207E+02 -4.043446192E+01 -7.742512428E+02  8.162563935E+02  1.250000000E+02  0.00000E+00  9.000E+00
      25     1     1     2     0     0 -2.059058106E+02  1.902120713E+01 -9.739806252E+02  1.003504991E+03  1.250000000E+02  0.00000E+00  9.000E+00
      21     1     1     2   501   511 -1.669151005E+01  2.141325479E+01  7.825098047E+01  8.282722942E+01  3.568322551E-06  0.00000E+00  9.000E+00
#rwgt            1           1   3.8137210286569509E-002           9      211449           0
</event>
<event>
      5   9999  3.79277E-02  1.12053E+02 -1.00000E+00  1.21645E-01
      21    -1     0     0   512   501  0.000000000E+00  0.000000000E+00  3.365552443E+02  3.365552443E+02  0.000000000E+00  0.00000E+00  9.000E+00
      21    -1     0     0   501   502  0.000000000E+00  0.000000000E+00 -3.808937241E+02  3.808937241E+02  0.000000000E+00  0.00000E+00  9.000E+00
      25     1     1     2     0     0  6.730022847E+01 -2.620277089E+02  1.043295180E+02  3.157490924E+02  1.250000000E+02  0.00000E+00  9.000E+00
      25     1     1     2     0     0  2.708226328E+01  2.016297764E+02 -1.624591867E+02  2.888009748E+02  1.250000000E+02  0.00000E+00  9.000E+00
      21     1     1     2   512   502 -9.438249174E+01  6.039793255E+01  1.379118893E+01  1.128989012E+02  6.078504936E-07  0.00000E+00  9.000E+00
#rwgt            1           1   6.0647240386539007E-002           9      211632           0
</event>
<event>
      5   9999  3.79277E-02  6.06133E+01 -1.00000E+00  1.34468E-01
      -2    -1     0     0     0   501  0.000000000E+00  0.000000000E+00  1.460957733E+03  1.460957733E+03  0.000000000E+00  0.00000E+00  9.000E+00
      21    -1     0     0   501   502  0.000000000E+00  0.000000000E+00 -1.705133561E+02  1.705133561E+02  0.000000000E+00  0.00000E+00  9.000E+00
      25     1     1     2     0     0  2.324852034E+02 -2.086065829E+02  6.614436614E+02  7.420908256E+02  1.250000000E+02  0.00000E+00  9.000E+00
      25     1     1     2     0     0 -1.778039700E+02  2.347588356E+02  7.049888466E+01  3.275989246E+02  1.250000000E+02  0.00000E+00  9.000E+00
      -2     1     1     2     0   502 -5.468123337E+01 -2.615225273E+01  5.585018306E+02  5.617813386E+02  7.629394531E-06  0.00000E+00  9.000E+00
#rwgt            1           1  0.18094355619398597                9      211697           0
</event>
<event>
      5   9999 -3.79277E-02  6.49106E+01 -1.00000E+00  1.32903E-01
      21    -1     0     0   502   501  0.000000000E+00  0.000000000E+00  9.225260385E+02  9.225260385E+02  0.000000000E+00  0.00000E+00  9.000E+00
      21    -1     0     0   501   511  0.000000000E+00  0.000000000E+00 -4.761298149E+02  4.761298149E+02  0.000000000E+00  0.00000E+00  9.000E+00
      25     1     1     2     0     0  4.619288317E+02 -9.293588713E+01  6.144082292E+02  7.843072082E+02  1.250000000E+02  0.00000E+00  9.000E+00
      25     1     1     2     0     0 -4.292920553E+02  1.490449748E+02 -4.271919190E+01  4.732398997E+02  1.250000000E+02  0.00000E+00  9.000E+00
      21     1     1     2   502   511 -3.263677641E+01 -5.610908765E+01 -1.252928137E+02  1.411087455E+02  2.336015456E-06  0.00000E+00  9.000E+00
#rwgt            1           1 -0.31557258431546903                9      211843           0
</event>
<event>
      5   9999  3.79277E-02  3.15659E+01 -1.00000E+00  1.51521E-01
      21    -1     0     0   502   501  0.000000000E+00  0.000000000E+00  1.052656641E+02  1.052656641E+02  0.000000000E+00  0.00000E+00  9.000E+00
      21    -1     0     0   501   512  0.000000000E+00  0.000000000E+00 -8.508122251E+02  8.508122251E+02  0.000000000E+00  0.00000E+00  9.000E+00
      25     1     1     2     0     0  1.204930186E+02 -7.391885271E+01 -4.956706403E+02  5.303743470E+02  1.250000000E+02  0.00000E+00  9.000E+00
      25     1     1     2     0     0 -1.198358407E+02  4.235978053E+01 -4.521317883E+00  1.783267283E+02  1.250000000E+02  0.00000E+00  9.000E+00
      21     1     1     2   502   512 -6.571779779E-01  3.155907218E+01 -2.453546028E+02  2.473768139E+02  2.697398305E-06  0.00000E+00  9.000E+00
#rwgt            1           1   4.0773663415859918E-002           9      211956           0
</event>
<event>
      5   9999  3.79277E-02  9.34480E+00 -1.00000E+00  1.99222E-01
      21    -1     0     0   502   501  0.000000000E+00  0.000000000E+00  1.241200949E+02  1.241200949E+02  0.000000000E+00  0.00000E+00  9.000E+00
      21    -1     0     0   511   502  0.000000000E+00  0.000000000E+00 -2.915282653E+02  2.915282653E+02  0.000000000E+00  0.00000E+00  9.000E+00
      25     1     1     2     0     0  7.314683070E+01 -2.758750770E+01  4.418753478E+01  1.539125325E+02  1.250000000E+02  0.00000E+00  9.000E+00
      25     1     1     2     0     0 -6.518678634E+01  3.248269826E+01 -2.001332126E+02  2.469468477E+02  1.250000000E+02  0.00000E+00  9.000E+00
      21     1     1     2   511   501 -7.960044364E+00 -4.895190553E+00 -1.146249256E+01  1.478898010E+01  1.685873940E-07  0.00000E+00  9.000E+00
#rwgt            1           1   3.0876563160744625E-002           9      212248           0
</event>
<event>
      5   9999  3.79277E-02  2.00517E+01 -1.00000E+00  1.66277E-01
      21    -1     0     0   502   501  0.000000000E+00  0.000000000E+00  3.844342325E+02  3.844342325E+02  0.000000000E+00  0.00000E+00  9.000E+00
      21    -1     0     0   501   512  0.000000000E+00  0.000000000E+00 -2.031787883E+02  2.031787883E+02  0.000000000E+00  0.00000E+00  9.000E+00
      25     1     1     2     0     0 -1.175436409E+02 -1.438028598E+02 -3.532046323E+01  2.266457701E+02  1.250000000E+02  0.00000E+00  9.000E+00
      25     1     1     2     0     0  1.359970214E+02  1.516477971E+02  2.339470333E+02  3.344375256E+02  1.250000000E+02  0.00000E+00  9.000E+00
      21     1     1     2   502   512 -1.845338053E+01 -7.844937272E+00 -1.737112590E+01  2.652972501E+01  3.371747881E-07  0.00000E+00  9.000E+00
#rwgt            1           1   3.8395940140547077E-002           9      212523           0
</event>
<event>
      5   9999  3.79277E-02  2.08390E+01 -1.00000E+00  1.64910E-01
      21    -1     0     0   502   501  0.000000000E+00  0.000000000E+00  1.070171337E+03  1.070171337E+03  0.000000000E+00  0.00000E+00  9.000E+00
      21    -1     0     0   511   502  0.000000000E+00  0.000000000E+00 -1.278333090E+02  1.278333090E+02  0.000000000E+00  0.00000E+00  9.000E+00
      25     1     1     2     0     0 -1.719233534E+02 -3.985841911E+01  3.202521183E+02  3.864359614E+02  1.250000000E+02  0.00000E+00  9.000E+00
      25     1     1     2     0     0  1.513548787E+02  3.651149244E+01  7.015539794E+02  7.294137196E+02  1.250000000E+02  0.00000E+00  9.000E+00
      21     1     1     2   511   501  2.056847474E+01  3.346926673E+00 -7.946806997E+01  8.215496465E+01  2.336015456E-06  0.00000E+00  9.000E+00
#rwgt            1           1   4.1534168546677526E-002           9      212813           0
</event>
<event>
      5   9999  3.79277E-02  1.70672E+02 -1.00000E+00  1.14214E-01
      21    -1     0     0   502   512  0.000000000E+00  0.000000000E+00  3.957753461E+01  3.957753461E+01  0.000000000E+00  0.00000E+00  9.000E+00
      21    -1     0     0   501   502  0.000000000E+00  0.000000000E+00 -2.026795379E+03  2.026795379E+03  0.000000000E+00  0.00000E+00  9.000E+00
      25     1     1     2     0     0 -9.381091708E+01 -3.660440468E+01 -5.445674514E+02  5.677315208E+02  1.250000000E+02  0.00000E+00  9.000E+00
      25     1     1     2     0     0  1.822987726E+01  1.896288202E+02 -9.611269196E+02  9.877658495E+02  1.250000000E+02  0.00000E+00  9.000E+00
      21     1     1     2   501   512  7.558103982E+01 -1.530244155E+02 -4.815234737E+02  5.108755436E+02  7.629394531E-06  0.00000E+00  9.000E+00
#rwgt            1           1   5.3871996669964430E-002           9      212925           0
</event>
<event>
      5   9999  3.79277E-02  2.69969E+01 -1.00000E+00  1.56291E-01
      21    -1     0     0   502   511  0.000000000E+00  0.000000000E+00  3.654546811E+01  3.654546811E+01  0.000000000E+00  0.00000E+00  9.000E+00
      21    -1     0     0   501   502  0.000000000E+00  0.000000000E+00 -2.229124653E+03  2.229124653E+03  0.000000000E+00  0.00000E+00  9.000E+00
      25     1     1     2     0     0 -1.139880076E+02 -9.441221275E+01 -9.133034622E+02  9.336247351E+02  1.250000000E+02  0.00000E+00  9.000E+00
      25     1     1     2     0     0  1.043771196E+02  1.196404785E+02 -1.287937162E+03  1.303693047E+03  1.250000000E+02  0.00000E+00  9.000E+00
      21     1     1     2   501   511  9.610888020E+00 -2.522826578E+01  8.661439934E+00  2.835233860E+01  1.831327855E-06  0.00000E+00  9.000E+00
#rwgt            1           1  0.10506355363973037                9      212977           0
</event>
<event>
      5   9999  3.79277E-02  2.21431E+01 -1.00000E+00  1.62802E-01
      21    -1     0     0   502   501  0.000000000E+00  0.000000000E+00  3.854376865E+01  3.854376865E+01  0.000000000E+00  0.00000E+00  9.000E+00
      21    -1     0     0   512   502  0.000000000E+00  0.000000000E+00 -1.219313852E+03  1.219313852E+03  0.000000000E+00  0.00000E+00  9.000E+00
      25     1     1     2     0     0  1.053720982E+01 -5.200193286E+01 -1.142194378E+02  1.774438327E+02  1.250000000E+02  0.00000E+00  9.000E+00
      25     1     1     2     0     0 -1.632470466E+01  7.337533796E+01 -8.200887684E+02  8.329591973E+02  1.250000000E+02  0.00000E+00  9.000E+00
      21     1     1     2   512   501  5.787494837E+00 -2.137340511E+01 -2.464618769E+02  2.474545904E+02  3.814697266E-06  0.00000E+00  9.000E+00
#rwgt            1           1   3.0636194189974875E-002           9      213155           0
</event>
<event>
      5   9999  3.79277E-02  4.98491E+01 -1.00000E+00  1.39150E-01
      21    -1     0     0   502   511  0.000000000E+00  0.000000000E+00  9.236312558E+02  9.236312558E+02  0.000000000E+00  0.00000E+00  9.000E+00
      21    -1     0     0   501   502  0.000000000E+00  0.000000000E+00 -1.890631946E+02  1.890631946E+02  0.000000000E+00  0.00000E+00  9.000E+00
      25     1     1     2     0     0 -2.207657448E+02  1.516015750E+02  1.657166510E+02  3.388326431E+02  1.250000000E+02  0.00000E+00  9.000E+00
      25     1     1     2     0     0  1.731726528E+02 -1.367747606E+02  5.745638106E+01  2.600429552E+02  1.250000000E+02  0.00000E+00  9.000E+00
      21     1     1     2   501   511  4.759309197E+01 -1.482681442E+01  5.113950292E+02  5.138188521E+02  5.394796609E-06  0.00000E+00  9.000E+00
#rwgt            1           1   9.0101116856702343E-002           9      213310           0
</event>
<event>
      5   9999  3.79277E-02  2.35657E+02 -1.00000E+00  1.09114E-01
      21    -1     0     0   502   501  0.000000000E+00  0.000000000E+00  8.932489758E+02  8.932489758E+02  0.000000000E+00  0.00000E+00  9.000E+00
      21    -1     0     0   501   512  0.000000000E+00  0.000000000E+00 -1.466511871E+02  1.466511871E+02  0.000000000E+00  0.00000E+00  9.000E+00
      25     1     1     2     0     0 -7.174401867E+00 -7.299918524E+01  2.339422924E+02  2.751987450E+02  1.250000000E+02  0.00000E+00  9.000E+00
      25     1     1     2     0     0  9.700224712E+01  2.908640748E+02  3.172706899E+02  4.585815485E+02  1.250000000E+02  0.00000E+00  9.000E+00
      21     1     1     2   502   512 -8.982784525E+01 -2.178648895E+02  1.953848064E+02  3.061198694E+02  3.814697266E-06  0.00000E+00  9.000E+00
#rwgt            1           1   3.2337603113623166E-002           9      213406           0
</event>
<event>
      5   9999  3.79277E-02  3.06760E+01 -1.00000E+00  1.52371E-01
      21    -1     0     0   502   501  0.000000000E+00  0.000000000E+00  1.586445974E+03  1.586445974E+03  0.000000000E+00  0.00000E+00  9.000E+00
       2    -1     0     0   501     0  0.000000000E+00  0.000000000E+00 -3.257967440E+02  3.257967440E+02  0.000000000E+00  0.00000E+00  9.000E+00
      25     1     1     2     0     0 -1.116415332E+02  2.478330188E+02  8.921908344E+02  9.410178118E+02  1.250000000E+02  0.00000E+00  9.000E+00
      25     1     1     2     0     0  1.337373079E+02 -2.265540551E+02  6.372647789E+02  7.006738227E+02  1.250000000E+02  0.00000E+00  9.000E+00
       2     1     1     2   502     0 -2.209577470E+01 -2.127896371E+01 -2.688063829E+02  2.705510839E+02  3.814697266E-06  0.00000E+00  9.000E+00
#rwgt            1           1   1.5236420101675141E-002           9      213453           0
</event>
<event>
      5   9999  3.79277E-02  2.23014E+02 -1.00000E+00  1.09953E-01
      21    -1     0     0   511   501  0.000000000E+00  0.000000000E+00  6.541174868E+02  6.541174868E+02  0.000000000E+00  0.00000E+00  9.000E+00
      21    -1     0     0   501   502  0.000000000E+00  0.000000000E+00 -7.288938934E+02  7.288938934E+02  0.000000000E+00  0.00000E+00  9.000E+00
      25     1     1     2     0     0  1.469031084E+02 -1.512020143E+02  2.883716851E+02  3.784518479E+02  1.250000000E+02  0.00000E+00  9.000E+00
      25     1     1     2     0     0  8.720723861E+00  3.109409757E+02 -5.949481982E+02  6.828972836E+02  1.250000000E+02  0.00000E+00  9.000E+00
      21     1     1     2   511   502 -1.556238323E+02 -1.597389614E+02  2.318001064E+02  3.216622488E+02  2.697398305E-06  0.00000E+00  9.000E+00
#rwgt            1           1   8.7589281280173722E-002           9      213739           0
</event>
<event>
      5   9999  3.79277E-02  2.28464E+01 -1.00000E+00  1.61738E-01
      21    -1     0     0   512   501  0.000000000E+00  0.000000000E+00  3.482797862E+01  3.482797862E+01  0.000000000E+00  0.00000E+00  9.000E+00
      21    -1     0     0   501   502  0.000000000E+00  0.000000000E+00 -2.851209902E+03  2.851209902E+03  0.000000000E+00  0.00000E+00  9.000E+00
      25     1     1     2     0     0 -1.210945296E+02  9.474996342E+01 -1.030252766E+03  1.049136408E+03  1.250000000E+02  0.00000E+00  9.000E+00
      25     1     1     2     0     0  1.331153021E+02 -1.141782836E+02 -1.798207937E+03  1.811058571E+03  1.250000000E+02  0.00000E+00  9.000E+00
      21     1     1     2   512   502 -1.202077249E+01  1.942832018E+01  1.207878009E+01  2.584290086E+01  9.078709013E-07  0.00000E+00  9.000E+00
#rwgt            1           1   3.7252893499055438E-002           9      213823           0
</event>
<event>
      5   9999  3.79277E-02  1.37763E+01 -1.00000E+00  1.80938E-01
      21    -1     0     0   511   501  0.000000000E+00  0.000000000E+00  6.986230679E+02  6.986230679E+02  0.000000000E+00  0.00000E+00  9.000E+00
      21    -1     0     0   501   502  0.000000000E+00  0.000000000E+00 -2.145698853E+02  2.145698853E+02  0.000000000E+00  0.00000E+00  9.000E+00
      25     1     1     2     0     0 -4.540096760E+01  1.410565316E+02  5.986850491E+02  6.292908557E+02  1.250000000E+02  0.00000E+00  9.000E+00
      25     1     1     2     0     0  4.944242720E+01 -1.278864021E+02 -1.546752560E+02  2.415552116E+02  1.250000000E+02  0.00000E+00  9.000E+00
      21     1     1     2   511   502 -4.041459597E+00 -1.317012945E+01  4.004338945E+01  4.234688588E+01  8.259061849E-07  0.00000E+00  9.000E+00
#rwgt            1           1   3.2943241274212547E-002           9      214053           0
</event>
<event>
      5   9999  3.79277E-02  1.19228E+01 -1.00000E+00  1.87323E-01
      21    -1     0     0   512   501  0.000000000E+00  0.000000000E+00  3.386827334E+02  3.386827334E+02  0.000000000E+00  0.00000E+00  9.000E+00
      21    -1     0     0   501   502  0.000000000E+00  0.000000000E+00 -2.194879191E+02  2.194879191E+02  0.000000000E+00  0.00000E+00  9.000E+00
      25     1     1     2     0     0 -1.682760224E+02  9.515637058E+01  1.176242831E+02  2.585189095E+02  1.250000000E+02  0.00000E+00  9.000E+00
      25     1     1     2     0     0  1.563745869E+02 -9.587024057E+01 -6.557947752E+01  2.314514686E+02  1.250000000E+02  0.00000E+00  9.000E+00
      21     1     1     2   512   502  1.190143544E+01  7.138699951E-01  6.715000862E+01  6.820027444E+01  9.536743164E-07  0.00000E+00  9.000E+00
#rwgt            1           1  0.10917110630868550                9      214374           0
</event>
<event>
      5   9999  3.79277E-02  3.78858E+01 -1.00000E+00  1.46318E-01
      21    -1     0     0   502   511  0.000000000E+00  0.000000000E+00  5.050400646E+01  5.050400646E+01  0.000000000E+00  0.00000E+00  9.000E+00
      21    -1     0     0   501   502  0.000000000E+00  0.000000000E+00 -9.284345869E+02  9.284345869E+02  0.000000000E+00  0.00000E+00  9.000E+00
      25     1     1     2     0     0  1.334901829E+02 -6.350888963E+00 -4.026628483E+02  4.422921343E+02  1.250000000E+02  0.00000E+00  9.000E+00
      25     1     1     2     0     0 -1.464175697E+02  4.196287565E+01 -4.496096811E+02  4.908898583E+02  1.250000000E+02  0.00000E+00  9.000E+00
      21     1     1     2   501   511  1.292738674E+01 -3.561198668E+01 -2.565805106E+01  4.575660070E+01  4.768371582E-07  0.00000E+00  9.000E+00
#rwgt            1           1   4.1020727536515443E-002           9      214551           0
</event>
<event>
      5   9999  3.79277E-02  8.05214E+01 -1.00000E+00  1.28213E-01
      21    -1     0     0   502   501  0.000000000E+00  0.000000000E+00  8.994527313E+02  8.994527313E+02  0.000000000E+00  0.00000E+00  9.000E+00
       2    -1     0     0   501     0  0.000000000E+00  0.000000000E+00 -2.623678014E+02  2.623678014E+02  0.000000000E+00  0.00000E+00  9.000E+00
      25     1     1     2     0     0  8.885433286E+01 -3.061673122E+02  9.534362560E+01  3.554559360E+02  1.250000000E+02  0.00000E+00  9.000E+00
      25     1     1     2     0     0 -1.548283555E+02  2.600032739E+02  6.155016401E+02  6.971662578E+02  1.250000000E+02  0.00000E+00  9.000E+00
       2     1     1     2   502     0  6.597402260E+01  4.616403827E+01 -7.376033576E+01  1.091983389E+02  2.697398305E-06  0.00000E+00  9.000E+00
#rwgt            1           1   5.1186246962918402E-002           9      214673           0
</event>
<event>
      5   9999  3.79277E-02  5.00681E+01 -1.00000E+00  1.39042E-01
      21    -1     0     0   502   501  0.000000000E+00  0.000000000E+00  1.965459732E+02  1.965459732E+02  0.000000000E+00  0.00000E+00  9.000E+00
      21    -1     0     0   501   511  0.000000000E+00  0.000000000E+00 -1.539789301E+03  1.539789301E+03  0.000000000E+00  0.00000E+00  9.000E+00
      25     1     1     2     0     0 -2.502225663E+02 -4.227715130E+02 -3.862559635E+02  6.373113479E+02  1.250000000E+02  0.00000E+00  9.000E+00
      25     1     1     2     0     0  2.012887894E+02  4.121742592E+02 -7.656901688E+02  9.012831027E+02  1.250000000E+02  0.00000E+00  9.000E+00
      21     1     1     2   502   511  4.893377690E+01  1.059725378E+01 -1.912971955E+02  1.977408236E+02  3.814697266E-06  0.00000E+00  9.000E+00
#rwgt            1           1   9.4867007717006499E-002           9      214746           0
</event>
<event>
      5   9999  3.79277E-02  2.55835E+02 -1.00000E+00  1.07889E-01
      21    -1     0     0   512   501  0.000000000E+00  0.000000000E+00  4.107047268E+02  4.107047268E+02  0.000000000E+00  0.00000E+00  9.000E+00
      21    -1     0     0   501   502  0.000000000E+00  0.000000000E+00 -1.018579618E+03  1.018579618E+03  0.000000000E+00  0.00000E+00  9.000E+00
      25     1     1     2     0     0 -1.194738354E+02  1.592163229E+02  9.906831218E+01  2.550752150E+02  1.250000000E+02  0.00000E+00  9.000E+00
      25     1     1     2     0     0  1.700426293E+02  9.157120398E+01 -8.503517180E+02  8.809215774E+02  1.250000000E+02  0.00000E+00  9.000E+00
      21     1     1     2   512   502 -5.056879394E+01 -2.507875269E+02  1.434085144E+02  2.932875527E+02  4.264961200E-06  0.00000E+00  9.000E+00
#rwgt            1           1   4.1954751810315348E-002           9      214989           0
</event>
<event>
      5   9999  3.79277E-02  2.29121E+01 -1.00000E+00  1.61641E-01
      21    -1     0     0   502   501  0.000000000E+00  0.000000000E+00  5.365050242E+02  5.365050242E+02  0.000000000E+00  0.00000E+00  9.000E+00
      21    -1     0     0   501   511  0.000000000E+00  0.000000000E+00 -9.887221086E+01  9.887221086E+01  0.000000000E+00  0.00000E+00  9.000E+00
      25     1     1     2     0     0  8.323261211E+00 -1.441686320E+02  2.503088178E+02  3.148545305E+02  1.250000000E+02  0.00000E+00  9.000E+00
      25     1     1     2     0     0 -2.085561127E+00  1.662152730E+02  2.046593596E+02  2.917915694E+02  1.250000000E+02  0.00000E+00  9.000E+00
      21     1     1     2   502   511 -6.237700084E+00 -2.204664096E+01 -1.733536400E+01  2.873113511E+01  5.331201500E-07  0.00000E+00  9.000E+00
#rwgt            1           1   2.2732215303774287E-002           9      215067           0
</event>
<event>
      5   9999  3.79277E-02  1.08318E+02 -1.00000E+00  1.22287E-01
      21    -1     0     0   502   501  0.000000000E+00  0.000000000E+00  1.322153578E+03  1.322153578E+03  0.000000000E+00  0.00000E+00  9.000E+00
      21    -1     0     0   501   512  0.000000000E+00  0.000000000E+00 -8.564978459E+01  8.564978459E+01  0.000000000E+00  0.00000E+00  9.000E+00
      25     1     1     2     0     0  7.727110732E-01 -1.173672994E+02  3.664235456E+02  4.045576533E+02  1.250000000E+02  0.00000E+00  9.000E+00
      25     1     1     2     0     0 -1.049032577E+02  1.471955145E+02  8.674924871E+02  8.948963226E+02  1.250000000E+02  0.00000E+00  9.000E+00
      21     1     1     2   502   512  1.041305466E+02 -2.982821516E+01  2.587760989E+00  1.083493870E+02  1.147292647E-06  0.00000E+00  9.000E+00
#rwgt            1           1   2.8187020045962095E-002           9      215194           0
</event>
<event>
      5   9999  3.79277E-02  3.11292E+01 -1.00000E+00  1.51934E-01
      21    -1     0     0   511   501  0.000000000E+00  0.000000000E+00  2.906319272E+01  2.906319272E+01  0.000000000E+00  0.00000E+00  9.000E+00
      21    -1     0     0   501   502  0.000000000E+00  0.000000000E+00 -1.347345655E+03  1.347345655E+03  0.000000000E+00  0.00000E+00  9.000E+00
      25     1     1     2     0     0 -1.161030154E+02  5.358416647E+01 -7.042424742E+02  7.265904180E+02  1.250000000E+02  0.00000E+00  9.000E+00
      25     1     1     2     0     0  9.838814974E+01 -7.918120274E+01 -5.592713157E+02  5.868213488E+02  1.250000000E+02  0.00000E+00  9.000E+00
      21     1     1     2   511   502  1.771486563E+01  2.559703627E+01 -5.476867269E+01  6.299708119E+01  0.000000000E+00  0.00000E+00  9.000E+00
#rwgt            1           1   1.6590337104307792E-002           9      215247           0
</event>
<event>
      5   9999  3.79277E-02  5.18804E+01 -1.00000E+00  1.38167E-01
      21    -1     0     0   502   501  0.000000000E+00  0.000000000E+00  1.105166557E+02  1.105166557E+02  0.000000000E+00  0.00000E+00  9.000E+00
      21    -1     0     0   512   502  0.000000000E+00  0.000000000E+00 -7.830504953E+02  7.830504953E+02  0.000000000E+00  0.00000E+00  9.000E+00
      25     1     1     2     0     0  2.173377839E+02 -5.620667189E+01 -2.810321594E+02  3.807873119E+02  1.250000000E+02  0.00000E+00  9.000E+00
      25     1     1     2     0     0 -2.059663618E+02  1.068255494E+02 -2.548702946E+02  3.666302051E+02  1.250000000E+02  0.00000E+00  9.000E+00
      21     1     1     2   512   501 -1.137142210E+01 -5.061887755E+01 -1.366313856E+02  1.461496341E+02  2.697398305E-06  0.00000E+00  9.000E+00
#rwgt            1           1   4.7716284824632089E-002           9      215376           0
</event>
<event>
      5   9999  3.79277E-02  2.82296E+01 -1.00000E+00  1.54898E-01
      21    -1     0     0   511   501  0.000000000E+00  0.000000000E+00  1.773306379E+02  1.773306379E+02  0.000000000E+00  0.00000E+00  9.000E+00
      21    -1     0     0   501   502  0.000000000E+00  0.000000000E+00 -8.886624101E+02  8.886624101E+02  0.000000000E+00  0.00000E+00  9.000E+00
      25     1     1     2     0     0 -1.849802028E+02  3.565724279E+01 -7.526095054E+00  2.262095411E+02  1.250000000E+02  0.00000E+00  9.000E+00
      25     1     1     2     0     0  2.019602767E+02 -5.820908155E+01 -7.482135773E+02  7.871625041E+02  1.250000000E+02  0.00000E+00  9.000E+00
      21     1     1     2   511   502 -1.698007389E+01  2.255183876E+01  4.440790017E+01  5.262100282E+01  1.168007728E-06  0.00000E+00  9.000E+00
#rwgt            1           1   4.1417410209927952E-002           9      215481           0
</event>
<event>
      5   9999  3.79277E-02  2.69580E+01 -1.00000E+00  1.56337E-01
      21    -1     0     0   512   501  0.000000000E+00  0.000000000E+00  1.551694182E+03  1.551694182E+03  0.000000000E+00  0.00000E+00  9.000E+00
      21    -1     0     0   501   502  0.000000000E+00  0.000000000E+00 -1.073485190E+02  1.073485190E+02  0.000000000E+00  0.00000E+00  9.000E+00
      25     1     1     2     0     0  1.276949965E+02  1.786239097E+01  2.641200668E+02  3.193892403E+02  1.250000000E+02  0.00000E+00  9.000E+00
      25     1     1     2     0     0 -1.218127578E+02  8.446003000E+00  1.639335421E+01  1.755090454E+02  1.250000000E+02  0.00000E+00  9.000E+00
      21     1     1     2   512   502 -5.882238635E+00 -2.630839397E+01  1.163832241E+03  1.164144415E+03  3.051757812E-05  0.00000E+00  9.000E+00
#rwgt            1           1   3.5640527858638915E-002           9      215758           0
</event>
<event>
      5   9999  3.79277E-02  3.16449E+01 -1.00000E+00  1.51447E-01
      21    -1     0     0   502   511  0.000000000E+00  0.000000000E+00  4.881540845E+02  4.881540845E+02  0.000000000E+00  0.00000E+00  9.000E+00
      21    -1     0     0   501   502  0.000000000E+00  0.000000000E+00 -1.121690883E+02  1.121690883E+02  0.000000000E+00  0.00000E+00  9.000E+00
      25     1     1     2     0     0  3.101959660E+01 -1.031745837E+02 -9.408278236E+00  1.652898236E+02  1.250000000E+02  0.00000E+00  9.000E+00
      25     1     1     2     0     0 -6.506268450E-01  1.120696925E+02  2.972738429E+02  3.414041256E+02  1.250000000E+02  0.00000E+00  9.000E+00
      21     1     1     2   501   511 -3.036896975E+01 -8.895108827E+00  8.811943160E+01  9.362922359E+01  0.000000000E+00  0.00000E+00  9.000E+00
#rwgt            1           1   3.2756469049240580E-002           9      215913           0
</event>
<event>
      5   9999  3.79277E-02  2.69478E+01 -1.00000E+00  1.56348E-01
      21    -1     0     0   502   501  0.000000000E+00  0.000000000E+00  1.844636009E+02  1.844636009E+02  0.000000000E+00  0.00000E+00  9.000E+00
      21    -1     0     0   512   502  0.000000000E+00  0.000000000E+00 -3.211327234E+02  3.211327234E+02  0.000000000E+00  0.00000E+00  9.000E+00
      25     1     1     2     0     0  1.550011801E+02  2.144294098E+01  6.824096230E+01  2.115821223E+02  1.250000000E+02  0.00000E+00  9.000E+00
      25     1     1     2     0     0 -1.338858409E+02 -4.700025289E+00 -1.702892864E+02  2.501418592E+02  1.250000000E+02  0.00000E+00  9.000E+00
      21     1     1     2   512   501 -2.111533924E+01 -1.674291569E+01 -3.462079840E+01  4.387234276E+01  0.000000000E+00  0.00000E+00  9.000E+00
#rwgt            1           1   3.3757999493965976E-002           9      215999           0
</event>
<event>
      5   9999 -4.03969E-02  7.99231E+01 -1.00000E+00  1.28370E-01
       2    -1     0     0   502     0  0.000000000E+00  0.000000000E+00  2.801068126E+03  2.801068126E+03  0.000000000E+00  0.00000E+00  9.000E+00
      21    -1     0     0   501   502  0.000000000E+00  0.000000000E+00 -3.386774783E+02  3.386774783E+02  0.000000000E+00  0.00000E+00  9.000E+00
      25     1     1     2     0     0  1.590137140E+02  3.050864068E+02 -7.334301597E+01  3.733192667E+02  1.250000000E+02  0.00000E+00  9.000E+00
      25     1     1     2     0     0 -7.934707593E+01 -3.114842841E+02  1.446185151E+02  3.739758450E+02  1.250000000E+02  0.00000E+00  9.000E+00
       2     1     1     2   501     0 -7.966663806E+01  6.397877313E+00  2.391115148E+03  2.392450492E+03  5.285799584E-05  0.00000E+00  9.000E+00
#rwgt            1           1 -0.41928856649624746                9      216132           0
</event>
<event>
      5   9999  3.79277E-02  1.21691E+01 -1.00000E+00  1.86391E-01
      21    -1     0     0   502   511  0.000000000E+00  0.000000000E+00  2.570785396E+02  2.570785396E+02  0.000000000E+00  0.00000E+00  9.000E+00
      21    -1     0     0   501   502  0.000000000E+00  0.000000000E+00 -2.286015386E+02  2.286015386E+02  0.000000000E+00  0.00000E+00  9.000E+00
      25     1     1     2     0     0 -1.528174519E+02 -1.060839487E+02 -3.064740290E+01  2.262106122E+02  1.250000000E+02  0.00000E+00  9.000E+00
      25     1     1     2     0     0  1.442986362E+02  1.147740043E+02  2.610653524E+01  2.242804487E+02  1.250000000E+02  0.00000E+00  9.000E+00
      21     1     1     2   501   511  8.518815676E+00 -8.690055607E+00  3.301786869E+01  3.518901732E+01  0.000000000E+00  0.00000E+00  9.000E+00
#rwgt            1           1   3.0183109359476708E-002           9      216227           0
</event>
<event>
      5   9999  3.79277E-02  8.25017E+01 -1.00000E+00  1.27706E-01
      21    -1     0     0   502   501  0.000000000E+00  0.000000000E+00  8.820970988E+01  8.820970988E+01  0.000000000E+00  0.00000E+00  9.000E+00
       2    -1     0     0   501     0  0.000000000E+00  0.000000000E+00 -1.067500116E+03  1.067500116E+03  0.000000000E+00  0.00000E+00  9.000E+00
      25     1     1     2     0     0  3.094657447E+01 -1.755386604E+02 -2.051980287E+02  2.991700900E+02  1.250000000E+02  0.00000E+00  9.000E+00
      25     1     1     2     0     0 -9.675552426E+01  1.257822058E+02 -2.295343482E+02  3.057675780E+02  1.250000000E+02  0.00000E+00  9.000E+00
       2     1     1     2   502     0  6.580894979E+01  4.975645458E+01 -5.445580294E+02  5.507721580E+02  7.629394531E-06  0.00000E+00  9.000E+00
#rwgt            2          13   3.4610117300782825E-004           9      216599           0
</event>
<event>
      5   9999  3.79277E-02  5.56125E+01 -1.00000E+00  1.36490E-01
      21    -1     0     0   502   511  0.000000000E+00  0.000000000E+00  5.961495045E+02  5.961495045E+02  0.000000000E+00  0.00000E+00  9.000E+00
      21    -1     0     0   501   502  0.000000000E+00  0.000000000E+00 -2.052174837E+02  2.052174837E+02  0.000000000E+00  0.00000E+00  9.000E+00
      25     1     1     2     0     0  1.936756038E+02  1.572088491E+02  6.161892526E+01  2.857389607E+02  1.250000000E+02  0.00000E+00  9.000E+00
      25     1     1     2     0     0 -2.410794721E+02 -1.281291956E+02  1.659868224E+02  3.430933223E+02  1.250000000E+02  0.00000E+00  9.000E+00
      21     1     1     2   501   511  4.740386827E+01 -2.907965344E+01  1.633262732E+02  1.725347052E+02  1.907348633E-06  0.00000E+00  9.000E+00
#rwgt            1           1   3.5273574218255284E-002           9      216738           0
</event>
<event>
      5   9999  3.79277E-02  2.11993E+01 -1.00000E+00  1.64309E-01
      21    -1     0     0   502   512  0.000000000E+00  0.000000000E+00  1.721421111E+01  1.721421111E+01  0.000000000E+00  0.00000E+00  9.000E+00
      21    -1     0     0   501   502  0.000000000E+00  0.000000000E+00 -2.657950038E+03  2.657950038E+03  0.000000000E+00  0.00000E+00  9.000E+00
      25     1     1     2     0     0 -1.039916616E+02  6.088895619E+01 -6.276446037E+02  6.512176896E+02  1.250000000E+02  0.00000E+00  9.000E+00
      25     1     1     2     0     0  8.288546693E+01 -6.287309302E+01 -1.960641020E+03  1.967374198E+03  1.250000000E+02  0.00000E+00  9.000E+00
      21     1     1     2   501   512  2.110619470E+01  1.984136830E+00 -5.245020373E+01  5.657236185E+01  9.536743164E-07  0.00000E+00  9.000E+00
#rwgt            1           1   4.5520713114913749E-002           9      216864           0
</event>
<event>
      5   9999  3.79277E-02  4.22816E+01 -1.00000E+00  1.43362E-01
      21    -1     0     0   502   501  0.000000000E+00  0.000000000E+00  1.020247943E+02  1.020247943E+02  0.000000000E+00  0.00000E+00  9.000E+00
      21    -1     0     0   501   511  0.000000000E+00  0.000000000E+00 -1.003727216E+03  1.003727216E+03  0.000000000E+00  0.00000E+00  9.000E+00
      25     1     1     2     0     0 -5.266320047E+01  2.375278058E+02 -4.364594477E+02  5.150871001E+02  1.250000000E+02  0.00000E+00  9.000E+00
      25     1     1     2     0     0  3.110769222E+01 -2.739021908E+02 -3.246918073E+02  4.438917304E+02  1.250000000E+02  0.00000E+00  9.000E+00
      21     1     1     2   502   511  2.155550826E+01  3.637438492E+01 -1.405511664E+02  1.467731794E+02  2.697398305E-06  0.00000E+00  9.000E+00
#rwgt            1           1   2.7589311680113960E-002           9      217106           0
</event>
<event>
      5   9999  3.79277E-02  7.80592E+01 -1.00000E+00  1.28868E-01
      21    -1     0     0   502   512  0.000000000E+00  0.000000000E+00  4.803629354E+02  4.803629354E+02  0.000000000E+00  0.00000E+00  9.000E+00
      21    -1     0     0   501   502  0.000000000E+00  0.000000000E+00 -1.828444096E+02  1.828444096E+02  0.000000000E+00  0.00000E+00  9.000E+00
      25     1     1     2     0     0 -1.786924628E+01  1.626733082E+02 -7.789344413E+01  2.201688075E+02  1.250000000E+02  0.00000E+00  9.000E+00
      25     1     1     2     0     0 -1.113970455E+01 -9.020456527E+01  2.794216612E+02  3.193155514E+02  1.250000000E+02  0.00000E+00  9.000E+00
      21     1     1     2   501   512  2.900895082E+01 -7.246874290E+01  9.599030876E+01  1.237229861E+02  1.907348633E-06  0.00000E+00  9.000E+00
#rwgt            1           1   3.2832147257661745E-002           9      217344           0
</event>
<event>
      5   9999 -3.79277E-02  4.93951E+01 -1.00000E+00  1.39378E-01
      21    -1     0     0   502   501  0.000000000E+00  0.000000000E+00  1.980117910E+02  1.980117910E+02  0.000000000E+00  0.00000E+00  9.000E+00
      21    -1     0     0   511   502  0.000000000E+00  0.000000000E+00 -4.707437556E+02  4.707437556E+02  0.000000000E+00  0.00000E+00  9.000E+00
      25     1     1     2     0     0  2.057777938E+02  6.346857252E+01 -1.455622898E+01  2.494186119E+02  1.250000000E+02  0.00000E+00  9.000E+00
      25     1     1     2     0     0 -2.486172006E+02 -3.887870688E+01 -2.165285132E+02  3.547275903E+02  1.250000000E+02  0.00000E+00  9.000E+00
      21     1     1     2   511   501  4.283940676E+01 -2.458986564E+01 -4.164722231E+01  6.460934445E+01  6.743495762E-07  0.00000E+00  9.000E+00
#rwgt            1           1 -0.16540417067098470                9      217431           0
</event>
<event>
      5   9999  3.79277E-02  2.64058E+00 -1.00000E+00  3.14766E-01
      21    -1     0     0   512   501  0.000000000E+00  0.000000000E+00  8.971032912E+01  8.971032912E+01  0.000000000E+00  0.00000E+00  9.000E+00
      21    -1     0     0   501   502  0.000000000E+00  0.000000000E+00 -5.556863619E+02  5.556863619E+02  0.000000000E+00  0.00000E+00  9.000E+00
      25     1     1     2     0     0  1.646605843E+02 -7.280854049E+01 -2.397604930E+02  3.248450178E+02  1.250000000E+02  0.00000E+00  9.000E+00
      25     1     1     2     0     0 -1.623897859E+02  7.415619045E+01 -2.293993672E+02  3.164153170E+02  1.250000000E+02  0.00000E+00  9.000E+00
      21     1     1     2   512   502 -2.270798448E+00 -1.347649955E+00  3.183827418E+00  4.136356249E+00  4.214684851E-08  0.00000E+00  9.000E+00
#rwgt            1           1   3.4996918022116484E-002           9      217642           0
</event>
<event>
      5   9999  3.79277E-02  1.98632E+02 -1.00000E+00  1.11757E-01
      21    -1     0     0   502   501  0.000000000E+00  0.000000000E+00  1.620044151E+03  1.620044151E+03  0.000000000E+00  0.00000E+00  9.000E+00
      21    -1     0     0   501   511  0.000000000E+00  0.000000000E+00 -1.938945942E+02  1.938945942E+02  0.000000000E+00  0.00000E+00  9.000E+00
      25     1     1     2     0     0  5.427810902E+01 -3.938003621E+01  4.803603233E+02  5.008671885E+02  1.250000000E+02  0.00000E+00  9.000E+00
      25     1     1     2     0     0 -1.407739201E+02  2.181907086E+02  1.049952996E+03  1.088784081E+03  1.250000000E+02  0.00000E+00  9.000E+00
      21     1     1     2   502   511  8.649581108E+01 -1.788106724E+02 -1.041637629E+02  2.242874749E+02  5.878843310E-06  0.00000E+00  9.000E+00
#rwgt            1           1   6.1560100882076176E-002           9      218179           0
</event>
<event>
      5   9999  3.79277E-02  2.72130E+01 -1.00000E+00  1.56040E-01
      21    -1     0     0   502   501  0.000000000E+00  0.000000000E+00  1.108821767E+03  1.108821767E+03  0.000000000E+00  0.00000E+00  9.000E+00
      21    -1     0     0   512   502  0.000000000E+00  0.000000000E+00 -1.516767721E+02  1.516767721E+02  0.000000000E+00  0.00000E+00  9.000E+00
      25     1     1     2     0     0  2.689418331E+02  8.396382190E+01  3.370860237E+02  4.567621047E+02  1.250000000E+02  0.00000E+00  9.000E+00
      25     1     1     2     0     0 -2.554781803E+02 -6.031472177E+01  6.791025607E+02  7.387233950E+02  1.250000000E+02  0.00000E+00  9.000E+00
      21     1     1     2   512   501 -1.346365273E+01 -2.364910013E+01 -5.904358930E+01  6.501303961E+01  2.697398305E-06  0.00000E+00  9.000E+00
#rwgt            1           1   4.4342853677348200E-002           9      218452           0
</event>
<event>
      5   9999  3.79277E-02  3.95399E+01 -1.00000E+00  1.45152E-01
      21    -1     0     0   511   501  0.000000000E+00  0.000000000E+00  2.797441043E+01  2.797441043E+01  0.000000000E+00  0.00000E+00  9.000E+00
      21    -1     0     0   501   502  0.000000000E+00  0.000000000E+00 -1.299504195E+03  1.299504195E+03  0.000000000E+00  0.00000E+00  9.000E+00
      25     1     1     2     0     0 -5.167861301E+00  1.156750145E+02 -4.877726262E+02  5.166764467E+02  1.250000000E+02  0.00000E+00  9.000E+00
      25     1     1     2     0     0  4.147619830E+01 -1.000191697E+02 -6.785021322E+02  6.983654149E+02  1.250000000E+02  0.00000E+00  9.000E+00
      21     1     1     2   511   502 -3.630833700E+01 -1.565584481E+01 -1.052550261E+02  1.124367437E+02  0.000000000E+00  0.00000E+00  9.000E+00
#rwgt            1           1   2.9962728670548559E-002           9      218622           0
</event>
<event>
      5   9999  3.79277E-02  1.09917E+02 -1.00000E+00  1.22009E-01
      21    -1     0     0   502   501  0.000000000E+00  0.000000000E+00  6.189640035E+02  6.189640035E+02  0.000000000E+00  0.00000E+00  9.000E+00
      21    -1     0     0   501   512  0.000000000E+00  0.000000000E+00 -3.054824893E+02  3.054824893E+02  0.000000000E+00  0.00000E+00  9.000E+00
      25     1     1     2     0     0  9.393645649E+01  1.410319217E+02  4.213617958E+02  4.710465198E+02  1.250000000E+02  0.00000E+00  9.000E+00
      25     1     1     2     0     0  1.588018881E+01 -1.363282556E+02  1.053902277E+02  2.134705454E+02  1.250000000E+02  0.00000E+00  9.000E+00
      21     1     1     2   502   512 -1.098166453E+02 -4.703666070E+00 -2.132705093E+02  2.399294275E+02  0.000000000E+00  0.00000E+00  9.000E+00
#rwgt            1           1   3.7983550147282850E-002           9      218796           0
</event>
<event>
      5   9999  3.79277E-02  1.00241E+01 -1.00000E+00  1.95636E-01
      21    -1     0     0   502   501  0.000000000E+00  0.000000000E+00  2.239669886E+02  2.239669886E+02  0.000000000E+00  0.00000E+00  9.000E+00
      21    -1     0     0   511   502  0.000000000E+00  0.000000000E+00 -1.820836971E+02  1.820836971E+02  0.000000000E+00  0.00000E+00  9.000E+00
      25     1     1     2     0     0 -5.808412955E+01  1.017951690E+02  2.959407067E+01  1.738874105E+02  1.250000000E+02  0.00000E+00  9.000E+00
      25     1     1     2     0     0  6.454576657E+01 -9.413162273E+01  6.289366711E+01  1.805755569E+02  1.250000000E+02  0.00000E+00  9.000E+00
      21     1     1     2   511   501 -6.461637021E+00 -7.663546221E+00 -5.060444631E+01  5.158771831E+01  6.743495762E-07  0.00000E+00  9.000E+00
#rwgt            1           1   7.0475176408016565E-002           9      218903           0
</event>
<event>
      5   9999  3.79277E-02  4.59857E+01 -1.00000E+00  1.41182E-01
      21    -1     0     0   502   501  0.000000000E+00  0.000000000E+00  4.779940424E+02  4.779940424E+02  0.000000000E+00  0.00000E+00  9.000E+00
      21    -1     0     0   501   512  0.000000000E+00  0.000000000E+00 -2.854848114E+02  2.854848114E+02  0.000000000E+00  0.00000E+00  9.000E+00
      25     1     1     2     0     0 -5.483257413E+01 -9.767736290E+01  2.875736524E+02  3.329730980E+02  1.250000000E+02  0.00000E+00  9.000E+00
      25     1     1     2     0     0  8.218746964E+01  6.071255627E+01  1.259448380E+02  2.047630261E+02  1.250000000E+02  0.00000E+00  9.000E+00
      21     1     1     2   502   512 -2.735489552E+01  3.696480662E+01 -2.210092594E+02  2.257427297E+02  2.697398305E-06  0.00000E+00  9.000E+00
#rwgt            1           1   4.4317020444637298E-002           9      219285           0
</event>
<event>
      5   9999  3.79277E-02  4.57159E+00 -1.00000E+00  2.50511E-01
      21    -1     0     0   502   501  0.000000000E+00  0.000000000E+00  2.224080096E+02  2.224080096E+02  0.000000000E+00  0.00000E+00  9.000E+00
      21    -1     0     0   511   502  0.000000000E+00  0.000000000E+00 -1.418959290E+02  1.418959290E+02  0.000000000E+00  0.00000E+00  9.000E+00
      25     1     1     2     0     0  2.627013763E+01 -1.545627443E+01 -7.743617329E+01  1.501678311E+02  1.250000000E+02  0.00000E+00  9.000E+00
      25     1     1     2     0     0 -2.592800984E+01  1.089750828E+01  1.629964877E+02  2.073255228E+02  1.250000000E+02  0.00000E+00  9.000E+00
      21     1     1     2   511   501 -3.421277848E-01  4.558766148E+00 -5.048233841E+00  6.810584786E+00  1.576990671E-07  0.00000E+00  9.000E+00
#rwgt            1           1   4.4158819881518617E-002           9      219387           0
</event>
<event>
      5   9999  3.79277E-02  3.11242E+01 -1.00000E+00  1.51938E-01
      21    -1     0     0   512   501  0.000000000E+00  0.000000000E+00  1.089556912E+02  1.089556912E+02  0.000000000E+00  0.00000E+00  9.000E+00
      21    -1     0     0   501   502  0.000000000E+00  0.000000000E+00 -3.329317529E+02  3.329317529E+02  0.000000000E+00  0.00000E+00  9.000E+00
      25     1     1     2     0     0 -1.297321870E+01  6.507583666E+01 -5.925858988E+01  1.534266906E+02  1.250000000E+02  0.00000E+00  9.000E+00
      25     1     1     2     0     0  5.062981064E-01 -9.359410772E+01 -1.917111424E+02  2.472615527E+02  1.250000000E+02  0.00000E+00  9.000E+00
      21     1     1     2   512   502  1.246692059E+01  2.851827106E+01  2.699367056E+01  4.119920077E+01  3.371747881E-07  0.00000E+00  9.000E+00
#rwgt            1           1   3.8812354207871290E-002           9      219822           0
</event>
<event>
      5   9999  3.79277E-02  1.45570E+01 -1.00000E+00  1.78619E-01
      21    -1     0     0   502   501  0.000000000E+00  0.000000000E+00  2.621223883E+02  2.621223883E+02  0.000000000E+00  0.00000E+00  9.000E+00
      21    -1     0     0   501   511  0.000000000E+00  0.000000000E+00 -1.459004611E+02  1.459004611E+02  0.000000000E+00  0.00000E+00  9.000E+00
      25     1     1     2     0     0  9.006386593E+01  4.188453449E+01  1.256827061E+02  2.031919211E+02  1.250000000E+02  0.00000E+00  9.000E+00
      25     1     1     2     0     0 -1.026800398E+02 -4.914655704E+01  2.168444480E+01  1.704517227E+02  1.250000000E+02  0.00000E+00  9.000E+00
      21     1     1     2   502   511  1.261617384E+01  7.262022551E+00 -3.114522378E+01  3.437920561E+01  3.371747881E-07  0.00000E+00  9.000E+00
#rwgt            1           1   2.4309148873119583E-002           9      219947           0
</event>
<event>
      5   9999  3.79277E-02  8.26539E+01 -1.00000E+00  1.27667E-01
      21    -1     0     0   502   501  0.000000000E+00  0.000000000E+00  2.503580823E+02  2.503580823E+02  0.000000000E+00  0.00000E+00  9.000E+00
      -1    -1     0     0     0   502  0.000000000E+00  0.000000000E+00 -2.959450251E+02  2.959450251E+02  0.000000000E+00  0.00000E+00  9.000E+00
      25     1     1     2     0     0  1.394730056E+02  1.557527361E+02 -2.736509319E+01  2.451234025E+02  1.250000000E+02  0.00000E+00  9.000E+00
      25     1     1     2     0     0 -1.378960665E+02 -7.311387331E+01  3.481483318E+01  2.029729939E+02  1.250000000E+02  0.00000E+00  9.000E+00
      -1     1     1     2     0   501 -1.576939127E+00 -8.263886284E+01 -5.303668278E+01  9.820671112E+01  1.784161275E-06  0.00000E+00  9.000E+00
#rwgt            1           1   2.7845001338103123E-002           9      220125           0
</event>
<event>
      5   9999  3.79277E-02  2.59973E+01 -1.00000E+00  1.57489E-01
      21    -1     0     0   502   511  0.000000000E+00  0.000000000E+00  1.235039367E+03  1.235039367E+03  0.000000000E+00  0.00000E+00  9.000E+00
      21    -1     0     0   501   502  0.000000000E+00  0.000000000E+00 -6.638609651E+01  6.638609651E+01  0.000000000E+00  0.00000E+00  9.000E+00
      25     1     1     2     0     0 -9.379054711E+01 -2.141423709E+01  8.182683562E+02  8.333326701E+02  1.250000000E+02  0.00000E+00  9.000E+00
      25     1     1     2     0     0  1.058525065E+02 -1.615487974E+00  5.682257373E+01  1.733815671E+02  1.250000000E+02  0.00000E+00  9.000E+00
      21     1     1     2   501   511 -1.206195941E+01  2.302972507E+01  2.935623406E+02  2.947112264E+02  3.814697266E-06  0.00000E+00  9.000E+00
#rwgt            1           1   5.0338527570044825E-002           9      220292           0
</event>
<event>
      5   9999  3.79277E-02  1.08594E+02 -1.00000E+00  1.22239E-01
      21    -1     0     0   502   512  0.000000000E+00  0.000000000E+00  2.992213414E+02  2.992213414E+02  0.000000000E+00  0.00000E+00  9.000E+00
      21    -1     0     0   501   502  0.000000000E+00  0.000000000E+00 -3.979717498E+02  3.979717498E+02  0.000000000E+00  0.00000E+00  9.000E+00
      25     1     1     2     0     0  1.233387496E+02 -2.490974156E+01  3.778779610E+01  1.813445888E+02  1.250000000E+02  0.00000E+00  9.000E+00
      25     1     1     2     0     0 -8.743229747E+01  1.273962004E+02 -2.753641225E+02  3.395947562E+02  1.250000000E+02  0.00000E+00  9.000E+00
      21     1     1     2   501   512 -3.590645210E+01 -1.024864588E+02  1.388259179E+02  1.762537461E+02  1.907348633E-06  0.00000E+00  9.000E+00
#rwgt            1           1   4.3992183912520189E-002           9      220474           0
</event>
<event>
      5   9999  3.79277E-02  5.21969E+01 -1.00000E+00  1.38018E-01
      21    -1     0     0   511   501  0.000000000E+00  0.000000000E+00  4.864101634E+02  4.864101634E+02  0.000000000E+00  0.00000E+00  9.000E+00
      21    -1     0     0   501   502  0.000000000E+00  0.000000000E+00 -2.038412524E+02  2.038412524E+02  0.000000000E+00  0.00000E+00  9.000E+00
      25     1     1     2     0     0 -6.291226194E+01  9.271581642E+01  2.651419281E+02  3.138143039E+02  1.250000000E+02  0.00000E+00  9.000E+00
      25     1     1     2     0     0  9.332694805E+01 -1.351359124E+02 -1.134641039E+02  2.355222642E+02  1.250000000E+02  0.00000E+00  9.000E+00
      21     1     1     2   511   502 -3.041468611E+01  4.242009602E+01  1.308910868E+02  1.409148477E+02  1.907348633E-06  0.00000E+00  9.000E+00
#rwgt            1           1   4.2534780171708114E-002           9      220537           0
</event>
<event>
      5   9999  3.79277E-02  2.68463E+01 -1.00000E+00  1.56467E-01
      21    -1     0     0   502   501  0.000000000E+00  0.000000000E+00  1.290802737E+02  1.290802737E+02  0.000000000E+00  0.00000E+00  9.000E+00
      21    -1     0     0   501   512  0.000000000E+00  0.000000000E+00 -5.209265806E+02  5.209265806E+02  0.000000000E+00  0.00000E+00  9.000E+00
      25     1     1     2     0     0  1.159422304E+02  1.008286734E+02 -1.329611067E+02  2.385637820E+02  1.250000000E+02  0.00000E+00  9.000E+00
      25     1     1     2     0     0 -1.186891419E+02 -7.412329370E+01 -4.119352523E+01  1.921022686E+02  1.250000000E+02  0.00000E+00  9.000E+00
      21     1     1     2   502   512  2.746911457E+00 -2.670537972E+01 -2.176916750E+02  2.193408037E+02  2.697398305E-06  0.00000E+00  9.000E+00
#rwgt            1           1   4.5014640541981114E-002           9      220674           0
</event>
<event>
      5   9999  3.79277E-02  1.70403E+01 -1.00000E+00  1.72320E-01
      21    -1     0     0   511   501  0.000000000E+00  0.000000000E+00  2.736802663E+03  2.736802663E+03  0.000000000E+00  0.00000E+00  9.000E+00
      21    -1     0     0   501   502  0.000000000E+00  0.000000000E+00 -1.418111286E+01  1.418111286E+01  0.000000000E+00  0.00000E+00  9.000E+00
      25     1     1     2     0     0  8.914934708E+01  7.738610365E+01  7.304042485E+02  7.503676308E+02  1.250000000E+02  0.00000E+00  9.000E+00
      25     1     1     2     0     0 -8.862524327E+01 -6.035386649E+01  1.866083258E+03  1.873336262E+03  1.250000000E+02  0.00000E+00  9.000E+00
      21     1     1     2   511   502 -5.241038107E-01 -1.703223716E+01  1.261340428E+02  1.272798827E+02  2.336015456E-06  0.00000E+00  9.000E+00
#rwgt            1           1   6.0623604053980186E-002           9      220814           0
</event>
<event>
      5   9999  3.79277E-02  9.59245E+01 -1.00000E+00  1.24646E-01
      21    -1     0     0   502   501  0.000000000E+00  0.000000000E+00  1.632404922E+03  1.632404922E+03  0.000000000E+00  0.00000E+00  9.000E+00
       2    -1     0     0   501     0  0.000000000E+00  0.000000000E+00 -3.578811794E+02  3.578811794E+02  0.000000000E+00  0.00000E+00  9.000E+00
      25     1     1     2     0     0 -4.311444754E+01  2.098154232E+02  8.642668550E+02  8.991460193E+02  1.250000000E+02  0.00000E+00  9.000E+00
      25     1     1     2     0     0  1.368186010E+02 -2.303349412E+02  7.139075417E+02  7.726981900E+02  1.250000000E+02  0.00000E+00  9.000E+00
       2     1     1     2   502     0 -9.370415347E+01  2.051951798E+01 -3.036506540E+02  3.184418921E+02  5.394796609E-06  0.00000E+00  9.000E+00
#rwgt            1           1   5.9925784363297395E-002           9      220983           0
</event>
<event>
      5   9999  3.79277E-02  5.15438E+01 -1.00000E+00  1.38326E-01
      21    -1     0     0   502   501  0.000000000E+00  0.000000000E+00  5.763866492E+01  5.763866492E+01  0.000000000E+00  0.00000E+00  9.000E+00
      21    -1     0     0   511   502  0.000000000E+00  0.000000000E+00 -9.275444978E+02  9.275444978E+02  0.000000000E+00  0.00000E+00  9.000E+00
      25     1     1     2     0     0  8.040267731E+01 -9.509139311E+01 -1.480676098E+02  2.303388387E+02  1.250000000E+02  0.00000E+00  9.000E+00
      25     1     1     2     0     0 -3.088395454E+01  1.093974622E+02 -5.368612885E+02  5.628202790E+02  1.250000000E+02  0.00000E+00  9.000E+00
      21     1     1     2   511   501 -4.951872276E+01 -1.430606905E+01 -1.849769346E+02  1.920240450E+02  2.697398305E-06  0.00000E+00  9.000E+00
#rwgt            1           1   3.6153114830858119E-002           9      221114           0
</event>
<event>
      5   9999  3.79277E-02  1.55904E+01 -1.00000E+00  1.75819E-01
      21    -1     0     0   502   512  0.000000000E+00  0.000000000E+00  3.450839141E+02  3.450839141E+02  0.000000000E+00  0.00000E+00  9.000E+00
      21    -1     0     0   501   502  0.000000000E+00  0.000000000E+00 -4.252099312E+02  4.252099312E+02  0.000000000E+00  0.00000E+00  9.000E+00
      25     1     1     2     0     0  1.352172810E+02  1.684437421E+02 -1.114252576E+01  2.498122559E+02  1.250000000E+02  0.00000E+00  9.000E+00
      25     1     1     2     0     0 -1.207793768E+02 -1.743264248E+02 -2.429184668E+02  3.458493050E+02  1.250000000E+02  0.00000E+00  9.000E+00
      21     1     1     2   501   512 -1.443790424E+01  5.882682730E+00  1.739349755E+02  1.746322843E+02  2.697398305E-06  0.00000E+00  9.000E+00
#rwgt            1           1   4.5747277882136256E-002           9      221188           0
</event>
<event>
      5   9999  3.79277E-02  3.36989E+01 -1.00000E+00  1.49614E-01
      21    -1     0     0   511   501  0.000000000E+00  0.000000000E+00  4.568912313E+02  4.568912313E+02  0.000000000E+00  0.00000E+00  9.000E+00
      21    -1     0     0   501   502  0.000000000E+00  0.000000000E+00 -4.825569146E+02  4.825569146E+02  0.000000000E+00  0.00000E+00  9.000E+00
      25     1     1     2     0     0 -1.951153078E+02  8.278562610E+01 -1.747227096E+02  3.017887812E+02  1.250000000E+02  0.00000E+00  9.000E+00
      25     1     1     2     0     0  1.778846283E+02 -1.117462535E+02 -1.820821475E+02  3.048098991E+02  1.250000000E+02  0.00000E+00  9.000E+00
      21     1     1     2   511   502  1.723067940E+01  2.896062740E+01  3.311391738E+02  3.328494655E+02  0.000000000E+00  0.00000E+00  9.000E+00
#rwgt            1           1   3.8032411955244330E-002           9      221513           0
</event>
<event>
      5   9999  3.79277E-02  1.58873E+02 -1.00000E+00  1.15413E-01
      21    -1     0     0   502   501  0.000000000E+00  0.000000000E+00  1.026467436E+02  1.026467436E+02  0.000000000E+00  0.00000E+00  9.000E+00
      21    -1     0     0   512   502  0.000000000E+00  0.000000000E+00 -1.299518735E+03  1.299518735E+03  0.000000000E+00  0.00000E+00  9.000E+00
      25     1     1     2     0     0  2.287916759E+02  1.679963377E+02 -5.323509291E+02  6.161094969E+02  1.250000000E+02  0.00000E+00  9.000E+00
      25     1     1     2     0     0 -1.952293391E+02 -1.270899366E+01 -2.453322370E+02  3.377705136E+02  1.250000000E+02  0.00000E+00  9.000E+00
      21     1     1     2   512   501 -3.356233683E+01 -1.552873441E+02 -4.191888250E+02  4.482854678E+02  5.394796609E-06  0.00000E+00  9.000E+00
#rwgt            1           1   2.9581268476343486E-002           9      222060           0
</event>
<event>
      5   9999  3.79277E-02  1.20377E+02 -1.00000E+00  1.20311E-01
      21    -1     0     0   502   501  0.000000000E+00  0.000000000E+00  1.398013783E+03  1.398013783E+03  0.000000000E+00  0.00000E+00  9.000E+00
      21    -1     0     0   511   502  0.000000000E+00  0.000000000E+00 -8.854779240E+01  8.854779240E+01  0.000000000E+00  0.00000E+00  9.000E+00
      25     1     1     2     0     0 -6.752807783E+01 -5.695607848E+01  2.322084122E+02  2.781182893E+02  1.250000000E+02  0.00000E+00  9.000E+00
      25     1     1     2     0     0  1.789439757E+02  1.138115922E+01  1.065279228E+03  1.087471982E+03  1.250000000E+02  0.00000E+00  9.000E+00
      21     1     1     2   511   501 -1.114158978E+02  4.557491927E+01  1.197835011E+01  1.209713041E+02  1.203954809E-06  0.00000E+00  9.000E+00
#rwgt            1           1   3.5433478766165330E-002           9      222106           0
</event>
<event>
      5   9999  3.79277E-02  1.58534E+02 -1.00000E+00  1.15449E-01
      21    -1     0     0   512   501  0.000000000E+00  0.000000000E+00  7.577763384E+02  7.577763384E+02  0.000000000E+00  0.00000E+00  9.000E+00
      21    -1     0     0   501   502  0.000000000E+00  0.000000000E+00 -1.456214915E+02  1.456214915E+02  0.000000000E+00  0.00000E+00  9.000E+00
      25     1     1     2     0     0  1.421034720E+02  7.511225334E+01  1.326306124E+01  2.040493964E+02  1.250000000E+02  0.00000E+00  9.000E+00
      25     1     1     2     0     0 -1.272832831E+02  8.272774380E+01  3.933971030E+02  4.398081336E+02  1.250000000E+02  0.00000E+00  9.000E+00
      21     1     1     2   512   502 -1.482018895E+01 -1.578399971E+02  2.054946827E+02  2.595403000E+02  0.000000000E+00  0.00000E+00  9.000E+00
#rwgt            1           1   4.8995018222681118E-002           9      222341           0
</event>
<event>
      5   9999  3.79277E-02  6.11721E+01 -1.00000E+00  1.34256E-01
      21    -1     0     0   502   501  0.000000000E+00  0.000000000E+00  1.310626952E+03  1.310626952E+03  0.000000000E+00  0.00000E+00  9.000E+00
      21    -1     0     0   511   502  0.000000000E+00  0.000000000E+00 -1.107875015E+02  1.107875015E+02  0.000000000E+00  0.00000E+00  9.000E+00
      25     1     1     2     0     0  1.043779526E+02 -1.335832747E+02  1.034036942E+03  1.055270887E+03  1.250000000E+02  0.00000E+00  9.000E+00
      25     1     1     2     0     0 -1.576018094E+02  1.034295679E+02  1.947415924E+02  2.984715961E+02  1.250000000E+02  0.00000E+00  9.000E+00
      21     1     1     2   511   501  5.322385682E+01  3.015370688E+01 -2.893908375E+01  6.767197013E+01  7.539457465E-07  0.00000E+00  9.000E+00
#rwgt            1           1   3.0387490076986212E-002           9      222384           0
</event>
<event>
      5   9999  3.79277E-02  1.20403E+02 -1.00000E+00  1.20307E-01
      21    -1     0     0   512   501  0.000000000E+00  0.000000000E+00  3.520359326E+02  3.520359326E+02  0.000000000E+00  0.00000E+00  9.000E+00
      21    -1     0     0   501   502  0.000000000E+00  0.000000000E+00 -2.161512328E+02  2.161512328E+02  0.000000000E+00  0.00000E+00  9.000E+00
      25     1     1     2     0     0 -1.958811825E+02  9.106339443E-01  9.031058745E+01  2.493015626E+02  1.250000000E+02  0.00000E+00  9.000E+00
      25     1     1     2     0     0  8.533639709E+01 -4.862485805E+01 -4.837290806E+01  1.661674328E+02  1.250000000E+02  0.00000E+00  9.000E+00
      21     1     1     2   512   502  1.105447854E+02  4.771422411E+01  9.394702040E+01  1.527181699E+02  1.907348633E-06  0.00000E+00  9.000E+00
#rwgt            2          11   2.2488052720272228E-003           9      222568           0
</event>
<event>
      5   9999  3.79277E-02  1.56011E+02 -1.00000E+00  1.15721E-01
      21    -1     0     0   502   501  0.000000000E+00  0.000000000E+00  4.986510597E+02  4.986510597E+02  0.000000000E+00  0.00000E+00  9.000E+00
      21    -1     0     0   501   511  0.000000000E+00  0.000000000E+00 -2.375070109E+02  2.375070109E+02  0.000000000E+00  0.00000E+00  9.000E+00
      25     1     1     2     0     0 -5.025046133E+00  6.615434095E+01  2.692058205E+01  1.440533431E+02  1.250000000E+02  0.00000E+00  9.000E+00
      25     1     1     2     0     0  1.017958345E+02 -1.885258552E+02  3.271186461E+02  4.105313613E+02  1.250000000E+02  0.00000E+00  9.000E+00
      21     1     1     2   502   511 -9.677078835E+01  1.223715142E+02 -9.289517940E+01  1.815733662E+02  4.473129043E-06  0.00000E+00  9.000E+00
#rwgt            1           1   3.8280360067174224E-002           9      222633           0
</event>
<event>
      5   9999  3.79277E-02  6.12129E+01 -1.00000E+00  1.34241E-01
      21    -1     0     0   512   501  0.000000000E+00  0.000000000E+00  1.286723177E+02  1.286723177E+02  0.000000000E+00  0.00000E+00  9.000E+00
      21    -1     0     0   501   502  0.000000000E+00  0.000000000E+00 -3.129013260E+02  3.129013260E+02  0.000000000E+00  0.00000E+00  9.000E+00
      25     1     1     2     0     0  1.166732953E+02  4.807362089E+01 -7.710246038E+01  1.936324359E+02  1.250000000E+02  0.00000E+00  9.000E+00
      25     1     1     2     0     0 -6.070217608E+01 -7.285767515E+01 -1.005979399E+02  1.863811700E+02  1.250000000E+02  0.00000E+00  9.000E+00
      21     1     1     2   512   502 -5.597111918E+01  2.478405426E+01 -6.528608004E+00  6.156003777E+01  1.372201971E-06  0.00000E+00  9.000E+00
#rwgt            1           1   4.8712196488384055E-002           9      222709           0
</event>
<event>
      5   9999  3.79277E-02  1.62432E+01 -1.00000E+00  1.74187E-01
       2    -1     0     0   502     0  0.000000000E+00  0.000000000E+00  1.185819083E+03  1.185819083E+03  0.000000000E+00  0.00000E+00  9.000E+00
      21    -1     0     0   501   502  0.000000000E+00  0.000000000E+00 -4.401410011E+01  4.401410011E+01  0.000000000E+00  0.00000E+00  9.000E+00
      25     1     1     2     0     0  5.378690803E+01 -1.553273923E+02  4.209260161E+02  4.688532193E+02  1.250000000E+02  0.00000E+00  9.000E+00
      25     1     1     2     0     0 -6.183644103E+01  1.412190056E+02  4.781146406E+02  5.176728335E+02  1.250000000E+02  0.00000E+00  9.000E+00
       2     1     1     2   501     0  8.049532994E+00  1.410838669E+01  2.427643260E+02  2.433071300E+02  0.000000000E+00  0.00000E+00  9.000E+00
#rwgt            1           1   2.4098929207596102E-002           9      222784           0
</event>
<event>
      5   9999  3.79277E-02  5.05386E+01 -1.00000E+00  1.38811E-01
      21    -1     0     0   502   501  0.000000000E+00  0.000000000E+00  8.778876361E+02  8.778876361E+02  0.000000000E+00  0.00000E+00  9.000E+00
      21    -1     0     0   511   502  0.000000000E+00  0.000000000E+00 -2.793157462E+02  2.793157462E+02  0.000000000E+00  0.00000E+00  9.000E+00
      25     1     1     2     0     0  4.670930806E+01  7.825597467E+01  4.717241124E+02  4.964417340E+02  1.250000000E+02  0.00000E+00  9.000E+00
      25     1     1     2     0     0 -7.737904571E+01 -1.184245519E+02  3.684150259E+02  4.139643976E+02  1.250000000E+02  0.00000E+00  9.000E+00
      21     1     1     2   511   501  3.066973765E+01  4.016857720E+01 -2.415672484E+02  2.467972506E+02  4.672030912E-06  0.00000E+00  9.000E+00
#rwgt            2          11   1.2933577592691467E-002           9      223005           0
</event>
<event>
      5   9999  3.79277E-02  5.07588E+01 -1.00000E+00  1.38703E-01
      21    -1     0     0   502   512  0.000000000E+00  0.000000000E+00  2.701665693E+02  2.701665693E+02  0.000000000E+00  0.00000E+00  9.000E+00
      21    -1     0     0   501   502  0.000000000E+00  0.000000000E+00 -2.566566375E+02  2.566566375E+02  0.000000000E+00  0.00000E+00  9.000E+00
      25     1     1     2     0     0 -1.359302233E+02  1.492789213E+02  1.394797820E+01  2.378671227E+02  1.250000000E+02  0.00000E+00  9.000E+00
      25     1     1     2     0     0  8.537511184E+01 -1.538218385E+02 -4.609968208E+01  2.206813277E+02  1.250000000E+02  0.00000E+00  9.000E+00
      21     1     1     2   501   512  5.055511145E+01  4.542917204E+00  4.566163565E+01  6.827475639E+01  9.536743164E-07  0.00000E+00  9.000E+00
#rwgt            1           1   4.7393296889533920E-002           9      223070           0
</event>
<event>
      5   9999  3.79277E-02  4.28222E+01 -1.00000E+00  1.43027E-01
      21    -1     0     0   511   501  0.000000000E+00  0.000000000E+00  1.416055037E+02  1.416055037E+02  0.000000000E+00  0.00000E+00  9.000E+00
      21    -1     0     0   501   502  0.000000000E+00  0.000000000E+00 -3.560557304E+02  3.560557304E+02  0.000000000E+00  0.00000E+00  9.000E+00
      25     1     1     2     0     0 -1.341348009E+02 -4.446711251E+01 -8.066420270E+01  2.051857269E+02  1.250000000E+02  0.00000E+00  9.000E+00
      25     1     1     2     0     0  1.735792273E+02  2.779736659E+01 -1.230343025E+02  2.483241457E+02  1.250000000E+02  0.00000E+00  9.000E+00
      21     1     1     2   511   502 -3.944442640E+01  1.666974592E+01 -1.075172151E+01  4.415136146E+01  1.244581522E-06  0.00000E+00  9.000E+00
#rwgt            1           1   4.0859567014951623E-002           9      223134           0
</event>
<event>
      5   9999  3.79277E-02  3.86354E+01 -1.00000E+00  1.45781E-01
      21    -1     0     0   502   501  0.000000000E+00  0.000000000E+00  2.023376082E+03  2.023376082E+03  0.000000000E+00  0.00000E+00  9.000E+00
      21    -1     0     0   512   502  0.000000000E+00  0.000000000E+00 -8.845482817E+01  8.845482817E+01  0.000000000E+00  0.00000E+00  9.000E+00
      25     1     1     2     0     0 -1.264708358E+02 -2.098828929E+02  4.270953856E+02  5.080168987E+02  1.250000000E+02  0.00000E+00  9.000E+00
      25     1     1     2     0     0  1.005780676E+02  2.385579711E+02  1.531667384E+03  1.558414524E+03  1.250000000E+02  0.00000E+00  9.000E+00
      21     1     1     2   512   501  2.589276812E+01 -2.867507821E+01 -2.384151601E+01  4.539948719E+01  1.390207266E-06  0.00000E+00  9.000E+00
#rwgt            1           1   3.2341820096619525E-002           9      223281           0
</event>
<event>
      5   9999  3.79277E-02  6.38965E+00 -1.00000E+00  2.21310E-01
      21    -1     0     0   502   501  0.000000000E+00  0.000000000E+00  8.417103713E+02  8.417103713E+02  0.000000000E+00  0.00000E+00  9.000E+00
      21    -1     0     0   511   502  0.000000000E+00  0.000000000E+00 -7.205752361E+01  7.205752361E+01  0.000000000E+00  0.00000E+00  9.000E+00
      25     1     1     2     0     0 -1.727477387E+02  6.408480348E+01  2.705021329E+02  3.503498925E+02  1.250000000E+02  0.00000E+00  9.000E+00
      25     1     1     2     0     0  1.720746484E+02 -5.773070394E+01  5.072772951E+02  5.530802590E+02  1.250000000E+02  0.00000E+00  9.000E+00
      21     1     1     2   511   501  6.730903010E-01 -6.354099538E+00 -8.126580323E+00  1.033774343E+01  2.384185791E-07  0.00000E+00  9.000E+00
#rwgt            1           1   4.0814366164213751E-002           9      223448           0
</event>
<event>
      5   9999  3.79277E-02  5.92732E+01 -1.00000E+00  1.34987E-01
      21    -1     0     0   502   512  0.000000000E+00  0.000000000E+00  1.820327012E+03  1.820327012E+03  0.000000000E+00  0.00000E+00  9.000E+00
      21    -1     0     0   501   502  0.000000000E+00  0.000000000E+00 -3.047948066E+01  3.047948066E+01  0.000000000E+00  0.00000E+00  9.000E+00
      25     1     1     2     0     0  3.198502565E+01  3.003492907E+01  9.697536015E+02  9.787605358E+02  1.250000000E+02  0.00000E+00  9.000E+00
      25     1     1     2     0     0 -8.012078749E+01 -6.462195131E+01  2.435736270E+02  2.924866645E+02  1.250000000E+02  0.00000E+00  9.000E+00
      21     1     1     2   501   512  4.813576184E+01  3.458702224E+01  5.765203034E+02  5.795592928E+02  1.078959322E-05  0.00000E+00  9.000E+00
#rwgt            1           1   4.5653126931946952E-002           9      223722           0
</event>
<event>
      5   9999  3.79277E-02  1.78482E+01 -1.00000E+00  1.70554E-01
      21    -1     0     0   511   501  0.000000000E+00  0.000000000E+00  6.055112247E+01  6.055112247E+01  0.000000000E+00  0.00000E+00  9.000E+00
      21    -1     0     0   501   502  0.000000000E+00  0.000000000E+00 -7.764594137E+02  7.764594137E+02  0.000000000E+00  0.00000E+00  9.000E+00
      25     1     1     2     0     0 -6.661782954E+01 -1.513669441E+02 -4.440105685E+02  4.900206852E+02  1.250000000E+02  0.00000E+00  9.000E+00
      25     1     1     2     0     0  6.521374179E+01  1.335740796E+02 -2.632967045E+02  3.271773547E+02  1.250000000E+02  0.00000E+00  9.000E+00
      21     1     1     2   511   502  1.404087751E+00  1.779286455E+01 -8.601018212E+00  1.981249620E+01  3.153981341E-07  0.00000E+00  9.000E+00
#rwgt            1           1  0.11281435684470097                9      223824           0
</event>
<event>
      5   9999  3.79277E-02  2.23692E+01 -1.00000E+00  1.62455E-01
      21    -1     0     0   502   501  0.000000000E+00  0.000000000E+00  7.088363242E+02  7.088363242E+02  0.000000000E+00  0.00000E+00  9.000E+00
      -1    -1     0     0     0   502  0.000000000E+00  0.000000000E+00 -1.523291119E+02  1.523291119E+02  0.000000000E+00  0.00000E+00  9.000E+00
      25     1     1     2     0     0 -1.699098665E+02 -1.605815113E+02  4.521261542E+02  5.241172043E+02  1.250000000E+02  0.00000E+00  9.000E+00
      25     1     1     2     0     0  1.635227442E+02  1.391435325E+02  1.471707119E+02  2.887643138E+02  1.250000000E+02  0.00000E+00  9.000E+00
      -1     1     1     2     0   501  6.387122360E+00  2.143797890E+01 -4.278965374E+01  4.828391801E+01  1.168007728E-06  0.00000E+00  9.000E+00
#rwgt            1           1  0.11579432139210917                9      224156           0
</event>
<event>
      5   9999  3.79277E-02  8.61454E+01 -1.00000E+00  1.26813E-01
      21    -1     0     0   511   501  0.000000000E+00  0.000000000E+00  9.160111139E+02  9.160111139E+02  0.000000000E+00  0.00000E+00  9.000E+00
      21    -1     0     0   501   502  0.000000000E+00  0.000000000E+00 -7.158118227E+02  7.158118227E+02  0.000000000E+00  0.00000E+00  9.000E+00
      25     1     1     2     0     0  6.024711136E+01  3.674700713E+01 -6.311701646E+02  6.472872884E+02  1.250000000E+02  0.00000E+00  9.000E+00
      25     1     1     2     0     0 -8.044265131E+01  4.699765174E+01  7.400294688E+00  1.560755067E+02  1.250000000E+02  0.00000E+00  9.000E+00
      21     1     1     2   511   502  2.019553995E+01 -8.374465887E+01  8.239691611E+02  8.284601416E+02  1.525878906E-05  0.00000E+00  9.000E+00
#rwgt            1           1   4.5942669013517234E-002           9      224313           0
</event>
<event>
      5   9999  3.79277E-02  1.00296E+02 -1.00000E+00  1.23770E-01
       2    -1     0     0   502     0  0.000000000E+00  0.000000000E+00  3.028226750E+03  3.028226750E+03  0.000000000E+00  0.00000E+00  9.000E+00
      21    -1     0     0   501   502  0.000000000E+00  0.000000000E+00 -7.255130772E+02  7.255130772E+02  0.000000000E+00  0.00000E+00  9.000E+00
      25     1     1     2     0     0 -6.466125325E+01 -9.366407522E+01 -2.948931729E+02  3.399132538E+02  1.250000000E+02  0.00000E+00  9.000E+00
      25     1     1     2     0     0  1.579698862E+02  5.688426749E+01 -3.803696085E+02  4.341616564E+02  1.250000000E+02  0.00000E+00  9.000E+00
       2     1     1     2   501     0 -9.330863291E+01  3.677980773E+01  2.977976454E+03  2.979664917E+03  6.103515625E-05  0.00000E+00  9.000E+00
#rwgt            1           1   4.0830326399529833E-002           9      224499           0
</event>
<event>
      5   9999  3.79277E-02  2.53962E+01 -1.00000E+00  1.58241E-01
      21    -1     0     0   502   501  0.000000000E+00  0.000000000E+00  1.359857947E+02  1.359857947E+02  0.000000000E+00  0.00000E+00  9.000E+00
      21    -1     0     0   501   511  0.000000000E+00  0.000000000E+00 -4.350247077E+02  4.350247077E+02  0.000000000E+00  0.00000E+00  9.000E+00
      25     1     1     2     0     0 -9.132264960E+01  7.184140014E+00  6.145649512E+01  1.667133438E+02  1.250000000E+02  0.00000E+00  9.000E+00
      25     1     1     2     0     0  7.341499027E+01 -2.519200234E+01 -3.436433179E+02  3.738183084E+02  1.250000000E+02  0.00000E+00  9.000E+00
      21     1     1     2   502   511  1.790765933E+01  1.800786232E+01 -1.685209023E+01  3.047885026E+01  3.371747881E-07  0.00000E+00  9.000E+00
#rwgt            1           1   4.3788045210362732E-002           9      224544           0
</event>
<event>
      5   9999  3.79277E-02  3.86520E+01 -1.00000E+00  1.45770E-01
      21    -1     0     0   502   501  0.000000000E+00  0.000000000E+00  1.430015133E+02  1.430015133E+02  0.000000000E+00  0.00000E+00  9.000E+00
       2    -1     0     0   501     0  0.000000000E+00  0.000000000E+00 -1.427871243E+03  1.427871243E+03  0.000000000E+00  0.00000E+00  9.000E+00
      25     1     1     2     0     0  6.089561819E+01 -4.139736090E+01 -2.539085352E+02  2.924321495E+02  1.250000000E+02  0.00000E+00  9.000E+00
      25     1     1     2     0     0 -9.539255682E+01  2.396352534E+01  7.214770361E+01  1.746547497E+02  1.250000000E+02  0.00000E+00  9.000E+00
       2     1     1     2   502     0  3.449693863E+01  1.743383556E+01 -1.103108898E+03  1.103785857E+03  2.157918644E-05  0.00000E+00  9.000E+00
#rwgt            1           1   3.8661894475532324E-002           9      224714           0
</event>
<event>
      5   9999  3.79277E-02  7.06300E+01 -1.00000E+00  1.31024E-01
      21    -1     0     0   511   501  0.000000000E+00  0.000000000E+00  3.068333076E+02  3.068333076E+02  0.000000000E+00  0.00000E+00  9.000E+00
      21    -1     0     0   501   502  0.000000000E+00  0.000000000E+00 -3.717016900E+02  3.717016900E+02  0.000000000E+00  0.00000E+00  9.000E+00
      25     1     1     2     0     0  1.492168179E+02 -2.889592563E+01 -2.452686408E+02  3.144556240E+02  1.250000000E+02  0.00000E+00  9.000E+00
      25     1     1     2     0     0 -2.112904163E+02 -4.800652696E+00  1.432520963E+02  2.842760092E+02  1.250000000E+02  0.00000E+00  9.000E+00
      21     1     1     2   511   502  6.207359845E+01  3.369657833E+01  3.714816212E+01  7.980336437E+01  6.743495762E-07  0.00000E+00  9.000E+00
#rwgt            1           1   3.8349353561793600E-002           9      224999           0
</event>
<event>
      5   9999  3.79277E-02  2.53648E+01 -1.00000E+00  1.58281E-01
      21    -1     0     0   502   512  0.000000000E+00  0.000000000E+00  5.849218469E+02  5.849218469E+02  0.000000000E+00  0.00000E+00  9.000E+00
      21    -1     0     0   501   502  0.000000000E+00  0.000000000E+00 -1.614264240E+02  1.614264240E+02  0.000000000E+00  0.00000E+00  9.000E+00
      25     1     1     2     0     0  1.528377954E+02  1.106415690E+02  4.923281138E+01  2.316243040E+02  1.250000000E+02  0.00000E+00  9.000E+00
      25     1     1     2     0     0 -1.767893048E+02 -1.022930593E+02  1.365490253E+02  2.756609595E+02  1.250000000E+02  0.00000E+00  9.000E+00
      21     1     1     2   501   512  2.395150940E+01 -8.348509729E+00  2.377135862E+02  2.390630074E+02  2.697398305E-06  0.00000E+00  9.000E+00
#rwgt            1           1   3.9364852997856845E-002           9      225127           0
</event>
<event>
      5   9999  3.79277E-02  6.56186E+01 -1.00000E+00  1.32658E-01
      21    -1     0     0   502   501  0.000000000E+00  0.000000000E+00  1.477156809E+02  1.477156809E+02  0.000000000E+00  0.00000E+00  9.000E+00
      21    -1     0     0   511   502  0.000000000E+00  0.000000000E+00 -7.263968125E+02  7.263968125E+02  0.000000000E+00  0.00000E+00  9.000E+00
      25     1     1     2     0     0  1.930887767E+02 -1.483528748E+02 -2.136398773E+02  3.472158527E+02  1.250000000E+02  0.00000E+00  9.000E+00
      25     1     1     2     0     0 -2.541695415E+02  1.243748530E+02 -2.654279311E+02  4.076128635E+02  1.250000000E+02  0.00000E+00  9.000E+00
      21     1     1     2   511   501  6.108076481E+01  2.397802189E+01 -9.961332319E+01  1.192837773E+02  1.348699152E-06  0.00000E+00  9.000E+00
#rwgt            1           1   2.8051541048057946E-002           9      225374           0
</event>
<event>
      5   9999  3.79277E-02  1.31184E+01 -1.00000E+00  1.83049E-01
      21    -1     0     0   502   512  0.000000000E+00  0.000000000E+00  4.606214083E+02  4.606214083E+02  0.000000000E+00  0.00000E+00  9.000E+00
      21    -1     0     0   501   502  0.000000000E+00  0.000000000E+00 -1.362124242E+02  1.362124242E+02  0.000000000E+00  0.00000E+00  9.000E+00
      25     1     1     2     0     0 -6.403355212E+01 -4.674215140E+01 -4.217524093E+01  1.539119081E+02  1.250000000E+02  0.00000E+00  9.000E+00
      25     1     1     2     0     0  6.588908221E+01  5.972870908E+01  1.168449947E+02  1.928383848E+02  1.250000000E+02  0.00000E+00  9.000E+00
      21     1     1     2   501   512 -1.855530082E+00 -1.298655768E+01  2.497392303E+02  2.500835396E+02  4.672030912E-06  0.00000E+00  9.000E+00
#rwgt            1           1   4.9824767347600191E-002           9      225560           0
</event>
<event>
      5   9999  3.79277E-02  2.23385E+01 -1.00000E+00  1.62502E-01
      21    -1     0     0   502   501  0.000000000E+00  0.000000000E+00  4.155927865E+02  4.155927865E+02  0.000000000E+00  0.00000E+00  9.000E+00
      21    -1     0     0   501   511  0.000000000E+00  0.000000000E+00 -1.936298435E+02  1.936298435E+02  0.000000000E+00  0.00000E+00  9.000E+00
      25     1     1     2     0     0  9.866484733E+01 -1.336900933E+02  1.903109452E+02  2.818706246E+02  1.250000000E+02  0.00000E+00  9.000E+00
      25     1     1     2     0     0 -1.163119175E+02  1.473863543E+02  1.063594625E+02  2.493762917E+02  1.250000000E+02  0.00000E+00  9.000E+00
      21     1     1     2   502   511  1.764707019E+01 -1.369626100E+01 -7.470746466E+01  7.797571370E+01  1.907348633E-06  0.00000E+00  9.000E+00
#rwgt            1           1   2.7239186280870870E-002           9      225702           0
</event>
<event>
      5   9999  3.79277E-02  9.77934E+01 -1.00000E+00  1.24265E-01
      21    -1     0     0   502   501  0.000000000E+00  0.000000000E+00  7.086262787E+01  7.086262787E+01  0.000000000E+00  0.00000E+00  9.000E+00
      21    -1     0     0   501   512  0.000000000E+00  0.000000000E+00 -1.162247797E+03  1.162247797E+03  0.000000000E+00  0.00000E+00  9.000E+00
      25     1     1     2     0     0 -7.174644061E+01  8.896838132E+01 -7.899875959E+02  8.079407938E+02  1.250000000E+02  0.00000E+00  9.000E+00
      25     1     1     2     0     0  4.936897026E+00 -1.755383920E+01 -2.080653674E+01  1.280250842E+02  1.250000000E+02  0.00000E+00  9.000E+00
      21     1     1     2   502   512  6.680954358E+01 -7.141454211E+01 -2.805910362E+02  2.971445465E+02  5.394796609E-06  0.00000E+00  9.000E+00
#rwgt            1           1   4.9372085894707922E-002           9      225820           0
</event>
<event>
      5   9999  3.79277E-02  3.43797E+01 -1.00000E+00  1.49040E-01
      21    -1     0     0   502   501  0.000000000E+00  0.000000000E+00  1.651168500E+03  1.651168500E+03  0.000000000E+00  0.00000E+00  9.000E+00
      21    -1     0     0   501   511  0.000000000E+00  0.000000000E+00 -1.409822086E+02  1.409822086E+02  0.000000000E+00  0.00000E+00  9.000E+00
      25     1     1     2     0     0 -2.039231701E+02 -2.566299858E+02  1.331895036E+03  1.377320949E+03  1.250000000E+02  0.00000E+00  9.000E+00
      25     1     1     2     0     0  2.057547708E+02  2.222991081E+02  1.896674283E+02  3.786167621E+02  1.250000000E+02  0.00000E+00  9.000E+00
      21     1     1     2   502   511 -1.831600755E+00  3.433087766E+01 -1.137617264E+01  3.621299802E+01  1.092571186E-06  0.00000E+00  9.000E+00
#rwgt            1           1   1.2656510283426904E-002           9      225924           0
</event>
<event>
      5   9999  3.79277E-02  4.84337E+01 -1.00000E+00  1.39869E-01
      21    -1     0     0   512   501  0.000000000E+00  0.000000000E+00  1.038206767E+03  1.038206767E+03  0.000000000E+00  0.00000E+00  9.000E+00
      21    -1     0     0   501   502  0.000000000E+00  0.000000000E+00 -7.840375233E+01  7.840375233E+01  0.000000000E+00  0.00000E+00  9.000E+00
      25     1     1     2     0     0  8.668856988E+01 -3.983946082E+01  7.401561321E+02  7.566757500E+02  1.250000000E+02  0.00000E+00  9.000E+00
      25     1     1     2     0     0 -6.059344300E+01 -9.633290551E-01  4.060455282E+00  1.389747482E+02  1.250000000E+02  0.00000E+00  9.000E+00
      21     1     1     2   512   502 -2.609512688E+01  4.080278987E+01  2.155864278E+02  2.209600216E+02  3.814697266E-06  0.00000E+00  9.000E+00
#rwgt            1           1   4.8961744404241093E-002           9      226105           0
</event>
<event>
      5   9999  3.79277E-02  7.85885E+01 -1.00000E+00  1.28725E-01
      21    -1     0     0   511   501  0.000000000E+00  0.000000000E+00  2.495350571E+02  2.495350571E+02  0.000000000E+00  0.00000E+00  9.000E+00
      21    -1     0     0   501   502  0.000000000E+00  0.000000000E+00 -5.199233265E+02  5.199233265E+02  0.000000000E+00  0.00000E+00  9.000E+00
      25     1     1     2     0     0 -1.276010213E+02  1.959603611E+02 -3.287216767E+02  4.223333097E+02  1.250000000E+02  0.00000E+00  9.000E+00
      25     1     1     2     0     0  5.019052258E+01 -2.095162032E+02  8.645288422E+01  2.636574086E+02  1.250000000E+02  0.00000E+00  9.000E+00
      21     1     1     2   511   502  7.741049871E+01  1.355584210E+01 -2.811947683E+01  8.346766525E+01  1.430511475E-06  0.00000E+00  9.000E+00
#rwgt            1           1   3.3498348001164607E-002           9      226311           0
</event>
<event>
      5   9999  3.79277E-02  2.15459E+01 -1.00000E+00  1.63745E-01
      21    -1     0     0   502   512  0.000000000E+00  0.000000000E+00  2.741529307E+02  2.741529307E+02  0.000000000E+00  0.00000E+00  9.000E+00
      21    -1     0     0   501   502  0.000000000E+00  0.000000000E+00 -9.253525010E+02  9.253525010E+02  0.000000000E+00  0.00000E+00  9.000E+00
      25     1     1     2     0     0  8.570764114E+01  1.894691984E+02 -8.484416181E+02  8.824525802E+02  1.250000000E+02  0.00000E+00  9.000E+00
      25     1     1     2     0     0 -8.151415577E+01 -1.683353623E+02  1.895688942E+02  2.941814362E+02  1.250000000E+02  0.00000E+00  9.000E+00
      21     1     1     2   501   512 -4.193485368E+00 -2.113383612E+01  7.673153638E+00  2.287141525E+01  6.251387883E-07  0.00000E+00  9.000E+00
#rwgt            1           1   8.8343392605327184E-002           9      226443           0
</event>
<event>
      5   9999  3.79277E-02  1.12293E+01 -1.00000E+00  1.90111E-01
      21    -1     0     0   502   501  0.000000000E+00  0.000000000E+00  5.873113512E+01  5.873113512E+01  0.000000000E+00  0.00000E+00  9.000E+00
      21    -1     0     0   511   502  0.000000000E+00  0.000000000E+00 -7.911848128E+02  7.911848128E+02  0.000000000E+00  0.00000E+00  9.000E+00
      25     1     1     2     0     0  1.026758955E+02 -1.075854169E+02 -1.902366825E+02  2.719043156E+02  1.250000000E+02  0.00000E+00  9.000E+00
      25     1     1     2     0     0 -9.358851013E+01  1.009887295E+02 -4.795203340E+02  5.143172984E+02  1.250000000E+02  0.00000E+00  9.000E+00
      21     1     1     2   511   501 -9.087385346E+00  6.596687377E+00 -6.269666114E+01  6.369433394E+01  6.743495762E-07  0.00000E+00  9.000E+00
#rwgt            1           1   3.6081152668763494E-002           9      226697           0
</event>
<event>
      5   9999  3.79277E-02  5.44701E+01 -1.00000E+00  1.36986E-01
      21    -1     0     0   512   501  0.000000000E+00  0.000000000E+00  1.993782411E+03  1.993782411E+03  0.000000000E+00  0.00000E+00  9.000E+00
      21    -1     0     0   501   502  0.000000000E+00  0.000000000E+00 -3.502832406E+01  3.502832406E+01  0.000000000E+00  0.00000E+00  9.000E+00
      25     1     1     2     0     0 -1.058694872E+02 -4.300176810E+01  6.991120590E+02  7.193331435E+02  1.250000000E+02  0.00000E+00  9.000E+00
      25     1     1     2     0     0  1.601286612E+02  3.821265240E+01  4.203855610E+02  4.684553499E+02  1.250000000E+02  0.00000E+00  9.000E+00
      21     1     1     2   512   502 -5.425917399E+01  4.789115705E+00  8.392564670E+02  8.410222417E+02  0.000000000E+00  0.00000E+00  9.000E+00
#rwgt            1           1   3.0505198169870882E-002           9      227035           0
</event>
<event>
      5   9999 -3.79277E-02  2.89935E+01 -1.00000E+00  1.54076E-01
      21    -1     0     0   511   501  0.000000000E+00  0.000000000E+00  1.929209160E+03  1.929209160E+03  0.000000000E+00  0.00000E+00  9.000E+00
      21    -1     0     0   501   502  0.000000000E+00  0.000000000E+00 -1.086733608E+02  1.086733608E+02  0.000000000E+00  0.00000E+00  9.000E+00
      25     1     1     2     0     0 -2.721605291E+02 -1.820304376E+02  2.719152046E+02  4.435868712E+02  1.250000000E+02  0.00000E+00  9.000E+00
      25     1     1     2     0     0  2.526046679E+02  2.034358761E+02  1.468913878E+03  1.509479464E+03  1.250000000E+02  0.00000E+00  9.000E+00
      21     1     1     2   511   502  1.955586126E+01 -2.140543852E+01  7.970671733E+01  8.481618534E+01  0.000000000E+00  0.00000E+00  9.000E+00
#rwgt            1           1 -0.13517546555349136                9      227190           0
</event>
<event>
      5   9999  3.79277E-02  2.42747E+02 -1.00000E+00  1.08669E-01
      21    -1     0     0   512   501  0.000000000E+00  0.000000000E+00  5.055806666E+02  5.055806666E+02  0.000000000E+00  0.00000E+00  9.000E+00
      21    -1     0     0   501   502  0.000000000E+00  0.000000000E+00 -1.701616728E+03  1.701616728E+03  0.000000000E+00  0.00000E+00  9.000E+00
      25     1     1     2     0     0 -1.212034024E+02 -3.286368182E+01 -6.214671696E+02  6.462327206E+02  1.250000000E+02  0.00000E+00  9.000E+00
      25     1     1     2     0     0  3.292829890E+02 -9.215200730E+01 -1.003835628E+03  1.067815643E+03  1.250000000E+02  0.00000E+00  9.000E+00
      21     1     1     2   512   502 -2.080795866E+02  1.250156891E+02  4.292667357E+02  4.931490315E+02  7.629394531E-06  0.00000E+00  9.000E+00
#rwgt            1           1   3.0023175645429227E-002           9      227344           0
</event>
<event>
      5   9999  3.79277E-02  3.94133E+01 -1.00000E+00  1.45239E-01
      21    -1     0     0   502   501  0.000000000E+00  0.000000000E+00  1.494158306E+02  1.494158306E+02  0.000000000E+00  0.00000E+00  9.000E+00
      -4    -1     0     0     0   502  0.000000000E+00  0.000000000E+00 -7.927060658E+02  7.927060658E+02  0.000000000E+00  0.00000E+00  9.000E+00
      25     1     1     2     0     0  9.004189159E+01 -5.002675440E+01 -1.289952111E+02  2.070627511E+02  1.250000000E+02  0.00000E+00  9.000E+00
      25     1     1     2     0     0 -6.804362717E+01  1.732382299E+01  6.287046777E+01  1.565494994E+02  1.250000000E+02  0.00000E+00  9.000E+00
      -4     1     1     2     0   501 -2.199826443E+01  3.270293141E+01 -5.771654918E+02  5.785096458E+02  1.078959322E-05  0.00000E+00  9.000E+00
#rwgt            1           1   5.1208917174070299E-002           9      227416           0
</event>
<event>
      5   9999  3.79277E-02  4.72820E+01 -1.00000E+00  1.40475E-01
      21    -1     0     0   502   501  0.000000000E+00  0.000000000E+00  3.183610648E+02  3.183610648E+02  0.000000000E+00  0.00000E+00  9.000E+00
      21    -1     0     0   511   502  0.000000000E+00  0.000000000E+00 -3.339648323E+02  3.339648323E+02  0.000000000E+00  0.00000E+00  9.000E+00
      25     1     1     2     0     0  1.694145446E+01  1.667819563E+02  7.423181845E+00  2.092446832E+02  1.250000000E+02  0.00000E+00  9.000E+00
      25     1     1     2     0     0  1.504399253E+01 -1.319607177E+02  1.669799786E+02  2.472797323E+02  1.250000000E+02  0.00000E+00  9.000E+00
      21     1     1     2   511   501 -3.198544698E+01 -3.482123859E+01 -1.900069280E+02  1.958014815E+02  3.814697266E-06  0.00000E+00  9.000E+00
#rwgt            1           1   3.7243539252503642E-002           9      227530           0
</event>
<event>
      5   9999  3.79277E-02  1.63691E+01 -1.00000E+00  1.73883E-01
      21    -1     0     0   502   512  0.000000000E+00  0.000000000E+00  1.415321313E+02  1.415321313E+02  0.000000000E+00  0.00000E+00  9.000E+00
      21    -1     0     0   501   502  0.000000000E+00  0.000000000E+00 -3.584097412E+02  3.584097412E+02  0.000000000E+00  0.00000E+00  9.000E+00
      25     1     1     2     0     0 -8.179685428E+01 -1.566038792E+02 -1.247180725E+02  2.497901078E+02  1.250000000E+02  0.00000E+00  9.000E+00
      25     1     1     2     0     0  9.569781833E+01  1.479604017E+02 -8.786540369E+01  2.332288191E+02  1.250000000E+02  0.00000E+00  9.000E+00
      21     1     1     2   501   512 -1.390096404E+01  8.643477417E+00 -4.294133668E+00  1.692294558E+01  1.576990671E-07  0.00000E+00  9.000E+00
#rwgt            1           1   2.7659999068874612E-002           9      227630           0
</event>
<event>
      5   9999  3.79277E-02  5.97178E+01 -1.00000E+00  1.34813E-01
      21    -1     0     0   511   501  0.000000000E+00  0.000000000E+00  2.326400408E+02  2.326400408E+02  0.000000000E+00  0.00000E+00  9.000E+00
      21    -1     0     0   501   502  0.000000000E+00  0.000000000E+00 -8.050330337E+02  8.050330337E+02  0.000000000E+00  0.00000E+00  9.000E+00
      25     1     1     2     0     0  2.598110013E+01  8.578647910E+01  1.234195693E+00  1.538208724E+02  1.250000000E+02  0.00000E+00  9.000E+00
      25     1     1     2     0     0 -2.403905142E+01 -2.610022241E+01 -7.169269334E+02  7.286071132E+02  1.250000000E+02  0.00000E+00  9.000E+00
      21     1     1     2   511   502 -1.942048712E+00 -5.968625669E+01  1.432997447E+02  1.552450889E+02  1.907348633E-06  0.00000E+00  9.000E+00
#rwgt            1           1   4.2804687466260996E-002           9      227933           0
</event>
<event>
      5   9999  3.79277E-02  1.63587E+01 -1.00000E+00  1.73908E-01
      21    -1     0     0   512   501  0.000000000E+00  0.000000000E+00  4.699909031E+02  4.699909031E+02  0.000000000E+00  0.00000E+00  9.000E+00
      21    -1     0     0   501   502  0.000000000E+00  0.000000000E+00 -1.020936751E+02  1.020936751E+02  0.000000000E+00  0.00000E+00  9.000E+00
      25     1     1     2     0     0 -1.050297264E+02  8.704381631E+01  3.840883304E+01  1.889658907E+02  1.250000000E+02  0.00000E+00  9.000E+00
      25     1     1     2     0     0  8.879885712E+01 -8.908504068E+01  2.844205075E+02  3.351736961E+02  1.250000000E+02  0.00000E+00  9.000E+00
      21     1     1     2   512   502  1.623086930E+01  2.041224370E+00  4.506788748E+01  4.794499137E+01  4.768371582E-07  0.00000E+00  9.000E+00
#rwgt            1           1   4.1313074539131231E-002           9      228033           0
</event>
<event>
      5   9999  3.79277E-02  3.24794E+01 -1.00000E+00  1.50682E-01
      21    -1     0     0   511   501  0.000000000E+00  0.000000000E+00  2.300697216E+02  2.300697216E+02  0.000000000E+00  0.00000E+00  9.000E+00
      21    -1     0     0   501   502  0.000000000E+00  0.000000000E+00 -2.727902439E+02  2.727902439E+02  0.000000000E+00  0.00000E+00  9.000E+00
      25     1     1     2     0     0 -1.486318784E+01 -1.522369382E+02  5.865068922E+01  2.060628619E+02  1.250000000E+02  0.00000E+00  9.000E+00
      25     1     1     2     0     0  4.676307203E+01  1.461286368E+02 -1.428808104E+02  2.440907401E+02  1.250000000E+02  0.00000E+00  9.000E+00
      21     1     1     2   511   502 -3.189988419E+01  6.108301337E+00  4.150959885E+01  5.270636349E+01  4.768371582E-07  0.00000E+00  9.000E+00
#rwgt            1           1   4.6629386213678591E-002           9      228280           0
</event>
<event>
      5   9999  3.79277E-02  6.59602E+01 -1.00000E+00  1.32542E-01
      21    -1     0     0   512   501  0.000000000E+00  0.000000000E+00  4.695163161E+02  4.695163161E+02  0.000000000E+00  0.00000E+00  9.000E+00
      21    -1     0     0   501   502  0.000000000E+00  0.000000000E+00 -3.000526731E+02  3.000526731E+02  0.000000000E+00  0.00000E+00  9.000E+00
      25     1     1     2     0     0 -1.015818984E+00 -9.091880524E+01 -6.781167592E+01  1.687918376E+02  1.250000000E+02  0.00000E+00  9.000E+00
      25     1     1     2     0     0  1.174102900E+01  1.560012340E+02 -1.226725028E+02  2.348356440E+02  1.250000000E+02  0.00000E+00  9.000E+00
      21     1     1     2   512   502 -1.072521002E+01 -6.508242875E+01  3.599478217E+02  3.659415076E+02  3.814697266E-06  0.00000E+00  9.000E+00
#rwgt            1           1   4.3190468594309507E-002           9      228441           0
</event>
<event>
      5   9999  3.79277E-02  5.54023E+01 -1.00000E+00  1.36580E-01
      21    -1     0     0   502   501  0.000000000E+00  0.000000000E+00  2.020306731E+02  2.020306731E+02  0.000000000E+00  0.00000E+00  9.000E+00
      21    -1     0     0   501   511  0.000000000E+00  0.000000000E+00 -3.581575656E+02  3.581575656E+02  0.000000000E+00  0.00000E+00  9.000E+00
      25     1     1     2     0     0 -3.067424600E+01 -1.177049301E+01 -2.161529883E+02  2.518463186E+02  1.250000000E+02  0.00000E+00  9.000E+00
      25     1     1     2     0     0  2.860783782E+01  6.713428098E+01  1.463063000E+02  2.058056206E+02  1.250000000E+02  0.00000E+00  9.000E+00
      21     1     1     2   502   511  2.066408179E+00 -5.536378798E+01 -8.628020416E+01  1.025362994E+02  1.348699152E-06  0.00000E+00  9.000E+00
#rwgt            1           1   3.9958604204728659E-002           9      228570           0
</event>
<event>
      5   9999  3.79277E-02  8.85316E+01 -1.00000E+00  1.26255E-01
      21    -1     0     0   502   512  0.000000000E+00  0.000000000E+00  3.699234313E+02  3.699234313E+02  0.000000000E+00  0.00000E+00  9.000E+00
      21    -1     0     0   501   502  0.000000000E+00  0.000000000E+00 -2.873496934E+02  2.873496934E+02  0.000000000E+00  0.00000E+00  9.000E+00
      25     1     1     2     0     0  1.045248120E+01  1.296690871E+02  1.493413328E+01  1.810286023E+02  1.250000000E+02  0.00000E+00  9.000E+00
      25     1     1     2     0     0 -9.832821828E+01 -1.189127041E+02 -1.450183336E+02  2.458942594E+02  1.250000000E+02  0.00000E+00  9.000E+00
      21     1     1     2   501   512  8.787573708E+01 -1.075638301E+01  2.126579382E+02  2.303502629E+02  0.000000000E+00  0.00000E+00  9.000E+00
#rwgt            1           1   4.2493444090921921E-002           9      228686           0
</event>
<event>
      5   9999  3.79277E-02  2.60794E+02 -1.00000E+00  1.07607E-01
       2    -1     0     0   502     0  0.000000000E+00  0.000000000E+00  1.864312672E+03  1.864312672E+03  0.000000000E+00  0.00000E+00  9.000E+00
      21    -1     0     0   501   502  0.000000000E+00  0.000000000E+00 -7.202794641E+02  7.202794641E+02  0.000000000E+00  0.00000E+00  9.000E+00
      25     1     1     2     0     0  3.146678422E+02 -1.101391060E+02 -4.210222148E+02  5.513902238E+02  1.250000000E+02  0.00000E+00  9.000E+00
      25     1     1     2     0     0 -1.792288168E+02 -1.127285528E+02 -1.568582043E+02  2.916508043E+02  1.250000000E+02  0.00000E+00  9.000E+00
       2     1     1     2   501     0 -1.354390253E+02  2.228676588E+02  1.721913627E+03  1.741551108E+03  2.157918644E-05  0.00000E+00  9.000E+00
#rwgt            2          18   4.4595386762243507E-003           9      228804           0
</event>
<event>
      5   9999  3.79277E-02  7.70167E+01 -1.00000E+00  1.29153E-01
      21    -1     0     0   502   501  0.000000000E+00  0.000000000E+00  4.769437786E+02  4.769437786E+02  0.000000000E+00  0.00000E+00  9.000E+00
      21    -1     0     0   501   511  0.000000000E+00  0.000000000E+00 -2.501099429E+02  2.501099429E+02  0.000000000E+00  0.00000E+00  9.000E+00
      25     1     1     2     0     0 -1.469760545E+02  2.165369708E+02  1.996851913E+02  3.521212801E+02  1.250000000E+02  0.00000E+00  9.000E+00
      25     1     1     2     0     0  2.086152416E+02 -1.703613775E+02  2.150875345E+01  2.977094968E+02  1.250000000E+02  0.00000E+00  9.000E+00
      21     1     1     2   502   511 -6.163918718E+01 -4.617559326E+01  5.639890942E+00  7.722294464E+01  1.299053116E-06  0.00000E+00  9.000E+00
#rwgt            1           1   3.8239888573733047E-002           9      228868           0
</event>
<event>
      5   9999  3.79277E-02  4.61084E+01 -1.00000E+00  1.41113E-01
       2    -1     0     0   502     0  0.000000000E+00  0.000000000E+00  1.408049963E+03  1.408049963E+03  0.000000000E+00  0.00000E+00  9.000E+00
      21    -1     0     0   501   502  0.000000000E+00  0.000000000E+00 -3.773401735E+01  3.773401735E+01  0.000000000E+00  0.00000E+00  9.000E+00
      25     1     1     2     0     0  4.267494143E+01  4.214145573E+01  1.369315289E+02  1.948648160E+02  1.250000000E+02  0.00000E+00  9.000E+00
      25     1     1     2     0     0 -8.538412975E+01 -2.476585747E+01  7.620308817E+02  7.773158058E+02  1.250000000E+02  0.00000E+00  9.000E+00
       2     1     1     2   501     0  4.270918832E+01 -1.737559826E+01  4.713535347E+02  4.736033581E+02  7.629394531E-06  0.00000E+00  9.000E+00
#rwgt            1           1   3.8456624060230454E-002           9      228941           0
</event>
<event>
      5   9999  3.79277E-02  3.33095E+01 -1.00000E+00  1.49949E-01
      21    -1     0     0   502   511  0.000000000E+00  0.000000000E+00  2.367291445E+02  2.367291445E+02  0.000000000E+00  0.00000E+00  9.000E+00
      21    -1     0     0   501   502  0.000000000E+00  0.000000000E+00 -4.052659702E+02  4.052659702E+02  0.000000000E+00  0.00000E+00  9.000E+00
      25     1     1     2     0     0  1.194377281E+02  6.378653651E+01 -1.536064394E+02  2.399042129E+02  1.250000000E+02  0.00000E+00  9.000E+00
      25     1     1     2     0     0 -1.526895595E+02 -6.574647308E+01 -1.541832563E+02  2.589095920E+02  1.250000000E+02  0.00000E+00  9.000E+00
      21     1     1     2   501   511  3.325183143E+01  1.959936569E+00  1.392528701E+02  1.431813098E+02  1.907348633E-06  0.00000E+00  9.000E+00
#rwgt            2          11   9.5264076410929476E-004           9      229182           0
</event>
<event>
      5   9999  3.79277E-02  5.54744E+01 -1.00000E+00  1.36549E-01
      21    -1     0     0   502   501  0.000000000E+00  0.000000000E+00  9.339440135E+01  9.339440135E+01  0.000000000E+00  0.00000E+00  9.000E+00
       2    -1     0     0   501     0  0.000000000E+00  0.000000000E+00 -2.353116249E+03  2.353116249E+03  0.000000000E+00  0.00000E+00  9.000E+00
      25     1     1     2     0     0  4.775559612E+01  3.629337836E+01 -2.090754259E+02  2.508691691E+02  1.250000000E+02  0.00000E+00  9.000E+00
      25     1     1     2     0     0 -9.826754016E+01 -1.335980763E+01 -1.613688852E+01  1.603757871E+02  1.250000000E+02  0.00000E+00  9.000E+00
       2     1     1     2   502     0  5.051194403E+01 -2.293357073E+01 -2.034509533E+03  2.035265694E+03  0.000000000E+00  0.00000E+00  9.000E+00
#rwgt            1           1   5.0351427143218823E-002           9      229202           0
</event>
<event>
      5   9999  3.79277E-02  4.98227E+01 -1.00000E+00  1.39164E-01
      21    -1     0     0   511   501  0.000000000E+00  0.000000000E+00  7.909870374E+01  7.909870374E+01  0.000000000E+00  0.00000E+00  9.000E+00
      21    -1     0     0   501   502  0.000000000E+00  0.000000000E+00 -7.953966475E+02  7.953966475E+02  0.000000000E+00  0.00000E+00  9.000E+00
      25     1     1     2     0     0 -9.254754412E+01  6.002771055E+01 -5.836494809E+02  6.069926610E+02  1.250000000E+02  0.00000E+00  9.000E+00
      25     1     1     2     0     0  1.173452280E+02 -1.681450959E+01 -1.330645414E+02  2.176782085E+02  1.250000000E+02  0.00000E+00  9.000E+00
      21     1     1     2   511   502 -2.479768393E+01 -4.321320095E+01  4.160784673E-01  4.982448180E+01  1.208166264E-06  0.00000E+00  9.000E+00
#rwgt            1           1   4.1759261160442158E-002           9      229331           0
</event>
<event>
      5   9999  3.79277E-02  1.77565E+01 -1.00000E+00  1.70749E-01
      21    -1     0     0   502   501  0.000000000E+00  0.000000000E+00  7.314270815E+02  7.314270815E+02  0.000000000E+00  0.00000E+00  9.000E+00
      21    -1     0     0   512   502  0.000000000E+00  0.000000000E+00 -8.987886890E+01  8.987886890E+01  0.000000000E+00  0.00000E+00  9.000E+00
      25     1     1     2     0     0 -5.290023144E+01 -1.295499466E+02  9.091381781E+01  2.084992696E+02  1.250000000E+02  0.00000E+00  9.000E+00
      25     1     1     2     0     0  7.034444636E+01  1.328653852E+02  5.597024087E+02  5.928687359E+02  1.250000000E+02  0.00000E+00  9.000E+00
      21     1     1     2   512   501 -1.744421491E+01 -3.315438618E+00 -9.068013965E+00  1.993794484E+01  6.419616708E-07  0.00000E+00  9.000E+00
#rwgt            1           1   4.2445565305928745E-002           9      229486           0
</event>
<event>
      5   9999  3.79277E-02  2.20595E+01 -1.00000E+00  1.62932E-01
      21    -1     0     0   502   511  0.000000000E+00  0.000000000E+00  9.567929845E+02  9.567929845E+02  0.000000000E+00  0.00000E+00  9.000E+00
      21    -1     0     0   501   502  0.000000000E+00  0.000000000E+00 -2.071533610E+02  2.071533610E+02  0.000000000E+00  0.00000E+00  9.000E+00
      25     1     1     2     0     0  7.305082557E+01 -1.024858057E+02  1.186635891E+02  2.134146454E+02  1.250000000E+02  0.00000E+00  9.000E+00
      25     1     1     2     0     0 -5.662278794E+01  1.172079424E+02 -1.086012953E+02  2.106254572E+02  1.250000000E+02  0.00000E+00  9.000E+00
      21     1     1     2   501   511 -1.642803763E+01 -1.472213676E+01  7.395773297E+02  7.399062430E+02  1.525878906E-05  0.00000E+00  9.000E+00
#rwgt            1           1   3.9907952003818824E-002           9      229680           0
</event>
<event>
      5   9999  3.79277E-02  2.87661E+01 -1.00000E+00  1.54318E-01
      21    -1     0     0   502   512  0.000000000E+00  0.000000000E+00  2.186154921E+01  2.186154921E+01  0.000000000E+00  0.00000E+00  9.000E+00
      21    -1     0     0   501   502  0.000000000E+00  0.000000000E+00 -2.550619718E+03  2.550619718E+03  0.000000000E+00  0.00000E+00  9.000E+00
      25     1     1     2     0     0 -1.248893192E+02  5.413247766E+01 -1.316308627E+03  1.329218217E+03  1.250000000E+02  0.00000E+00  9.000E+00
      25     1     1     2     0     0  1.407622224E+02 -7.812286310E+01 -1.188448219E+03  1.205799052E+03  1.250000000E+02  0.00000E+00  9.000E+00
      21     1     1     2   501   512 -1.587290325E+01  2.399038544E+01 -2.400132305E+01  3.746399817E+01  5.840038640E-07  0.00000E+00  9.000E+00
#rwgt            1           1   7.2963558037561951E-002           9      229927           0
</event>
<event>
      5   9999  3.79277E-02  7.04023E+01 -1.00000E+00  1.31095E-01
      21    -1     0     0   502   511  0.000000000E+00  0.000000000E+00  8.567513439E+02  8.567513439E+02  0.000000000E+00  0.00000E+00  9.000E+00
      21    -1     0     0   501   502  0.000000000E+00  0.000000000E+00 -6.433876904E+01  6.433876904E+01  0.000000000E+00  0.00000E+00  9.000E+00
      25     1     1     2     0     0 -1.073399021E+02 -1.059094242E+02  4.211264462E+02  4.644471384E+02  1.250000000E+02  0.00000E+00  9.000E+00
      25     1     1     2     0     0  4.445956043E+01  1.375724527E+02  2.320870103E+02  3.006529771E+02  1.250000000E+02  0.00000E+00  9.000E+00
      21     1     1     2   501   511  6.288034172E+01 -3.166302858E+01  1.391991184E+02  1.559899975E+02  1.907348633E-06  0.00000E+00  9.000E+00
#rwgt            1           1   3.3993276465164354E-002           9      230106           0
</event>
<event>
      5   9999 -3.79277E-02  5.08492E+01 -1.00000E+00  1.38659E-01
      21    -1     0     0   502   501  0.000000000E+00  0.000000000E+00  9.186184079E+01  9.186184079E+01  0.000000000E+00  0.00000E+00  9.000E+00
       2    -1     0     0   501     0  0.000000000E+00  0.000000000E+00 -1.820586936E+03  1.820586936E+03  0.000000000E+00  0.00000E+00  9.000E+00
      25     1     1     2     0     0 -2.784998351E+02  3.760619608E+01 -5.787311778E+02  6.553862680E+02  1.250000000E+02  0.00000E+00  9.000E+00
      25     1     1     2     0     0  2.278887612E+02 -4.252178959E+01 -2.756711756E+02  3.812623600E+02  1.250000000E+02  0.00000E+00  9.000E+00
       2     1     1     2   502     0  5.061107386E+01  4.915593511E+00 -8.743227414E+02  8.758001484E+02  0.000000000E+00  0.00000E+00  9.000E+00
#rwgt            1           1  -5.4518247812476266E-002           9      230163           0
</event>
<event>
      5   9999  3.79277E-02  1.21693E+02 -1.00000E+00  1.20111E-01
      21    -1     0     0   502   511  0.000000000E+00  0.000000000E+00  7.576819061E+01  7.576819061E+01  0.000000000E+00  0.00000E+00  9.000E+00
      21    -1     0     0   501   502  0.000000000E+00  0.000000000E+00 -1.480467792E+03  1.480467792E+03  0.000000000E+00  0.00000E+00  9.000E+00
      25     1     1     2     0     0  1.433267754E+02  1.567924111E+01 -6.555529638E+02  6.827613723E+02  1.250000000E+02  0.00000E+00  9.000E+00
      25     1     1     2     0     0 -2.439762628E+02 -8.408218165E+01 -6.687283212E+02  7.276103336E+02  1.250000000E+02  0.00000E+00  9.000E+00
      21     1     1     2   501   511  1.006494874E+02  6.840294054E+01 -8.041831640E+01  1.458642767E+02  1.348699152E-06  0.00000E+00  9.000E+00
#rwgt            2          11   1.9669625059712181E-003           9      230265           0
</event>
<event>
      5   9999  3.79277E-02  4.47788E+00 -1.00000E+00  2.52432E-01
      21    -1     0     0   502   512  0.000000000E+00  0.000000000E+00  8.286047110E+01  8.286047110E+01  0.000000000E+00  0.00000E+00  9.000E+00
      21    -1     0     0   501   502  0.000000000E+00  0.000000000E+00 -2.015785676E+03  2.015785676E+03  0.000000000E+00  0.00000E+00  9.000E+00
      25     1     1     2     0     0  1.748470372E+02  8.818241555E+01 -1.558598668E+03  1.575818020E+03  1.250000000E+02  0.00000E+00  9.000E+00
      25     1     1     2     0     0 -1.780804361E+02 -8.508458631E+01 -4.180384604E+02  4.788874429E+02  1.250000000E+02  0.00000E+00  9.000E+00
      21     1     1     2   501   512  3.233398953E+00 -3.097829241E+00  4.371192376E+01  4.394068381E+01  1.846782373E-06  0.00000E+00  9.000E+00
#rwgt            1           1   3.2646501735592526E-002           9      230330           0
</event>
<event>
      5   9999  3.79277E-02  6.75965E+00 -1.00000E+00  2.17721E-01
      21    -1     0     0   502   511  0.000000000E+00  0.000000000E+00  3.982850536E+02  3.982850536E+02  0.000000000E+00  0.00000E+00  9.000E+00
      21    -1     0     0   501   502  0.000000000E+00  0.000000000E+00 -1.577538994E+02  1.577538994E+02  0.000000000E+00  0.00000E+00  9.000E+00
      25     1     1     2     0     0  1.782566615E+02 -7.440594501E+01  2.166751873E+02  3.160455961E+02  1.250000000E+02  0.00000E+00  9.000E+00
      25     1     1     2     0     0 -1.720839065E+02  7.165096764E+01  1.009688523E+01  2.246634798E+02  1.250000000E+02  0.00000E+00  9.000E+00
      21     1     1     2   501   511 -6.172754999E+00  2.754977363E+00  1.375908161E+01  1.532987708E+01  1.685873940E-07  0.00000E+00  9.000E+00
#rwgt            1           1   4.1761314169106292E-002           9      230772           0
</event>
<event>
      5   9999  3.79277E-02  3.37901E+01 -1.00000E+00  1.49536E-01
      21    -1     0     0   502   501  0.000000000E+00  0.000000000E+00  3.011600547E+02  3.011600547E+02  0.000000000E+00  0.00000E+00  9.000E+00
      -3    -1     0     0     0   502  0.000000000E+00  0.000000000E+00 -1.935276666E+02  1.935276666E+02  0.000000000E+00  0.00000E+00  9.000E+00
      25     1     1     2     0     0  5.890435674E+01  1.716003802E+02  6.825304727E+01  2.306510182E+02  1.250000000E+02  0.00000E+00  9.000E+00
      25     1     1     2     0     0 -9.206708708E+01 -1.651190968E+02  4.048969896E+01  2.302283222E+02  1.250000000E+02  0.00000E+00  9.000E+00
      -3     1     1     2     0   501  3.316273033E+01 -6.481283411E+00 -1.110358128E+00  3.380838081E+01  2.091477640E-07  0.00000E+00  9.000E+00
#rwgt            1           1   3.5502947783515662E-002           9      231071           0
</event>
<event>
      5   9999  3.79277E-02  2.39287E+01 -1.00000E+00  1.60189E-01
      21    -1     0     0   502   501  0.000000000E+00  0.000000000E+00  8.810098364E+02  8.810098364E+02  0.000000000E+00  0.00000E+00  9.000E+00
      21    -1     0     0   511   502  0.000000000E+00  0.000000000E+00 -9.342215805E+01  9.342215805E+01  0.000000000E+00  0.00000E+00  9.000E+00
      25     1     1     2     0     0  7.623774637E+01  1.403196818E+02  6.555798894E+02  6.862301352E+02  1.250000000E+02  0.00000E+00  9.000E+00
      25     1     1     2     0     0 -9.993366741E+01 -1.436489255E+02  1.465159550E+02  2.602185173E+02  1.250000000E+02  0.00000E+00  9.000E+00
      21     1     1     2   511   501  2.369592104E+01  3.329243666E+00 -1.450816615E+01  2.798334187E+01  4.129530925E-07  0.00000E+00  9.000E+00
#rwgt            1           1   3.9462603719995701E-002           9      231203           0
</event>
<event>
      5   9999  3.79277E-02  1.00751E+02 -1.00000E+00  1.23682E-01
      21    -1     0     0   502   501  0.000000000E+00  0.000000000E+00  9.230314748E+02  9.230314748E+02  0.000000000E+00  0.00000E+00  9.000E+00
      21    -1     0     0   512   502  0.000000000E+00  0.000000000E+00 -4.455968946E+02  4.455968946E+02  0.000000000E+00  0.00000E+00  9.000E+00
      25     1     1     2     0     0 -2.661834722E+02 -1.584453628E+02  5.341493277E+02  6.299992684E+02  1.250000000E+02  0.00000E+00  9.000E+00
      25     1     1     2     0     0  1.858652262E+02  2.192708952E+02  2.593888651E+02  4.068577038E+02  1.250000000E+02  0.00000E+00  9.000E+00
      21     1     1     2   512   501  8.031824593E+01 -6.082553235E+01 -3.161036127E+02  3.317713972E+02  3.814697266E-06  0.00000E+00  9.000E+00
#rwgt            1           1   3.6395382930949058E-002           9      231370           0
</event>
<event>
      5   9999  3.79277E-02  3.59228E+01 -1.00000E+00  1.47797E-01
      21    -1     0     0   511   501  0.000000000E+00  0.000000000E+00  2.494464774E+02  2.494464774E+02  0.000000000E+00  0.00000E+00  9.000E+00
      21    -1     0     0   501   502  0.000000000E+00  0.000000000E+00 -3.749940805E+02  3.749940805E+02  0.000000000E+00  0.00000E+00  9.000E+00
      25     1     1     2     0     0 -1.467332168E+02 -1.063396580E+02 -2.284868556E+02  3.172853652E+02  1.250000000E+02  0.00000E+00  9.000E+00
      25     1     1     2     0     0  1.815332777E+02  1.152505980E+02  6.991819179E+01  2.583613454E+02  1.250000000E+02  0.00000E+00  9.000E+00
      21     1     1     2   511   502 -3.480006091E+01 -8.910939932E+00  3.302106063E+01  4.879384731E+01  1.066240300E-06  0.00000E+00  9.000E+00
#rwgt            1           1   3.4141988581292117E-002           9      231450           0
</event>
<event>
      5   9999  3.79277E-02  1.57867E+01 -1.00000E+00  1.75317E-01
      21    -1     0     0   512   501  0.000000000E+00  0.000000000E+00  8.055104636E+02  8.055104636E+02  0.000000000E+00  0.00000E+00  9.000E+00
      21    -1     0     0   501   502  0.000000000E+00  0.000000000E+00 -4.515174590E+01  4.515174590E+01  0.000000000E+00  0.00000E+00  9.000E+00
      25     1     1     2     0     0  8.511986029E+01  1.114386522E+01  5.643258551E+02  5.843442881E+02  1.250000000E+02  0.00000E+00  9.000E+00
      25     1     1     2     0     0 -6.957826186E+01 -1.391509679E+01  1.158913242E+02  1.846363005E+02  1.250000000E+02  0.00000E+00  9.000E+00
      21     1     1     2   512   502 -1.554159843E+01  2.771231574E+00  8.014153844E+01  8.168162088E+01  1.651812370E-06  0.00000E+00  9.000E+00
#rwgt            1           1   4.9944101800962613E-002           9      231708           0
</event>
<event>
      5   9999  3.79277E-02  8.28820E+01 -1.00000E+00  1.27610E-01
      21    -1     0     0   502   501  0.000000000E+00  0.000000000E+00  3.039128735E+02  3.039128735E+02  0.000000000E+00  0.00000E+00  9.000E+00
      21    -1     0     0   511   502  0.000000000E+00  0.000000000E+00 -3.111500212E+02  3.111500212E+02  0.000000000E+00  0.00000E+00  9.000E+00
      25     1     1     2     0     0  2.017036538E+02  5.410080798E+01 -1.215853746E+02  2.720648171E+02  1.250000000E+02  0.00000E+00  9.000E+00
      25     1     1     2     0     0 -1.209596580E+02 -7.280467493E+01  1.609486611E+02  2.479137573E+02  1.250000000E+02  0.00000E+00  9.000E+00
      21     1     1     2   511   501 -8.074399577E+01  1.870386695E+01 -4.660043415E+01  9.508432024E+01  6.743495762E-07  0.00000E+00  9.000E+00
#rwgt            2          11   2.5933238340881499E-003           9      232074           0
</event>
<event>
      5   9999  3.79277E-02  1.12916E+02 -1.00000E+00  1.21501E-01
      21    -1     0     0   502   501  0.000000000E+00  0.000000000E+00  3.229917825E+02  3.229917825E+02  0.000000000E+00  0.00000E+00  9.000E+00
       2    -1     0     0   501     0  0.000000000E+00  0.000000000E+00 -3.695384043E+02  3.695384043E+02  0.000000000E+00  0.00000E+00  9.000E+00
      25     1     1     2     0     0  1.290435562E+02 -9.273834942E+01 -4.489644527E+01  2.071070536E+02  1.250000000E+02  0.00000E+00  9.000E+00
      25     1     1     2     0     0 -2.415847919E+02  8.354806848E+01  1.292690505E+02  3.125363640E+02  1.250000000E+02  0.00000E+00  9.000E+00
       2     1     1     2   502     0  1.125412357E+02  9.190280938E+00 -1.309192269E+02  1.728867693E+02  1.907348633E-06  0.00000E+00  9.000E+00
#rwgt            1           1   4.3373564795478541E-002           9      232109           0
</event>
<event>
      5   9999  3.79277E-02  2.73444E+02 -1.00000E+00  1.06917E-01
       2    -1     0     0   502     0  0.000000000E+00  0.000000000E+00  2.593860469E+03  2.593860469E+03  0.000000000E+00  0.00000E+00  9.000E+00
      21    -1     0     0   501   502  0.000000000E+00  0.000000000E+00 -3.236804325E+02  3.236804325E+02  0.000000000E+00  0.00000E+00  9.000E+00
      25     1     1     2     0     0 -3.521602341E+02 -2.952820175E+01 -3.272338628E+01  3.762772451E+02  1.250000000E+02  0.00000E+00  9.000E+00
      25     1     1     2     0     0  1.318685076E+02 -1.324695805E+02  2.713551251E+00  2.248774254E+02  1.250000000E+02  0.00000E+00  9.000E+00
       2     1     1     2   501     0  2.202917264E+02  1.619977823E+02  2.300189872E+03  2.316386231E+03  0.000000000E+00  0.00000E+00  9.000E+00
#rwgt            1           1   3.1060669600590087E-002           9      232266           0
</event>
<event>
      5   9999  3.79277E-02  1.57250E+01 -1.00000E+00  1.75474E-01
      21    -1     0     0   502   501  0.000000000E+00  0.000000000E+00  1.048714800E+03  1.048714800E+03  0.000000000E+00  0.00000E+00  9.000E+00
      21    -1     0     0   501   511  0.000000000E+00  0.000000000E+00 -5.972974696E+02  5.972974696E+02  0.000000000E+00  0.00000E+00  9.000E+00
      25     1     1     2     0     0  2.418534480E-01 -2.710969563E+01  9.104350679E+02  9.193758790E+02  1.250000000E+02  0.00000E+00  9.000E+00
      25     1     1     2     0     0  7.732943403E+00  4.066253648E+01  1.012787310E+02  1.661192994E+02  1.250000000E+02  0.00000E+00  9.000E+00
      21     1     1     2   502   511 -7.974796851E+00 -1.355284085E+01 -5.602964685E+02  5.605170911E+02  0.000000000E+00  0.00000E+00  9.000E+00
#rwgt            1           1   4.4027510415958405E-002           9      232331           0
</event>
<event>
      5   9999  3.79277E-02  1.09210E+02 -1.00000E+00  1.22131E-01
      21    -1     0     0   502   501  0.000000000E+00  0.000000000E+00  7.116585155E+02  7.116585155E+02  0.000000000E+00  0.00000E+00  9.000E+00
      21    -1     0     0   512   502  0.000000000E+00  0.000000000E+00 -1.006271495E+02  1.006271495E+02  0.000000000E+00  0.00000E+00  9.000E+00
      25     1     1     2     0     0 -1.180019215E+01  6.642260702E+01  5.530992063E+01  1.524316062E+02  1.250000000E+02  0.00000E+00  9.000E+00
      25     1     1     2     0     0  1.166034867E+02 -3.571334177E+01  5.141523063E+02  5.430003775E+02  1.250000000E+02  0.00000E+00  9.000E+00
      21     1     1     2   512   501 -1.048032945E+02 -3.070926525E+01  4.156913901E+01  1.168536813E+02  2.286830675E-06  0.00000E+00  9.000E+00
#rwgt            1           1   5.5930880855802403E-003           9      232469           0
</event>
<event>
      5   9999  3.79277E-02  6.54607E+01 -1.00000E+00  1.32713E-01
      21    -1     0     0   502   501  0.000000000E+00  0.000000000E+00  8.522606764E+01  8.522606764E+01  0.000000000E+00  0.00000E+00  9.000E+00
       2    -1     0     0   501     0  0.000000000E+00  0.000000000E+00 -2.243647386E+03  2.243647386E+03  0.000000000E+00  0.00000E+00  9.000E+00
      25     1     1     2     0     0 -6.198368726E+01 -4.757697605E+01 -4.527729984E+02  4.761658684E+02  1.250000000E+02  0.00000E+00  9.000E+00
      25     1     1     2     0     0  8.507503858E+01 -1.367570525E+01 -6.146910819E+00  1.519459497E+02  1.250000000E+02  0.00000E+00  9.000E+00
       2     1     1     2   502     0 -2.309135132E+01  6.125268130E+01 -1.699501409E+03  1.700761635E+03  0.000000000E+00  0.00000E+00  9.000E+00
#rwgt            1           1   4.5828063105005638E-002           9      232540           0
</event>
<event>
      5   9999  3.79277E-02  4.52139E+01 -1.00000E+00  1.41615E-01
      21    -1     0     0   502   511  0.000000000E+00  0.000000000E+00  6.681011176E+01  6.681011176E+01  0.000000000E+00  0.00000E+00  9.000E+00
      21    -1     0     0   501   502  0.000000000E+00  0.000000000E+00 -1.271672263E+03  1.271672263E+03  0.000000000E+00  0.00000E+00  9.000E+00
      25     1     1     2     0     0  1.885375166E+02  3.015061014E+01 -8.877601840E+02  9.166234771E+02  1.250000000E+02  0.00000E+00  9.000E+00
      25     1     1     2     0     0 -1.516965122E+02 -3.939168976E+00 -3.210590634E+02  3.764721385E+02  1.250000000E+02  0.00000E+00  9.000E+00
      21     1     1     2   501   511 -3.684100435E+01 -2.621144117E+01  3.957096664E+00  4.538675868E+01  2.457562462E-07  0.00000E+00  9.000E+00
#rwgt            1           1   3.9139007515454093E-002           9      232611           0
</event>
<event>
      5   9999  3.79277E-02  2.05171E+01 -1.00000E+00  1.65460E-01
      21    -1     0     0   512   501  0.000000000E+00  0.000000000E+00  8.450400300E+02  8.450400300E+02  0.000000000E+00  0.00000E+00  9.000E+00
      21    -1     0     0   501   502  0.000000000E+00  0.000000000E+00 -6.868726273E+01  6.868726273E+01  0.000000000E+00  0.00000E+00  9.000E+00
      25     1     1     2     0     0  1.475783402E+02 -1.158802182E+02  3.804388934E+02  4.422288357E+02  1.250000000E+02  0.00000E+00  9.000E+00
      25     1     1     2     0     0 -1.614931076E+02  1.008027288E+02  3.193814202E+02  3.922635664E+02  1.250000000E+02  0.00000E+00  9.000E+00
      21     1     1     2   512   502  1.391476733E+01  1.507748946E+01  7.653245369E+01  7.923489072E+01  0.000000000E+00  0.00000E+00  9.000E+00
#rwgt            1           1   3.5427713684166987E-002           9      232761           0
</event>
<event>
      5   9999  3.79277E-02  4.84653E+01 -1.00000E+00  1.39852E-01
      21    -1     0     0   511   501  0.000000000E+00  0.000000000E+00  1.539167148E+02  1.539167148E+02  0.000000000E+00  0.00000E+00  9.000E+00
      21    -1     0     0   501   502  0.000000000E+00  0.000000000E+00 -3.579330602E+02  3.579330602E+02  0.000000000E+00  0.00000E+00  9.000E+00
      25     1     1     2     0     0 -1.239307262E+02  2.135299701E+01 -1.366776229E+02  2.238761889E+02  1.250000000E+02  0.00000E+00  9.000E+00
      25     1     1     2     0     0  1.723710277E+02 -1.979768450E+01 -9.293496322E+01  2.331643774E+02  1.250000000E+02  0.00000E+00  9.000E+00
      21     1     1     2   511   502 -4.844030156E+01 -1.555312517E+00  2.559624067E+01  5.480920861E+01  0.000000000E+00  0.00000E+00  9.000E+00
#rwgt            1           1   3.2959820235469867E-002           9      233029           0
</event>
<event>
      5   9999  3.79277E-02  2.05445E+01 -1.00000E+00  1.65412E-01
      21    -1     0     0   512   501  0.000000000E+00  0.000000000E+00  1.569965977E+03  1.569965977E+03  0.000000000E+00  0.00000E+00  9.000E+00
      21    -1     0     0   501   502  0.000000000E+00  0.000000000E+00 -2.919779085E+01  2.919779085E+01  0.000000000E+00  0.00000E+00  9.000E+00
      25     1     1     2     0     0 -1.530404293E+02  8.848993195E+00  5.602072128E+02  5.941016739E+02  1.250000000E+02  0.00000E+00  9.000E+00
      25     1     1     2     0     0  1.528326944E+02 -2.939246739E+01  8.697886275E+02  8.924006982E+02  1.250000000E+02  0.00000E+00  9.000E+00
      21     1     1     2   512   502  2.077348350E-01  2.054347420E+01  1.107723461E+02  1.126613960E+02  1.348699152E-06  0.00000E+00  9.000E+00
#rwgt            1           1   3.5953854492472841E-002           9      233230           0
</event>
<event>
      5   9999  3.79277E-02  9.24373E+00 -1.00000E+00  1.99790E-01
      21    -1     0     0   502   511  0.000000000E+00  0.000000000E+00  1.282343919E+02  1.282343919E+02  0.000000000E+00  0.00000E+00  9.000E+00
      21    -1     0     0   501   502  0.000000000E+00  0.000000000E+00 -7.143970776E+02  7.143970776E+02  0.000000000E+00  0.00000E+00  9.000E+00
      25     1     1     2     0     0 -1.623396986E+02  9.691951842E+01 -2.902838112E+02  3.682896439E+02  1.250000000E+02  0.00000E+00  9.000E+00
      25     1     1     2     0     0  1.540603183E+02 -1.010302756E+02 -3.525274619E+02  4.169440126E+02  1.250000000E+02  0.00000E+00  9.000E+00
      21     1     1     2   501   511  8.279380267E+00  4.110757215E+00  5.664858750E+01  5.739781292E+01  1.784161275E-06  0.00000E+00  9.000E+00
#rwgt            1           1   3.4202661246866661E-002           9      233622           0
</event>
<event>
      5   9999  3.79277E-02  2.67523E+01 -1.00000E+00  1.56578E-01
      21    -1     0     0   502   501  0.000000000E+00  0.000000000E+00  3.086777446E+02  3.086777446E+02  0.000000000E+00  0.00000E+00  9.000E+00
      21    -1     0     0   501   512  0.000000000E+00  0.000000000E+00 -1.615375122E+02  1.615375122E+02  0.000000000E+00  0.00000E+00  9.000E+00
      25     1     1     2     0     0 -2.343389940E+01 -1.175761624E+02  1.802498380E+02  2.499766103E+02  1.250000000E+02  0.00000E+00  9.000E+00
      25     1     1     2     0     0  1.609670531E+01  1.433026553E+02 -2.639280203E+01  1.926560015E+02  1.250000000E+02  0.00000E+00  9.000E+00
      21     1     1     2   502   512  7.337194086E+00 -2.572649286E+01 -6.716803578E+00  2.758264495E+01  4.693274423E-07  0.00000E+00  9.000E+00
#rwgt            1           1   4.9840417154638772E-002           9      233973           0
</event>
<event>
      5   9999  3.79277E-02  1.96062E+02 -1.00000E+00  1.11963E-01
      21    -1     0     0   502   501  0.000000000E+00  0.000000000E+00  1.933076737E+02  1.933076737E+02  0.000000000E+00  0.00000E+00  9.000E+00
      21    -1     0     0   511   502  0.000000000E+00  0.000000000E+00 -5.074088935E+02  5.074088935E+02  0.000000000E+00  0.00000E+00  9.000E+00
      25     1     1     2     0     0  2.072304216E+02  4.112123263E+01 -1.213954993E+02  2.738562956E+02  1.250000000E+02  0.00000E+00  9.000E+00
      25     1     1     2     0     0 -3.348132710E+01 -1.319602453E+02 -9.393032865E+01  2.073220014E+02  1.250000000E+02  0.00000E+00  9.000E+00
      21     1     1     2   511   501 -1.737490945E+02  9.083901269E+01 -9.877539181E+01  2.195382702E+02  2.336015456E-06  0.00000E+00  9.000E+00
#rwgt            1           1   2.9886743813294016E-002           9      234192           0
</event>
<event>
      5   9999 -3.79277E-02  1.90053E+01 -1.00000E+00  1.68218E-01
      21    -1     0     0   502   501  0.000000000E+00  0.000000000E+00  1.723716671E+03  1.723716671E+03  0.000000000E+00  0.00000E+00  9.000E+00
      21    -1     0     0   501   512  0.000000000E+00  0.000000000E+00 -2.533043398E+01  2.533043398E+01  0.000000000E+00  0.00000E+00  9.000E+00
      25     1     1     2     0     0 -7.302010115E+01 -1.716418232E+00  1.371053746E+03  1.378676269E+03  1.250000000E+02  0.00000E+00  9.000E+00
      25     1     1     2     0     0  9.015439845E+01 -6.506571763E+00  2.894731832E+02  3.280089554E+02  1.250000000E+02  0.00000E+00  9.000E+00
      21     1     1     2   502   512 -1.713429731E+01  8.222989996E+00  3.785930808E+01  4.236188047E+01  1.066240300E-06  0.00000E+00  9.000E+00
#rwgt            1           1  -3.6936490782432531E-002           9      234239           0
</event>
<event>
      5   9999  3.79277E-02  6.64197E+01 -1.00000E+00  1.32386E-01
      -2    -1     0     0     0   501  0.000000000E+00  0.000000000E+00  6.293177518E+02  6.293177518E+02  0.000000000E+00  0.00000E+00  9.000E+00
      21    -1     0     0   501   502  0.000000000E+00  0.000000000E+00 -9.727313340E+01  9.727313340E+01  0.000000000E+00  0.00000E+00  9.000E+00
      25     1     1     2     0     0  1.392785908E+02  4.570566332E+01  8.695800039E+01  2.113627861E+02  1.250000000E+02  0.00000E+00  9.000E+00
      25     1     1     2     0     0 -1.092406233E+02  1.353368016E+01  1.948956506E+02  2.563708036E+02  1.250000000E+02  0.00000E+00  9.000E+00
      -2     1     1     2     0   502 -3.003796743E+01 -5.923934348E+01  2.501909674E+02  2.588572955E+02  3.814697266E-06  0.00000E+00  9.000E+00
#rwgt            1           1   4.7487850899379916E-002           9      234373           0
</event>
<event>
      5   9999  3.79277E-02  6.37829E+01 -1.00000E+00  1.33300E-01
      21    -1     0     0   502   501  0.000000000E+00  0.000000000E+00  2.281849244E+03  2.281849244E+03  0.000000000E+00  0.00000E+00  9.000E+00
      21    -1     0     0   501   511  0.000000000E+00  0.000000000E+00 -1.461003242E+01  1.461003242E+01  0.000000000E+00  0.00000E+00  9.000E+00
      25     1     1     2     0     0 -9.329055153E-01 -4.738223232E+01  1.150626967E+03  1.158366679E+03  1.250000000E+02  0.00000E+00  9.000E+00
      25     1     1     2     0     0 -6.080565148E+01  6.340107827E+01  8.730487554E+02  8.863160572E+02  1.250000000E+02  0.00000E+00  9.000E+00
      21     1     1     2   502   511  6.173855700E+01 -1.601884596E+01  2.435634894E+02  2.517765403E+02  2.697398305E-06  0.00000E+00  9.000E+00
#rwgt            1           1  0.12311247415359061                9      234666           0
</event>
<event>
      5   9999  3.79277E-02  4.54522E+01 -1.00000E+00  1.41480E-01
      21    -1     0     0   512   501  0.000000000E+00  0.000000000E+00  5.947176110E+02  5.947176110E+02  0.000000000E+00  0.00000E+00  9.000E+00
      21    -1     0     0   501   502  0.000000000E+00  0.000000000E+00 -2.116666405E+02  2.116666405E+02  0.000000000E+00  0.00000E+00  9.000E+00
      25     1     1     2     0     0  1.046569482E+01 -7.123437228E+01 -1.701028507E+02  2.230332854E+02  1.250000000E+02  0.00000E+00  9.000E+00
      25     1     1     2     0     0  2.224994690E+01  3.968145001E+01  3.336236068E+02  3.591648488E+02  1.250000000E+02  0.00000E+00  9.000E+00
      21     1     1     2   512   502 -3.271564172E+01  3.155292227E+01  2.195302145E+02  2.241861173E+02  3.814697266E-06  0.00000E+00  9.000E+00
#rwgt            1           1   4.2521522353753012E-002           9      234729           0
</event>
<event>
      5   9999  3.79277E-02  2.54148E+02 -1.00000E+00  1.07987E-01
      21    -1     0     0   502   501  0.000000000E+00  0.000000000E+00  3.934946297E+02  3.934946297E+02  0.000000000E+00  0.00000E+00  9.000E+00
       2    -1     0     0   501     0  0.000000000E+00  0.000000000E+00 -1.570391359E+03  1.570391359E+03  0.000000000E+00  0.00000E+00  9.000E+00
      25     1     1     2     0     0 -1.395056092E+02  9.533503890E+01  4.292351020E+01  2.145180934E+02  1.250000000E+02  0.00000E+00  9.000E+00
      25     1     1     2     0     0  1.513962959E+02  1.585348702E+02  1.905956147E+02  3.162369868E+02  1.250000000E+02  0.00000E+00  9.000E+00
       2     1     1     2   502     0 -1.189068668E+01 -2.538699091E+02 -1.410415855E+03  1.433130909E+03  2.157918644E-05  0.00000E+00  9.000E+00
#rwgt            1           1   3.6298810504575403E-002           9      235026           0
</event>
<event>
      5   9999  3.79277E-02  1.00514E+02 -1.00000E+00  1.23728E-01
       2    -1     0     0   502     0  0.000000000E+00  0.000000000E+00  2.792574150E+02  2.792574150E+02  0.000000000E+00  0.00000E+00  9.000E+00
      21    -1     0     0   501   502  0.000000000E+00  0.000000000E+00 -5.862356573E+02  5.862356573E+02  0.000000000E+00  0.00000E+00  9.000E+00
      25     1     1     2     0     0 -7.758435821E+01  1.753181621E+02 -6.095140273E+01  2.368456546E+02  1.250000000E+02  0.00000E+00  9.000E+00
      25     1     1     2     0     0  1.435967427E+01 -9.717902534E+01 -4.080791623E+02  4.379538399E+02  1.250000000E+02  0.00000E+00  9.000E+00
       2     1     1     2   501     0  6.322468394E+01 -7.813913674E+01  1.620523227E+02  1.906935779E+02  3.303624740E-06  0.00000E+00  9.000E+00
#rwgt            1           1   3.9249738859563711E-002           9      235063           0
</event>
<event>
      5   9999  3.79277E-02  3.49026E+01 -1.00000E+00  1.48610E-01
       2    -1     0     0   502     0  0.000000000E+00  0.000000000E+00  2.471195679E+03  2.471195679E+03  0.000000000E+00  0.00000E+00  9.000E+00
      21    -1     0     0   501   502  0.000000000E+00  0.000000000E+00 -5.599925722E+01  5.599925722E+01  0.000000000E+00  0.00000E+00  9.000E+00
      25     1     1     2     0     0  4.032866511E+01  8.666923414E+01  4.074989740E+02  4.368276218E+02  1.250000000E+02  0.00000E+00  9.000E+00
      25     1     1     2     0     0 -5.033268998E+01 -1.201073937E+02  1.566911063E+02  2.390319404E+02  1.250000000E+02  0.00000E+00  9.000E+00
       2     1     1     2   501     0  1.000402488E+01  3.343815961E+01  1.851006341E+03  1.851335374E+03  2.157918644E-05  0.00000E+00  9.000E+00
#rwgt            1           1   2.5355027516731767E-002           9      235234           0
</event>
<event>
      5   9999  3.79277E-02  1.15647E+02 -1.00000E+00  1.21053E-01
      21    -1     0     0   502   511  0.000000000E+00  0.000000000E+00  3.779792604E+02  3.779792604E+02  0.000000000E+00  0.00000E+00  9.000E+00
      21    -1     0     0   501   502  0.000000000E+00  0.000000000E+00 -1.302488456E+03  1.302488456E+03  0.000000000E+00  0.00000E+00  9.000E+00
      25     1     1     2     0     0  4.231704747E+01  1.030491319E+02 -1.028103296E+03  1.041648330E+03  1.250000000E+02  0.00000E+00  9.000E+00
      25     1     1     2     0     0 -1.087623016E+02 -8.396357255E+00 -2.312271386E+02  2.845886974E+02  1.250000000E+02  0.00000E+00  9.000E+00
      21     1     1     2   501   511  6.644525415E+01 -9.465277465E+01  3.348212385E+02  3.542306894E+02  3.814697266E-06  0.00000E+00  9.000E+00
#rwgt            2          11   1.9699054947845865E-002           9      235413           0
</event>
<event>
      5   9999 -3.79277E-02  1.80766E+02 -1.00000E+00  1.13270E-01
      21    -1     0     0   502   501  0.000000000E+00  0.000000000E+00  1.452110252E+02  1.452110252E+02  0.000000000E+00  0.00000E+00  9.000E+00
       1    -1     0     0   501     0  0.000000000E+00  0.000000000E+00 -9.291062837E+02  9.291062837E+02  0.000000000E+00  0.00000E+00  9.000E+00
      25     1     1     2     0     0  4.874583623E+01  1.687273583E+02 -1.074264476E+02  2.408537308E+02  1.250000000E+02  0.00000E+00  9.000E+00
      25     1     1     2     0     0 -1.240404566E+02 -4.388973847E+00 -5.246033760E+01  1.837998503E+02  1.250000000E+02  0.00000E+00  9.000E+00
       1     1     1     2   502     0  7.529462036E+01 -1.643383844E+02 -6.240084733E+02  6.496637278E+02  7.629394531E-06  0.00000E+00  9.000E+00
#rwgt            1           1 -0.14680959105984917                9      235523           0
</event>
<event>
      5   9999  3.79277E-02  2.94466E+02 -1.00000E+00  1.05855E-01
      21    -1     0     0   511   501  0.000000000E+00  0.000000000E+00  8.023849245E+02  8.023849245E+02  0.000000000E+00  0.00000E+00  9.000E+00
      21    -1     0     0   501   502  0.000000000E+00  0.000000000E+00 -2.794054018E+02  2.794054018E+02  0.000000000E+00  0.00000E+00  9.000E+00
      25     1     1     2     0     0 -4.512981622E+01  1.572888075E+02  1.702481263E+02  2.671813874E+02  1.250000000E+02  0.00000E+00  9.000E+00
      25     1     1     2     0     0 -2.362554846E+02 -2.440777543E+02  9.108600781E+00  3.620753661E+02  1.250000000E+02  0.00000E+00  9.000E+00
      21     1     1     2   511   502  2.813853008E+02  8.678894675E+01  3.436227956E+02  4.525335727E+02  8.529922400E-06  0.00000E+00  9.000E+00
#rwgt            2          11   1.3092261024100662E-003           9      235620           0
</event>
<event>
      5   9999  3.79277E-02  2.46114E+01 -1.00000E+00  1.59262E-01
      21    -1     0     0   502   501  0.000000000E+00  0.000000000E+00  7.714539337E+01  7.714539337E+01  0.000000000E+00  0.00000E+00  9.000E+00
      21    -1     0     0   512   502  0.000000000E+00  0.000000000E+00 -9.600279917E+02  9.600279917E+02  0.000000000E+00  0.00000E+00  9.000E+00
      25     1     1     2     0     0  7.279303619E+01  1.957834954E+02 -3.411044034E+02  4.190551482E+02  1.250000000E+02  0.00000E+00  9.000E+00
      25     1     1     2     0     0 -8.672184389E+01 -2.160741224E+02 -4.387113672E+02  5.121536570E+02  1.250000000E+02  0.00000E+00  9.000E+00
      21     1     1     2   512   501  1.392880770E+01  2.029062703E+01 -1.030668278E+02  1.059645800E+02  2.336015456E-06  0.00000E+00  9.000E+00
#rwgt            1           1   9.1166177716739877E-002           9      235670           0
</event>
<event>
      5   9999  3.79277E-02  1.78529E+01 -1.00000E+00  1.70544E-01
      21    -1     0     0   502   501  0.000000000E+00  0.000000000E+00  9.557018040E+02  9.557018040E+02  0.000000000E+00  0.00000E+00  9.000E+00
      21    -1     0     0   501   511  0.000000000E+00  0.000000000E+00 -1.867639721E+02  1.867639721E+02  0.000000000E+00  0.00000E+00  9.000E+00
      25     1     1     2     0     0  5.271897130E+01 -8.892480333E+01  6.723006221E+02  6.915923923E+02  1.250000000E+02  0.00000E+00  9.000E+00
      25     1     1     2     0     0 -3.547969789E+01  8.428431264E+01  2.512945089E+02  2.951890658E+02  1.250000000E+02  0.00000E+00  9.000E+00
      21     1     1     2   502   511 -1.723927341E+01  4.640490696E+00 -1.546572992E+02  1.556843180E+02  2.697398305E-06  0.00000E+00  9.000E+00
#rwgt            1           1   3.7029251750476326E-002           9      235873           0
</event>
<event>
      5   9999  3.79277E-02  8.35929E+00 -1.00000E+00  2.05207E-01
      21    -1     0     0   502   512  0.000000000E+00  0.000000000E+00  6.315794423E+02  6.315794423E+02  0.000000000E+00  0.00000E+00  9.000E+00
      21    -1     0     0   501   502  0.000000000E+00  0.000000000E+00 -1.507611877E+02  1.507611877E+02  0.000000000E+00  0.00000E+00  9.000E+00
      25     1     1     2     0     0 -1.317251718E+02  2.445348421E+01  3.785612695E+02  4.205747597E+02  1.250000000E+02  0.00000E+00  9.000E+00
      25     1     1     2     0     0  1.398828387E+02 -2.262862064E+01 -6.079857843E+01  1.984961717E+02  1.250000000E+02  0.00000E+00  9.000E+00
      21     1     1     2   501   512 -8.157666949E+00 -1.824863572E+00  1.630555636E+02  1.632696986E+02  1.907348633E-06  0.00000E+00  9.000E+00
#rwgt            1           1   4.6841896544877554E-002           9      236022           0
</event>
<event>
      5   9999  3.79277E-02  1.74089E+02 -1.00000E+00  1.13887E-01
      21    -1     0     0   502   511  0.000000000E+00  0.000000000E+00  3.155841352E+02  3.155841352E+02  0.000000000E+00  0.00000E+00  9.000E+00
      21    -1     0     0   501   502  0.000000000E+00  0.000000000E+00 -3.175070345E+02  3.175070345E+02  0.000000000E+00  0.00000E+00  9.000E+00
      25     1     1     2     0     0  9.163921482E+01  4.596159873E+01 -6.097207528E+01  1.727796522E+02  1.250000000E+02  0.00000E+00  9.000E+00
      25     1     1     2     0     0 -9.167724120E+01 -2.200504372E+02 -1.834715482E+01  2.697934943E+02  1.250000000E+02  0.00000E+00  9.000E+00
      21     1     1     2   501   511  3.802638551E-02  1.740888385E+02  7.739633083E+01  1.905180232E+02  4.264961200E-06  0.00000E+00  9.000E+00
#rwgt            2          11   1.8716457034740252E-003           9      236349           0
</event>
<event>
      5   9999  3.79277E-02  4.97295E+01 -1.00000E+00  1.39210E-01
      21    -1     0     0   502   501  0.000000000E+00  0.000000000E+00  2.638540245E+02  2.638540245E+02  0.000000000E+00  0.00000E+00  9.000E+00
      21    -1     0     0   512   502  0.000000000E+00  0.000000000E+00 -6.465745165E+02  6.465745165E+02  0.000000000E+00  0.00000E+00  9.000E+00
      25     1     1     2     0     0 -6.285794068E+01 -2.788536970E+02  4.539744653E+01  3.152719987E+02  1.250000000E+02  0.00000E+00  9.000E+00
      25     1     1     2     0     0  4.131115078E+01  3.236728765E+02 -3.104555296E+02  4.674167071E+02  1.250000000E+02  0.00000E+00  9.000E+00
      21     1     1     2   512   501  2.154678990E+01 -4.481917957E+01 -1.176624089E+02  1.277398352E+02  1.348699152E-06  0.00000E+00  9.000E+00
#rwgt            1           1   3.4266546600748481E-002           9      236399           0
</event>
<event>
      5   9999  3.79277E-02  6.61990E+01 -1.00000E+00  1.32461E-01
      21    -1     0     0   502   511  0.000000000E+00  0.000000000E+00  8.525219612E+02  8.525219612E+02  0.000000000E+00  0.00000E+00  9.000E+00
      21    -1     0     0   501   502  0.000000000E+00  0.000000000E+00 -9.517083944E+01  9.517083944E+01  0.000000000E+00  0.00000E+00  9.000E+00
      25     1     1     2     0     0  6.620287953E+01  1.961583158E+01  6.302878887E+02  6.462626592E+02  1.250000000E+02  0.00000E+00  9.000E+00
      25     1     1     2     0     0 -1.652857392E+01  2.414221950E+01 -2.925740238E+01  1.316701793E+02  1.250000000E+02  0.00000E+00  9.000E+00
      21     1     1     2   501   511 -4.967430561E+01 -4.375805107E+01  1.563206355E+02  1.697599622E+02  1.907348633E-06  0.00000E+00  9.000E+00
#rwgt            1           1   3.7310094907117480E-002           9      236557           0
</event>
<event>
      5   9999  3.79277E-02  8.87246E+00 -1.00000E+00  2.01961E-01
      21    -1     0     0   502   501  0.000000000E+00  0.000000000E+00  8.276234180E+02  8.276234180E+02  0.000000000E+00  0.00000E+00  9.000E+00
      -2    -1     0     0     0   502  0.000000000E+00  0.000000000E+00 -3.574597160E+02  3.574597160E+02  0.000000000E+00  0.00000E+00  9.000E+00
      25     1     1     2     0     0 -4.714438507E+01 -5.264489681E+01  5.803769377E+02  5.978766328E+02  1.250000000E+02  0.00000E+00  9.000E+00
      25     1     1     2     0     0  3.992465094E+01  4.748777109E+01  2.180181979E+02  2.588551734E+02  1.250000000E+02  0.00000E+00  9.000E+00
      -2     1     1     2     0   501  7.219734129E+00  5.157125719E+00 -3.282314336E+02  3.283513279E+02  3.814697266E-06  0.00000E+00  9.000E+00
#rwgt            1           1   3.3817687327931459E-002           9      236669           0
</event>
<event>
      5   9999  3.79277E-02  2.52353E+01 -1.00000E+00  1.58447E-01
      21    -1     0     0   511   501  0.000000000E+00  0.000000000E+00  4.887546869E+02  4.887546869E+02  0.000000000E+00  0.00000E+00  9.000E+00
      21    -1     0     0   501   502  0.000000000E+00  0.000000000E+00 -6.336018689E+02  6.336018689E+02  0.000000000E+00  0.00000E+00  9.000E+00
      25     1     1     2     0     0 -6.414400599E+01 -7.973764510E+01 -6.052627472E+02  6.264507472E+02  1.250000000E+02  0.00000E+00  9.000E+00
      25     1     1     2     0     0  7.568541163E+01  5.729630296E+01  4.186779517E+02  4.471323911E+02  1.250000000E+02  0.00000E+00  9.000E+00
      21     1     1     2   511   502 -1.154140564E+01  2.244134214E+01  4.173761340E+01  4.877341749E+01  4.768371582E-07  0.00000E+00  9.000E+00
#rwgt            1           1   6.4569357912374697E-002           9      236913           0
</event>
<event>
      5   9999  3.79277E-02  3.83832E+01 -1.00000E+00  1.45960E-01
      21    -1     0     0   512   501  0.000000000E+00  0.000000000E+00  3.404957952E+02  3.404957952E+02  0.000000000E+00  0.00000E+00  9.000E+00
      21    -1     0     0   501   502  0.000000000E+00  0.000000000E+00 -1.112470043E+03  1.112470043E+03  0.000000000E+00  0.00000E+00  9.000E+00
      25     1     1     2     0     0  7.288477358E+01 -1.634761389E+02 -2.664760652E+02  3.444867654E+02  1.250000000E+02  0.00000E+00  9.000E+00
      25     1     1     2     0     0 -3.474266029E+01  1.591807969E+02 -7.926266582E+02  8.187964325E+02  1.250000000E+02  0.00000E+00  9.000E+00
      21     1     1     2   512   502 -3.814211329E+01  4.295342026E+00  2.871284755E+02  2.896826405E+02  0.000000000E+00  0.00000E+00  9.000E+00
#rwgt            1           1   2.4882609209340854E-002           9      237214           0
</event>
<event>
      5   9999  3.79277E-02  1.23758E+02 -1.00000E+00  1.19803E-01
      21    -1     0     0   502   501  0.000000000E+00  0.000000000E+00  5.144219127E+02  5.144219127E+02  0.000000000E+00  0.00000E+00  9.000E+00
      21    -1     0     0   511   502  0.000000000E+00  0.000000000E+00 -1.498888341E+02  1.498888341E+02  0.000000000E+00  0.00000E+00  9.000E+00
      25     1     1     2     0     0  1.229319297E+02 -1.161547599E+02  2.634328791E+02  3.370846621E+02  1.250000000E+02  0.00000E+00  9.000E+00
      25     1     1     2     0     0 -1.394576848E+02 -6.495127354E+00  5.757176409E+01  1.960360695E+02  1.250000000E+02  0.00000E+00  9.000E+00
      21     1     1     2   511   501  1.652575501E+01  1.226498873E+02  4.352843536E+01  1.311900153E+02  1.651812370E-06  0.00000E+00  9.000E+00
#rwgt            2          11   2.6942743321338894E-003           9      237315           0
</event>
<event>
      5   9999  3.79277E-02  6.32983E+01 -1.00000E+00  1.33473E-01
      21    -1     0     0   502   501  0.000000000E+00  0.000000000E+00  3.081968411E+02  3.081968411E+02  0.000000000E+00  0.00000E+00  9.000E+00
      21    -1     0     0   501   512  0.000000000E+00  0.000000000E+00 -1.847276506E+02  1.847276506E+02  0.000000000E+00  0.00000E+00  9.000E+00
      25     1     1     2     0     0 -6.176932415E+01  8.680633235E+01  2.097924021E+02  2.664369358E+02  1.250000000E+02  0.00000E+00  9.000E+00
      25     1     1     2     0     0  7.167966276E+00 -5.478497433E+01 -8.907028234E+01  1.631296673E+02  1.250000000E+02  0.00000E+00  9.000E+00
      21     1     1     2   502   512  5.460135787E+01 -3.202135802E+01  2.747070695E+00  6.335788860E+01  7.918673906E-07  0.00000E+00  9.000E+00
#rwgt            2          11   3.2577885750072707E-003           9      237470           0
</event>
<event>
      5   9999  3.79277E-02  8.72788E+01 -1.00000E+00  1.26545E-01
      21    -1     0     0   502   511  0.000000000E+00  0.000000000E+00  6.285966166E+02  6.285966166E+02  0.000000000E+00  0.00000E+00  9.000E+00
      21    -1     0     0   501   502  0.000000000E+00  0.000000000E+00 -1.551961637E+02  1.551961637E+02  0.000000000E+00  0.00000E+00  9.000E+00
      25     1     1     2     0     0  1.348527376E+02 -1.687549553E+02  1.591052593E+01  2.500832674E+02  1.250000000E+02  0.00000E+00  9.000E+00
      25     1     1     2     0     0 -5.882352197E+01  1.258929505E+02  2.940269089E+02  3.484050299E+02  1.250000000E+02  0.00000E+00  9.000E+00
      21     1     1     2   501   511 -7.602921566E+01  4.286200480E+01  1.634630181E+02  1.853044829E+02  1.907348633E-06  0.00000E+00  9.000E+00
#rwgt            1           1   4.5281840975381606E-002           9      237580           0
</event>
<event>
      5   9999  3.79277E-02  6.10128E+01 -1.00000E+00  1.34316E-01
      21    -1     0     0   502   501  0.000000000E+00  0.000000000E+00  3.766494787E+02  3.766494787E+02  0.000000000E+00  0.00000E+00  9.000E+00
       1    -1     0     0   501     0  0.000000000E+00  0.000000000E+00 -8.329053357E+02  8.329053357E+02  0.000000000E+00  0.00000E+00  9.000E+00
      25     1     1     2     0     0 -2.457948337E+02 -3.701960827E+01 -3.413439589E+01  2.803135898E+02  1.250000000E+02  0.00000E+00  9.000E+00
      25     1     1     2     0     0  2.110224254E+02  8.715379622E+01  1.848249955E+02  3.192358488E+02  1.250000000E+02  0.00000E+00  9.000E+00
       1     1     1     2   502     0  3.477240831E+01 -5.013418795E+01 -6.069464566E+02  6.100053757E+02  7.629394531E-06  0.00000E+00  9.000E+00
#rwgt            1           1   3.9326158186325455E-002           9      237738           0
</event>
<event>
      5   9999  3.79277E-02  9.23968E+01 -1.00000E+00  1.25393E-01
      21    -1     0     0   502   501  0.000000000E+00  0.000000000E+00  2.962750865E+02  2.962750865E+02  0.000000000E+00  0.00000E+00  9.000E+00
      21    -1     0     0   511   502  0.000000000E+00  0.000000000E+00 -3.165240485E+02  3.165240485E+02  0.000000000E+00  0.00000E+00  9.000E+00
      25     1     1     2     0     0 -1.606271696E+02 -9.345525865E+01  1.229946216E+02  2.555144808E+02  1.250000000E+02  0.00000E+00  9.000E+00
      25     1     1     2     0     0  1.978895315E+02  8.905311028E+00 -9.219019438E+01  2.517212807E+02  1.250000000E+02  0.00000E+00  9.000E+00
      21     1     1     2   511   501 -3.726236192E+01  8.454994762E+01 -5.105338919E+01  1.055633734E+02  1.651812370E-06  0.00000E+00  9.000E+00
#rwgt            1           1   3.6733846235656113E-002           9      237875           0
</event>
<event>
      5   9999  3.79277E-02  8.98372E+00 -1.00000E+00  2.01296E-01
      21    -1     0     0   502   512  0.000000000E+00  0.000000000E+00  5.542471630E+01  5.542471630E+01  0.000000000E+00  0.00000E+00  9.000E+00
      21    -1     0     0   501   502  0.000000000E+00  0.000000000E+00 -9.727765175E+02  9.727765175E+02  0.000000000E+00  0.00000E+00  9.000E+00
      25     1     1     2     0     0  4.710105822E+01  4.780781392E+01 -6.498572403E+01  1.560520461E+02  1.250000000E+02  0.00000E+00  9.000E+00
      25     1     1     2     0     0 -5.608347556E+01 -4.796104222E+01 -8.507209454E+02  8.630160744E+02  1.250000000E+02  0.00000E+00  9.000E+00
      21     1     1     2   501   512  8.982417342E+00  1.532283043E-01 -1.645131803E+00  9.133113318E+00  3.698370947E-07  0.00000E+00  9.000E+00
#rwgt            1           1   5.4104241118799516E-002           9      238028           0
</event>
<event>
      5   9999  3.79277E-02  7.13235E+01 -1.00000E+00  1.30810E-01
      21    -1     0     0   502   511  0.000000000E+00  0.000000000E+00  1.952336345E+02  1.952336345E+02  0.000000000E+00  0.00000E+00  9.000E+00
      21    -1     0     0   501   502  0.000000000E+00  0.000000000E+00 -3.321167491E+02  3.321167491E+02  0.000000000E+00  0.00000E+00  9.000E+00
      25     1     1     2     0     0  9.457962669E+01 -1.056684142E+02 -1.910547336E+02  2.687713355E+02  1.250000000E+02  0.00000E+00  9.000E+00
      25     1     1     2     0     0 -1.164596645E+02  3.778390552E+01  6.455938360E+01  1.865030589E+02  1.250000000E+02  0.00000E+00  9.000E+00
      21     1     1     2   501   511  2.188003777E+01  6.788450871E+01 -1.038776461E+01  7.207598927E+01  1.124618188E-06  0.00000E+00  9.000E+00
#rwgt            1           1   3.7899105305163279E-002           9      238511           0
</event>
<event>
      5   9999  3.79277E-02  5.42795E+01 -1.00000E+00  1.37071E-01
      21    -1     0     0   502   501  0.000000000E+00  0.000000000E+00  1.351364213E+02  1.351364213E+02  0.000000000E+00  0.00000E+00  9.000E+00
      21    -1     0     0   512   502  0.000000000E+00  0.000000000E+00 -1.333346030E+03  1.333346030E+03  0.000000000E+00  0.00000E+00  9.000E+00
      25     1     1     2     0     0 -8.435422528E+01 -1.408588490E+02  3.432461480E+01  2.091889812E+02  1.250000000E+02  0.00000E+00  9.000E+00
      25     1     1     2     0     0  7.651212943E+01  8.714882927E+01 -5.810488154E+02  6.055507825E+02  1.250000000E+02  0.00000E+00  9.000E+00
      21     1     1     2   512   501  7.842095847E+00  5.371001970E+01 -6.514854079E+02  6.537426874E+02  0.000000000E+00  0.00000E+00  9.000E+00
#rwgt            1           1   4.7666183160434056E-002           9      238685           0
</event>
<event>
      5   9999  3.79277E-02  7.05206E+01 -1.00000E+00  1.31058E-01
      21    -1     0     0   511   501  0.000000000E+00  0.000000000E+00  1.906590415E+03  1.906590415E+03  0.000000000E+00  0.00000E+00  9.000E+00
      21    -1     0     0   501   502  0.000000000E+00  0.000000000E+00 -2.233467039E+02  2.233467039E+02  0.000000000E+00  0.00000E+00  9.000E+00
      25     1     1     2     0     0  1.566182570E+02 -4.237499776E+01 -2.458663920E+01  2.062872310E+02  1.250000000E+02  0.00000E+00  9.000E+00
      25     1     1     2     0     0 -2.262827916E+02  5.332948706E+01  5.538992408E+01  2.697053571E+02  1.250000000E+02  0.00000E+00  9.000E+00
      21     1     1     2   511   502  6.966453460E+01 -1.095448930E+01  1.652440427E+03  1.653944531E+03  0.000000000E+00  0.00000E+00  9.000E+00
#rwgt            1           1   3.2529282066213576E-002           9      238894           0
</event>
<event>
      5   9999  3.79277E-02  5.42155E+01 -1.00000E+00  1.37099E-01
      21    -1     0     0   512   501  0.000000000E+00  0.000000000E+00  6.351598049E+02  6.351598049E+02  0.000000000E+00  0.00000E+00  9.000E+00
      21    -1     0     0   501   502  0.000000000E+00  0.000000000E+00 -8.340725934E+01  8.340725934E+01  0.000000000E+00  0.00000E+00  9.000E+00
      25     1     1     2     0     0 -1.128054213E+02  5.582231838E+01  2.667493668E+02  3.203457803E+02  1.250000000E+02  0.00000E+00  9.000E+00
      25     1     1     2     0     0  1.536837136E+02 -9.143536856E+01  1.923184398E+02  2.908444476E+02  1.250000000E+02  0.00000E+00  9.000E+00
      21     1     1     2   512   502 -4.087829227E+01  3.561305018E+01  9.268473906E+01  1.073768363E+02  1.907348633E-06  0.00000E+00  9.000E+00
#rwgt            1           1   4.6533891172260894E-002           9      239006           0
</event>
<event>
      5   9999  3.79277E-02  7.70683E+00 -1.00000E+00  2.09813E-01
      21    -1     0     0   502   511  0.000000000E+00  0.000000000E+00  1.186469876E+02  1.186469876E+02  0.000000000E+00  0.00000E+00  9.000E+00
      21    -1     0     0   501   502  0.000000000E+00  0.000000000E+00 -6.663014009E+02  6.663014009E+02  0.000000000E+00  0.00000E+00  9.000E+00
      25     1     1     2     0     0 -1.405734375E+01 -5.277077184E+01 -6.065621978E+02  6.217113986E+02  1.250000000E+02  0.00000E+00  9.000E+00
      25     1     1     2     0     0  2.135157632E+01  5.525863130E+01  4.185049182E+01  1.445194444E+02  1.250000000E+02  0.00000E+00  9.000E+00
      21     1     1     2   501   511 -7.294232572E+00 -2.487859460E+00  1.705729270E+01  1.871754545E+01  2.384185791E-07  0.00000E+00  9.000E+00
#rwgt            1           1   4.2746570764795322E-002           9      239134           0
</event>
<event>
      5   9999  3.79277E-02  6.01077E+00 -1.00000E+00  2.25351E-01
      21    -1     0     0   512   501  0.000000000E+00  0.000000000E+00  4.681058242E+02  4.681058242E+02  0.000000000E+00  0.00000E+00  9.000E+00
      21    -1     0     0   501   502  0.000000000E+00  0.000000000E+00 -1.686044362E+02  1.686044362E+02  0.000000000E+00  0.00000E+00  9.000E+00
      25     1     1     2     0     0  1.276619630E+02 -7.654986400E+00  1.698327310E+02  2.466258951E+02  1.250000000E+02  0.00000E+00  9.000E+00
      25     1     1     2     0     0 -1.320931054E+02  1.171630962E+01 -6.637413938E+01  1.939494439E+02  1.250000000E+02  0.00000E+00  9.000E+00
      21     1     1     2   512   502  4.431142468E+00 -4.061323220E+00  1.960427964E+02  1.961349214E+02  4.672030912E-06  0.00000E+00  9.000E+00
#rwgt            1           1   2.3247565847092904E-002           9      239433           0
</event>
<event>
      5   9999  3.79277E-02  2.19591E+02 -1.00000E+00  1.10190E-01
       2    -1     0     0   502     0  0.000000000E+00  0.000000000E+00  2.350303901E+03  2.350303901E+03  0.000000000E+00  0.00000E+00  9.000E+00
      21    -1     0     0   501   502  0.000000000E+00  0.000000000E+00 -2.408176395E+02  2.408176395E+02  0.000000000E+00  0.00000E+00  9.000E+00
      25     1     1     2     0     0 -1.167376287E+02 -4.483889085E+02  5.711315679E+02  7.459869670E+02  1.250000000E+02  0.00000E+00  9.000E+00
      25     1     1     2     0     0 -1.026017218E+02  4.588976218E+02  2.670945492E+02  5.550483212E+02  1.250000000E+02  0.00000E+00  9.000E+00
       2     1     1     2   501     0  2.193393505E+02 -1.050871335E+01  1.271260144E+03  1.290086252E+03  0.000000000E+00  0.00000E+00  9.000E+00
#rwgt            1           1  0.11302809484488976                9      239786           0
</event>
<event>
      5   9999  3.79277E-02  1.47164E+02 -1.00000E+00  1.16723E-01
       2    -1     0     0   502     0  0.000000000E+00  0.000000000E+00  1.448586057E+03  1.448586057E+03  0.000000000E+00  0.00000E+00  9.000E+00
      21    -1     0     0   501   502  0.000000000E+00  0.000000000E+00 -1.662026226E+02  1.662026226E+02  0.000000000E+00  0.00000E+00  9.000E+00
      25     1     1     2     0     0  7.842664931E+01  9.689523991E+01  1.624769400E+02  2.399232854E+02  1.250000000E+02  0.00000E+00  9.000E+00
      25     1     1     2     0     0  6.308906762E+01 -5.651498618E+01 -7.662085111E+01  1.693219683E+02  1.250000000E+02  0.00000E+00  9.000E+00
       2     1     1     2   501     0 -1.415157169E+02 -4.038025373E+01  1.196527346E+03  1.205543426E+03  0.000000000E+00  0.00000E+00  9.000E+00
#rwgt            2          18   1.6870730826523267E-003           9      239839           0
</event>
<event>
      5   9999  3.79277E-02  9.71129E+01 -1.00000E+00  1.24403E-01
      21    -1     0     0   502   501  0.000000000E+00  0.000000000E+00  2.130456276E+02  2.130456276E+02  0.000000000E+00  0.00000E+00  9.000E+00
       2    -1     0     0   501     0  0.000000000E+00  0.000000000E+00 -1.069292000E+03  1.069292000E+03  0.000000000E+00  0.00000E+00  9.000E+00
      25     1     1     2     0     0  1.796666841E+02 -1.663673982E+02 -8.362533835E+01  2.873611417E+02  1.250000000E+02  0.00000E+00  9.000E+00
      25     1     1     2     0     0 -8.764776615E+01  1.353282183E+02  1.200372980E+01  2.043647404E+02  1.250000000E+02  0.00000E+00  9.000E+00
       2     1     1     2   502     0 -9.201891796E+01  3.103917990E+01 -7.846247642E+02  7.906117458E+02  1.078959322E-05  0.00000E+00  9.000E+00
#rwgt            1           1  0.12351245804275771                9      240053           0
</event>
<event>
      5   9999  3.79277E-02  9.46251E+01 -1.00000E+00  1.24917E-01
      21    -1     0     0   511   501  0.000000000E+00  0.000000000E+00  1.400485693E+03  1.400485693E+03  0.000000000E+00  0.00000E+00  9.000E+00
      21    -1     0     0   501   502  0.000000000E+00  0.000000000E+00 -1.382517067E+02  1.382517067E+02  0.000000000E+00  0.00000E+00  9.000E+00
      25     1     1     2     0     0  1.044892694E+02 -2.091219279E+02  9.380161639E+02  9.747560269E+02  1.250000000E+02  0.00000E+00  9.000E+00
      25     1     1     2     0     0 -1.752585694E+01  1.718222437E+02 -1.313778805E+01  2.136062746E+02  1.250000000E+02  0.00000E+00  9.000E+00
      21     1     1     2   511   502 -8.696341244E+01  3.729968419E+01  3.373556107E+02  3.503750985E+02  7.629394531E-06  0.00000E+00  9.000E+00
#rwgt            1           1   3.5051769273079979E-002           9      240319           0
</event>
<event>
      5   9999  3.79277E-02  1.45920E+01 -1.00000E+00  1.78519E-01
      21    -1     0     0   502   512  0.000000000E+00  0.000000000E+00  5.781737038E+02  5.781737038E+02  0.000000000E+00  0.00000E+00  9.000E+00
      21    -1     0     0   501   502  0.000000000E+00  0.000000000E+00 -9.561820397E+01  9.561820397E+01  0.000000000E+00  0.00000E+00  9.000E+00
      25     1     1     2     0     0  9.953114598E+01  2.831431044E+01  9.515053393E+00  1.625536386E+02  1.250000000E+02  0.00000E+00  9.000E+00
      25     1     1     2     0     0 -8.897264342E+01 -1.824234655E+01  2.987800995E+02  3.363680459E+02  1.250000000E+02  0.00000E+00  9.000E+00
      21     1     1     2   501   512 -1.055850256E+01 -1.007196388E+01  1.742603470E+02  1.748702232E+02  2.697398305E-06  0.00000E+00  9.000E+00
#rwgt            1           1   5.3736192470702139E-002           9      240466           0
</event>
<event>
      5   9999  3.79277E-02  7.59123E+01 -1.00000E+00  1.29462E-01
      21    -1     0     0   502   501  0.000000000E+00  0.000000000E+00  9.620817407E+01  9.620817407E+01  0.000000000E+00  0.00000E+00  9.000E+00
      21    -1     0     0   501   511  0.000000000E+00  0.000000000E+00 -8.956758243E+02  8.956758243E+02  0.000000000E+00  0.00000E+00  9.000E+00
      25     1     1     2     0     0 -8.147223705E+01  1.170758384E+02 -4.123793523E+02  4.539010989E+02  1.250000000E+02  0.00000E+00  9.000E+00
      25     1     1     2     0     0  4.823977703E+01 -1.853274824E+02 -1.159211499E+02  2.563904538E+02  1.250000000E+02  0.00000E+00  9.000E+00
      21     1     1     2   502   511  3.323246002E+01  6.825164401E+01 -2.711671480E+02  2.815924457E+02  0.000000000E+00  0.00000E+00  9.000E+00
#rwgt            1           1  0.10170353111868416                9      240645           0
</event>
<event>
      5   9999  3.79277E-02  1.29562E+02 -1.00000E+00  1.18972E-01
      21    -1     0     0   502   501  0.000000000E+00  0.000000000E+00  5.915995616E+02  5.915995616E+02  0.000000000E+00  0.00000E+00  9.000E+00
      21    -1     0     0   512   502  0.000000000E+00  0.000000000E+00 -4.333807912E+02  4.333807912E+02  0.000000000E+00  0.00000E+00  9.000E+00
      25     1     1     2     0     0 -1.853800225E+02  1.061464108E+02  3.385123601E+02  4.193428563E+02  1.250000000E+02  0.00000E+00  9.000E+00
      25     1     1     2     0     0  1.320541168E+02 -2.242253820E+02  9.290961543E+01  3.032696957E+02  1.250000000E+02  0.00000E+00  9.000E+00
      21     1     1     2   512   501  5.332590569E+01  1.180789712E+02 -2.732032052E+02  3.023678008E+02  3.814697266E-06  0.00000E+00  9.000E+00
#rwgt            1           1   2.7625958617944847E-002           9      240750           0
</event>
<event>
      5   9999  3.79277E-02  1.17728E+01 -1.00000E+00  1.87905E-01
      21    -1     0     0   502   511  0.000000000E+00  0.000000000E+00  5.115102969E+02  5.115102969E+02  0.000000000E+00  0.00000E+00  9.000E+00
      21    -1     0     0   501   502  0.000000000E+00  0.000000000E+00 -9.953686802E+01  9.953686802E+01  0.000000000E+00  0.00000E+00  9.000E+00
      25     1     1     2     0     0  2.443636452E+01  1.777629093E+02  1.643902753E+02  2.735798794E+02  1.250000000E+02  0.00000E+00  9.000E+00
      25     1     1     2     0     0 -2.942955255E+01 -1.671014938E+02  2.077435507E+02  2.959246367E+02  1.250000000E+02  0.00000E+00  9.000E+00
      21     1     1     2   501   511  4.993188033E+00 -1.066141551E+01  3.983960288E+01  4.154264874E+01  8.259061849E-07  0.00000E+00  9.000E+00
#rwgt            1           1   3.0885437169498799E-002           9      241018           0
</event>
<event>
      5   9999  3.79277E-02  4.87119E+01 -1.00000E+00  1.39725E-01
       1    -1     0     0   502     0  0.000000000E+00  0.000000000E+00  8.543134517E+02  8.543134517E+02  0.000000000E+00  0.00000E+00  9.000E+00
      21    -1     0     0   501   502  0.000000000E+00  0.000000000E+00 -2.393712550E+02  2.393712550E+02  0.000000000E+00  0.00000E+00  9.000E+00
      25     1     1     2     0     0  1.780754450E+02  4.837960291E+00 -6.732731325E+00  2.177259738E+02  1.250000000E+02  0.00000E+00  9.000E+00
      25     1     1     2     0     0 -1.314283197E+02 -1.887001809E+01 -6.043504633E+01  1.921116228E+02  1.250000000E+02  0.00000E+00  9.000E+00
       1     1     1     2   501     0 -4.664712534E+01  1.403205780E+01  6.821099743E+02  6.838471101E+02  1.078959322E-05  0.00000E+00  9.000E+00
#rwgt            1           1  0.11395967163857759                9      241239           0
</event>
<event>
      5   9999  3.79277E-02  6.90431E+01 -1.00000E+00  1.31524E-01
      21    -1     0     0   502   501  0.000000000E+00  0.000000000E+00  3.010247135E+02  3.010247135E+02  0.000000000E+00  0.00000E+00  9.000E+00
      21    -1     0     0   511   502  0.000000000E+00  0.000000000E+00 -2.119369766E+02  2.119369766E+02  0.000000000E+00  0.00000E+00  9.000E+00
      25     1     1     2     0     0 -8.888205218E+01 -1.281146905E+02  5.844757107E+01  2.082174625E+02  1.250000000E+02  0.00000E+00  9.000E+00
      25     1     1     2     0     0  5.725010050E+01  1.894854366E+02  2.140217848E+01  2.350858523E+02  1.250000000E+02  0.00000E+00  9.000E+00
      21     1     1     2   511   501  3.163195168E+01 -6.137074611E+01  9.237987331E+00  6.965837534E+01  1.066240300E-06  0.00000E+00  9.000E+00
#rwgt            1           1   3.9189069371639622E-002           9      241349           0
</event>
<event>
      5   9999  3.79277E-02  7.34824E+01 -1.00000E+00  1.30162E-01
      21    -1     0     0   502   501  0.000000000E+00  0.000000000E+00  6.333797932E+02  6.333797932E+02  0.000000000E+00  0.00000E+00  9.000E+00
      21    -1     0     0   501   512  0.000000000E+00  0.000000000E+00 -1.599183016E+02  1.599183016E+02  0.000000000E+00  0.00000E+00  9.000E+00
      25     1     1     2     0     0  3.879754272E+00  5.026032974E+01  5.248337725E+02  5.418640438E+02  1.250000000E+02  0.00000E+00  9.000E+00
      25     1     1     2     0     0  3.830537074E+01 -1.104273761E+02 -4.859680513E+01  1.778992870E+02  1.250000000E+02  0.00000E+00  9.000E+00
      21     1     1     2   502   512 -4.218512502E+01  6.016704640E+01 -2.775475794E+00  7.353476396E+01  2.028310243E-06  0.00000E+00  9.000E+00
#rwgt            1           1   3.7610040471908586E-002           9      241460           0
</event>
<event>
      5   9999 -3.79277E-02  3.85816E+01 -1.00000E+00  1.45819E-01
      21    -1     0     0   502   501  0.000000000E+00  0.000000000E+00  1.255505490E+03  1.255505490E+03  0.000000000E+00  0.00000E+00  9.000E+00
      21    -1     0     0   501   511  0.000000000E+00  0.000000000E+00 -1.043021227E+02  1.043021227E+02  0.000000000E+00  0.00000E+00  9.000E+00
      25     1     1     2     0     0  2.838130719E+02 -1.094345702E+02  3.621086313E+02  4.891558502E+02  1.250000000E+02  0.00000E+00  9.000E+00
      25     1     1     2     0     0 -2.656928623E+02  7.537286106E+01  7.701593583E+02  8.276739711E+02  1.250000000E+02  0.00000E+00  9.000E+00
      21     1     1     2   502   511 -1.812020960E+01  3.406170910E+01  1.893537740E+01  4.297779125E+01  6.307962682E-07  0.00000E+00  9.000E+00
#rwgt            1           1  -4.3086556737746862E-002           9      241545           0
</event>
<event>
      5   9999  3.79277E-02  1.07934E+01 -1.00000E+00  1.92001E-01
      21    -1     0     0   512   501  0.000000000E+00  0.000000000E+00  2.438275437E+03  2.438275437E+03  0.000000000E+00  0.00000E+00  9.000E+00
      21    -1     0     0   501   502  0.000000000E+00  0.000000000E+00 -8.893501264E+01  8.893501264E+01  0.000000000E+00  0.00000E+00  9.000E+00
      25     1     1     2     0     0 -1.272025479E+02  1.622461247E+02  8.685900686E+02  9.014310847E+02  1.250000000E+02  0.00000E+00  9.000E+00
      25     1     1     2     0     0  1.241056510E+02 -1.519065530E+02  1.140857456E+02  2.590721343E+02  1.250000000E+02  0.00000E+00  9.000E+00
      21     1     1     2   512   502  3.096896897E+00 -1.033957173E+01  1.366664610E+03  1.366707230E+03  2.157918644E-05  0.00000E+00  9.000E+00
#rwgt            1           1   4.1073282978171283E-002           9      241671           0
</event>
<event>
      5   9999  3.79277E-02  6.42126E+01 -1.00000E+00  1.33147E-01
      21    -1     0     0   502   501  0.000000000E+00  0.000000000E+00  3.519865300E+02  3.519865300E+02  0.000000000E+00  0.00000E+00  9.000E+00
      21    -1     0     0   511   502  0.000000000E+00  0.000000000E+00 -1.572108637E+02  1.572108637E+02  0.000000000E+00  0.00000E+00  9.000E+00
      25     1     1     2     0     0  4.898691356E+01  2.317417764E+01 -1.713387327E+01  1.373147109E+02  1.250000000E+02  0.00000E+00  9.000E+00
      25     1     1     2     0     0 -2.554821127E+01  3.660776465E+01  2.598236722E+02  2.917639117E+02  1.250000000E+02  0.00000E+00  9.000E+00
      21     1     1     2   511   501 -2.343870230E+01 -5.978194229E+01 -4.791413259E+01  8.011877115E+01  0.000000000E+00  0.00000E+00  9.000E+00
#rwgt            1           1   2.5852105328552630E-002           9      242060           0
</event>
<event>
      5   9999  3.79277E-02  4.56347E+01 -1.00000E+00  1.41378E-01
      21    -1     0     0   512   501  0.000000000E+00  0.000000000E+00  1.682222661E+02  1.682222661E+02  0.000000000E+00  0.00000E+00  9.000E+00
      21    -1     0     0   501   502  0.000000000E+00  0.000000000E+00 -1.062960322E+03  1.062960322E+03  0.000000000E+00  0.00000E+00  9.000E+00
      25     1     1     2     0     0 -6.217883669E+01  1.645182519E+02 -5.958792212E+02  6.337424629E+02  1.250000000E+02  0.00000E+00  9.000E+00
      25     1     1     2     0     0  7.430779791E+01 -1.205249566E+02 -4.240394774E+02  4.642008104E+02  1.250000000E+02  0.00000E+00  9.000E+00
      21     1     1     2   512   502 -1.212896123E+01 -4.399329531E+01  1.251806427E+02  1.332393149E+02  1.907348633E-06  0.00000E+00  9.000E+00
#rwgt            1           1  0.19177424297042273                9      242162           0
</event>
<event>
      5   9999  3.79277E-02  3.26728E+01 -1.00000E+00  1.50509E-01
      21    -1     0     0   511   501  0.000000000E+00  0.000000000E+00  8.836597581E+01  8.836597581E+01  0.000000000E+00  0.00000E+00  9.000E+00
      21    -1     0     0   501   502  0.000000000E+00  0.000000000E+00 -9.028228678E+02  9.028228678E+02  0.000000000E+00  0.00000E+00  9.000E+00
      25     1     1     2     0     0  2.078941135E+02 -9.414255598E+01 -4.501403126E+02  5.199366157E+02  1.250000000E+02  0.00000E+00  9.000E+00
      25     1     1     2     0     0 -1.980054336E+02  1.252829671E+02 -3.336922498E+02  4.264709734E+02  1.250000000E+02  0.00000E+00  9.000E+00
      21     1     1     2   511   502 -9.888679887E+00 -3.114041111E+01 -3.062432952E+01  4.478125448E+01  9.536743164E-07  0.00000E+00  9.000E+00
#rwgt            1           1   4.6564477767405556E-002           9      242305           0
</event>
<event>
      5   9999  3.79277E-02  3.04806E+01 -1.00000E+00  1.52562E-01
      21    -1     0     0   502   501  0.000000000E+00  0.000000000E+00  1.025644072E+02  1.025644072E+02  0.000000000E+00  0.00000E+00  9.000E+00
      21    -1     0     0   501   512  0.000000000E+00  0.000000000E+00 -2.864685671E+02  2.864685671E+02  0.000000000E+00  0.00000E+00  9.000E+00
      25     1     1     2     0     0  4.527347249E+01  2.321240362E+01 -1.613511647E+02  2.103513759E+02  1.250000000E+02  0.00000E+00  9.000E+00
      25     1     1     2     0     0 -5.040129280E+01  6.833800112E+00  8.435092519E+00  1.352151690E+02  1.250000000E+02  0.00000E+00  9.000E+00
      21     1     1     2   502   512  5.127820308E+00 -3.004620373E+01 -3.098808774E+01  4.346642936E+01  4.768371582E-07  0.00000E+00  9.000E+00
#rwgt            1           1   1.4054227003078472E-002           9      242411           0
</event>
<event>
      5   9999  3.79277E-02  1.45599E+02 -1.00000E+00  1.16909E-01
      21    -1     0     0   511   501  0.000000000E+00  0.000000000E+00  6.714030956E+02  6.714030956E+02  0.000000000E+00  0.00000E+00  9.000E+00
      21    -1     0     0   501   502  0.000000000E+00  0.000000000E+00 -1.956425779E+02  1.956425779E+02  0.000000000E+00  0.00000E+00  9.000E+00
      25     1     1     2     0     0  8.540287674E+01 -8.059847612E+01 -8.403634603E+01  1.909891965E+02  1.250000000E+02  0.00000E+00  9.000E+00
      25     1     1     2     0     0  2.521948599E+00  1.966511775E+02  3.599091821E+02  4.287629476E+02  1.250000000E+02  0.00000E+00  9.000E+00
      21     1     1     2   511   502 -8.792482534E+01 -1.160527014E+02  1.998876817E+02  2.472935294E+02  2.697398305E-06  0.00000E+00  9.000E+00
#rwgt            1           1   2.8903909343389256E-002           9      242748           0
</event>
<event>
      5   9999  3.79277E-02  1.48047E+01 -1.00000E+00  1.77921E-01
      -3    -1     0     0     0   501  0.000000000E+00  0.000000000E+00  3.018001854E+02  3.018001854E+02  0.000000000E+00  0.00000E+00  9.000E+00
      21    -1     0     0   501   502  0.000000000E+00  0.000000000E+00 -2.070137845E+02  2.070137845E+02  0.000000000E+00  0.00000E+00  9.000E+00
      25     1     1     2     0     0 -8.922796464E+01 -3.976925397E+00  1.455116998E+01  1.543184440E+02  1.250000000E+02  0.00000E+00  9.000E+00
      25     1     1     2     0     0  7.776760974E+01 -5.395360037E+00 -9.716820922E+01  1.764754145E+02  1.250000000E+02  0.00000E+00  9.000E+00
      -3     1     1     2     0   502  1.146035490E+01  9.372285434E+00  1.774034402E+02  1.780201114E+02  3.814697266E-06  0.00000E+00  9.000E+00
#rwgt            1           1   5.0708359160210055E-002           9      242820           0
</event>
<event>
      5   9999  3.79277E-02  1.84759E+01 -1.00000E+00  1.69260E-01
      21    -1     0     0   511   501  0.000000000E+00  0.000000000E+00  4.434602376E+02  4.434602376E+02  0.000000000E+00  0.00000E+00  9.000E+00
      21    -1     0     0   501   502  0.000000000E+00  0.000000000E+00 -1.273103386E+02  1.273103386E+02  0.000000000E+00  0.00000E+00  9.000E+00
      25     1     1     2     0     0  9.982158893E+00  5.316956829E+01 -6.797687616E+01  1.522251693E+02  1.250000000E+02  0.00000E+00  9.000E+00
      25     1     1     2     0     0 -1.284752080E+01 -7.142196460E+01  3.615601070E+02  3.893801058E+02  1.250000000E+02  0.00000E+00  9.000E+00
      21     1     1     2   511   502  2.865361911E+00  1.825239631E+01  2.256666820E+01  2.916530102E+01  3.371747881E-07  0.00000E+00  9.000E+00
#rwgt            1           1   5.2747074437912975E-002           9      242993           0
</event>
<event>
      5   9999  3.79277E-02  1.15378E+01 -1.00000E+00  1.88840E-01
      21    -1     0     0   502   512  0.000000000E+00  0.000000000E+00  1.401411382E+02  1.401411382E+02  0.000000000E+00  0.00000E+00  9.000E+00
      21    -1     0     0   501   502  0.000000000E+00  0.000000000E+00 -5.575362678E+02  5.575362678E+02  0.000000000E+00  0.00000E+00  9.000E+00
      25     1     1     2     0     0 -8.748593876E+01 -3.395591184E+01 -3.441259374E+02  3.779609162E+02  1.250000000E+02  0.00000E+00  9.000E+00
      25     1     1     2     0     0  9.601078064E+01  2.618105698E+01 -1.635848516E+02  2.286668350E+02  1.250000000E+02  0.00000E+00  9.000E+00
      21     1     1     2   501   512 -8.524841875E+00  7.774854859E+00  9.031565937E+01  9.104965472E+01  1.651812370E-06  0.00000E+00  9.000E+00
#rwgt            1           1   5.2245652851189518E-002           9      243236           0
</event>
<event>
      5   9999  3.79277E-02  4.82939E+01 -1.00000E+00  1.39941E-01
      21    -1     0     0   502   511  0.000000000E+00  0.000000000E+00  1.136410757E+02  1.136410757E+02  0.000000000E+00  0.00000E+00  9.000E+00
      21    -1     0     0   501   502  0.000000000E+00  0.000000000E+00 -5.570331536E+02  5.570331536E+02  0.000000000E+00  0.00000E+00  9.000E+00
      25     1     1     2     0     0 -2.958285638E+01 -1.601190970E+01 -4.557488095E+02  4.737757951E+02  1.250000000E+02  0.00000E+00  9.000E+00
      25     1     1     2     0     0  1.044566859E+00  5.497169471E+01 -2.105784210E+01  1.381716724E+02  1.250000000E+02  0.00000E+00  9.000E+00
      21     1     1     2   501   511  2.853828952E+01 -3.895978501E+01  3.341457375E+01  5.872676183E+01  1.719260824E-06  0.00000E+00  9.000E+00
#rwgt            1           1   4.9368787928323554E-002           9      243416           0
</event>
<event>
      5   9999  3.79277E-02  4.65145E+00 -1.00000E+00  2.48928E-01
      21    -1     0     0   502   512  0.000000000E+00  0.000000000E+00  9.390325542E+02  9.390325542E+02  0.000000000E+00  0.00000E+00  9.000E+00
      21    -1     0     0   501   502  0.000000000E+00  0.000000000E+00 -4.052893273E+02  4.052893273E+02  0.000000000E+00  0.00000E+00  9.000E+00
      25     1     1     2     0     0  1.356428088E+02 -5.770826779E+01 -1.935852476E+02  2.735497465E+02  1.250000000E+02  0.00000E+00  9.000E+00
      25     1     1     2     0     0 -1.395466853E+02  6.023725010E+01 -1.153331634E+02  2.280976594E+02  1.250000000E+02  0.00000E+00  9.000E+00
      21     1     1     2   501   512  3.903876493E+00 -2.528982309E+00  8.426616378E+02  8.426744756E+02  1.078959322E-05  0.00000E+00  9.000E+00
#rwgt            1           1   3.7757709610627223E-002           9      243484           0
</event>
<event>
      5   9999  3.79277E-02  2.54686E+01 -1.00000E+00  1.58149E-01
      21    -1     0     0   502   511  0.000000000E+00  0.000000000E+00  4.580497758E+02  4.580497758E+02  0.000000000E+00  0.00000E+00  9.000E+00
      21    -1     0     0   501   502  0.000000000E+00  0.000000000E+00 -1.273772405E+02  1.273772405E+02  0.000000000E+00  0.00000E+00  9.000E+00
      25     1     1     2     0     0 -1.472695299E+01  1.102147882E+02  1.360325060E+01  1.678518129E+02  1.250000000E+02  0.00000E+00  9.000E+00
      25     1     1     2     0     0 -3.866882575E+00 -1.276193532E+02  1.118921364E+02  2.108233912E+02  1.250000000E+02  0.00000E+00  9.000E+00
      21     1     1     2   501   511  1.859383556E+01  1.740456503E+01  2.051771483E+02  2.067518121E+02  3.814697266E-06  0.00000E+00  9.000E+00
#rwgt            1           1   4.1849209290495806E-002           9      243938           0
</event>
<event>
      5   9999  3.79277E-02  2.22664E+01 -1.00000E+00  1.62612E-01
       1    -1     0     0   502     0  0.000000000E+00  0.000000000E+00  3.614041781E+02  3.614041781E+02  0.000000000E+00  0.00000E+00  9.000E+00
      21    -1     0     0   501   502  0.000000000E+00  0.000000000E+00 -9.185873523E+02  9.185873523E+02  0.000000000E+00  0.00000E+00  9.000E+00
      25     1     1     2     0     0  1.604984925E+02  5.651254630E+01 -8.082826205E+02  8.354036322E+02  1.250000000E+02  0.00000E+00  9.000E+00
      25     1     1     2     0     0 -1.781185869E+02 -7.012602296E+01  3.973178907E+01  2.320506521E+02  1.250000000E+02  0.00000E+00  9.000E+00
       1     1     1     2   501     0  1.762009438E+01  1.361347666E+01  2.113676573E+02  2.125372462E+02  2.697398305E-06  0.00000E+00  9.000E+00
#rwgt            1           1   4.1120247663318281E-002           9      244160           0
</event>
<event>
      5   9999  3.79277E-02  3.49611E+01 -1.00000E+00  1.48562E-01
      21    -1     0     0   502   501  0.000000000E+00  0.000000000E+00  2.860449133E+02  2.860449133E+02  0.000000000E+00  0.00000E+00  9.000E+00
      21    -1     0     0   511   502  0.000000000E+00  0.000000000E+00 -1.561027872E+02  1.561027872E+02  0.000000000E+00  0.00000E+00  9.000E+00
      25     1     1     2     0     0  1.925421951E+01 -7.136213691E+01 -2.677512838E+01  1.476657951E+02  1.250000000E+02  0.00000E+00  9.000E+00
      25     1     1     2     0     0 -3.604531784E+01  4.069726165E+01  1.980001642E+02  2.403842696E+02  1.250000000E+02  0.00000E+00  9.000E+00
      21     1     1     2   511   501  1.679109833E+01  3.066487526E+01 -4.128290975E+01  5.409763576E+01  4.768371582E-07  0.00000E+00  9.000E+00
#rwgt            1           1   1.1357462265393766E-002           9      244384           0
</event>
<event>
      5   9999  3.79277E-02  1.31323E+01 -1.00000E+00  1.83003E-01
      21    -1     0     0   502   501  0.000000000E+00  0.000000000E+00  2.712819609E+02  2.712819609E+02  0.000000000E+00  0.00000E+00  9.000E+00
       2    -1     0     0   501     0  0.000000000E+00  0.000000000E+00 -1.078847602E+03  1.078847602E+03  0.000000000E+00  0.00000E+00  9.000E+00
      25     1     1     2     0     0 -1.639016588E+02 -1.512077991E+02 -3.019372198E+02  3.956243634E+02  1.250000000E+02  0.00000E+00  9.000E+00
      25     1     1     2     0     0  1.569551602E+02  1.623525052E+02  1.501454004E+02  2.985998987E+02  1.250000000E+02  0.00000E+00  9.000E+00
       2     1     1     2   502     0  6.946498593E+00 -1.114470610E+01 -6.557738217E+02  6.559053007E+02  1.078959322E-05  0.00000E+00  9.000E+00
#rwgt            1           1   2.9683571959440973E-002           9      244645           0
</event>
<event>
      5   9999  3.79277E-02  3.35145E+01 -1.00000E+00  1.49772E-01
      21    -1     0     0   502   501  0.000000000E+00  0.000000000E+00  7.263541448E+01  7.263541448E+01  0.000000000E+00  0.00000E+00  9.000E+00
      21    -1     0     0   511   502  0.000000000E+00  0.000000000E+00 -1.403151865E+03  1.403151865E+03  0.000000000E+00  0.00000E+00  9.000E+00
      25     1     1     2     0     0  7.089822423E+01 -3.790103599E+01 -3.566830246E+01  1.528406835E+02  1.250000000E+02  0.00000E+00  9.000E+00
      25     1     1     2     0     0 -6.230796093E+01  7.029595690E+01 -4.316404641E+02  4.590885468E+02  1.250000000E+02  0.00000E+00  9.000E+00
      21     1     1     2   511   501 -8.590263296E+00 -3.239492091E+01 -8.632076835E+02  8.638580488E+02  0.000000000E+00  0.00000E+00  9.000E+00
#rwgt            1           1   3.8199575811491977E-002           9      244891           0
</event>
<event>
      5   9999  3.79277E-02  7.51851E+01 -1.00000E+00  1.29668E-01
      21    -1     0     0   502   512  0.000000000E+00  0.000000000E+00  2.774988243E+02  2.774988243E+02  0.000000000E+00  0.00000E+00  9.000E+00
      21    -1     0     0   501   502  0.000000000E+00  0.000000000E+00 -1.961964357E+02  1.961964357E+02  0.000000000E+00  0.00000E+00  9.000E+00
      25     1     1     2     0     0  1.881568278E+01  3.112672478E+01 -1.116806857E+02  1.715239880E+02  1.250000000E+02  0.00000E+00  9.000E+00
      25     1     1     2     0     0  3.107997516E+01 -8.736929603E+01  1.467061951E+02  2.138856387E+02  1.250000000E+02  0.00000E+00  9.000E+00
      21     1     1     2   501   512 -4.989565795E+01  5.624257124E+01  4.627687910E+01  8.828563327E+01  9.536743164E-07  0.00000E+00  9.000E+00
#rwgt            1           1   4.8204081833899945E-002           9      245073           0
</event>
<event>
      5   9999  3.79277E-02  9.78661E+01 -1.00000E+00  1.24251E-01
       3    -1     0     0   502     0  0.000000000E+00  0.000000000E+00  1.107304361E+02  1.107304361E+02  0.000000000E+00  0.00000E+00  9.000E+00
      21    -1     0     0   501   502  0.000000000E+00  0.000000000E+00 -1.205651623E+03  1.205651623E+03  0.000000000E+00  0.00000E+00  9.000E+00
      25     1     1     2     0     0 -5.027591251E+01  6.931712802E+01 -3.567188126E+02  3.875639855E+02  1.250000000E+02  0.00000E+00  9.000E+00
      25     1     1     2     0     0  1.475778638E+02 -7.981032165E+01 -7.905945911E+02  8.178103208E+02  1.250000000E+02  0.00000E+00  9.000E+00
       3     1     1     2   501     0 -9.730195129E+01  1.049319363E+01  5.239221664E+01  1.110077529E+02  2.523185073E-06  0.00000E+00  9.000E+00
#rwgt            1           1   3.5961703340375635E-002           9      245152           0
</event>
<event>
      5   9999  3.79277E-02  1.70464E+02 -1.00000E+00  1.14234E-01
      21    -1     0     0   502   501  0.000000000E+00  0.000000000E+00  6.653834850E+02  6.653834850E+02  0.000000000E+00  0.00000E+00  9.000E+00
      21    -1     0     0   511   502  0.000000000E+00  0.000000000E+00 -2.428013097E+02  2.428013097E+02  0.000000000E+00  0.00000E+00  9.000E+00
      25     1     1     2     0     0 -1.352061086E+02 -1.457043072E+02  5.260959761E+02  5.761184019E+02  1.250000000E+02  0.00000E+00  9.000E+00
      25     1     1     2     0     0  1.621274230E+01  2.364398860E+01  7.790016127E+00  1.284818102E+02  1.250000000E+02  0.00000E+00  9.000E+00
      21     1     1     2   511   501  1.189933663E+02  1.220603186E+02 -1.113038169E+02  2.035845825E+02  3.015782986E-06  0.00000E+00  9.000E+00
#rwgt            1           1   3.1449553045114535E-002           9      245215           0
</event>
<event>
      5   9999  3.79277E-02  8.37547E+01 -1.00000E+00  1.27393E-01
      21    -1     0     0   502   512  0.000000000E+00  0.000000000E+00  2.530753417E+02  2.530753417E+02  0.000000000E+00  0.00000E+00  9.000E+00
      21    -1     0     0   501   502  0.000000000E+00  0.000000000E+00 -3.546456225E+02  3.546456225E+02  0.000000000E+00  0.00000E+00  9.000E+00
      25     1     1     2     0     0  2.218443559E+02 -3.839209175E+01  4.689171964E+01  2.617493158E+02  1.250000000E+02  0.00000E+00  9.000E+00
      25     1     1     2     0     0 -1.504822480E+02 -5.452008963E+00 -1.702900706E+02  2.594192350E+02  1.250000000E+02  0.00000E+00  9.000E+00
      21     1     1     2   501   512 -7.136210793E+01  4.384410071E+01  2.182807022E+01  8.655241340E+01  5.331201500E-07  0.00000E+00  9.000E+00
#rwgt            1           1   3.2830897318704116E-002           9      245270           0
</event>
<event>
      5   9999  3.79277E-02  3.11530E+01 -1.00000E+00  1.51911E-01
      21    -1     0     0   502   501  0.000000000E+00  0.000000000E+00  2.009857455E+02  2.009857455E+02  0.000000000E+00  0.00000E+00  9.000E+00
      21    -1     0     0   501   511  0.000000000E+00  0.000000000E+00 -2.402898714E+02  2.402898714E+02  0.000000000E+00  0.00000E+00  9.000E+00
      25     1     1     2     0     0  7.147962888E+01 -1.536913438E+01  1.211342945E+02  1.887963584E+02  1.250000000E+02  0.00000E+00  9.000E+00
      25     1     1     2     0     0 -1.014484156E+02  6.861269895E+00 -1.174746056E+02  1.994094807E+02  1.250000000E+02  0.00000E+00  9.000E+00
      21     1     1     2   502   511  2.996878669E+01  8.507864488E+00 -4.296381478E+01  5.306977779E+01  0.000000000E+00  0.00000E+00  9.000E+00
#rwgt            1           1   3.4860326443567465E-002           9      245403           0
</event>
<event>
      5   9999  3.79277E-02  1.77470E+01 -1.00000E+00  1.70769E-01
      21    -1     0     0   502   501  0.000000000E+00  0.000000000E+00  6.627410131E+01  6.627410131E+01  0.000000000E+00  0.00000E+00  9.000E+00
      21    -1     0     0   501   512  0.000000000E+00  0.000000000E+00 -1.188284296E+03  1.188284296E+03  0.000000000E+00  0.00000E+00  9.000E+00
      25     1     1     2     0     0 -7.060953024E+01 -2.170902029E+02 -4.502115968E+02  5.200282145E+02  1.250000000E+02  0.00000E+00  9.000E+00
      25     1     1     2     0     0  6.901968483E+01  2.347658899E+02 -5.902824974E+02  6.511045743E+02  1.250000000E+02  0.00000E+00  9.000E+00
      21     1     1     2   502   512  1.589845412E+00 -1.767568703E+01 -8.151610095E+01  8.342560898E+01  0.000000000E+00  0.00000E+00  9.000E+00
#rwgt            1           1   3.9304075525079744E-002           9      245601           0
</event>
<event>
      5   9999  3.79277E-02  1.65934E+01 -1.00000E+00  1.73350E-01
      21    -1     0     0   511   501  0.000000000E+00  0.000000000E+00  5.212405662E+01  5.212405662E+01  0.000000000E+00  0.00000E+00  9.000E+00
      21    -1     0     0   501   502  0.000000000E+00  0.000000000E+00 -6.732782207E+02  6.732782207E+02  0.000000000E+00  0.00000E+00  9.000E+00
      25     1     1     2     0     0  7.594017383E+01  1.792554453E+01 -5.100140476E+02  5.308743390E+02  1.250000000E+02  0.00000E+00  9.000E+00
      25     1     1     2     0     0 -5.962890361E+01 -1.487863480E+01 -8.382820462E+01  1.625704395E+02  1.250000000E+02  0.00000E+00  9.000E+00
      21     1     1     2   511   502 -1.631127022E+01 -3.046909729E+00 -2.731191193E+01  3.195749878E+01  4.768371582E-07  0.00000E+00  9.000E+00
#rwgt            1           1   1.9672903936279861E-002           9      245813           0
</event>
<event>
      5   9999  3.79277E-02  5.96449E+01 -1.00000E+00  1.34841E-01
      21    -1     0     0   502   512  0.000000000E+00  0.000000000E+00  2.000643583E+02  2.000643583E+02  0.000000000E+00  0.00000E+00  9.000E+00
      21    -1     0     0   501   502  0.000000000E+00  0.000000000E+00 -2.058573046E+02  2.058573046E+02  0.000000000E+00  0.00000E+00  9.000E+00
      25     1     1     2     0     0 -3.593501546E+01  3.175052908E+01 -1.062159478E+02  1.708983587E+02  1.250000000E+02  0.00000E+00  9.000E+00
      25     1     1     2     0     0  8.190901907E+01  6.248224758E+00  8.973291134E+01  1.744279883E+02  1.250000000E+02  0.00000E+00  9.000E+00
      21     1     1     2   501   512 -4.597400360E+01 -3.799875384E+01  1.069009012E+01  6.059531605E+01  5.057621821E-07  0.00000E+00  9.000E+00
#rwgt            1           1   5.7482595995929510E-002           9      246028           0
</event>
<event>
      5   9999  3.79277E-02  3.42741E+01 -1.00000E+00  1.49128E-01
      21    -1     0     0   502   501  0.000000000E+00  0.000000000E+00  4.606445981E+02  4.606445981E+02  0.000000000E+00  0.00000E+00  9.000E+00
      21    -1     0     0   501   511  0.000000000E+00  0.000000000E+00 -4.835938496E+02  4.835938496E+02  0.000000000E+00  0.00000E+00  9.000E+00
      25     1     1     2     0     0  1.796158405E+02 -9.731613229E+01  2.722737717E+02  3.626158939E+02  1.250000000E+02  0.00000E+00  9.000E+00
      25     1     1     2     0     0 -2.133853502E+02  1.031754983E+02  1.607495033E+01  2.684434673E+02  1.250000000E+02  0.00000E+00  9.000E+00
      21     1     1     2   502   511  3.376950966E+01 -5.859365974E+00 -3.112979735E+02  3.131790866E+02  5.394796609E-06  0.00000E+00  9.000E+00
#rwgt            1           1   3.4795245711570659E-002           9      246124           0
</event>
<event>
      5   9999  3.79277E-02  3.49247E+01 -1.00000E+00  1.48592E-01
      21    -1     0     0   502   501  0.000000000E+00  0.000000000E+00  1.520027181E+02  1.520027181E+02  0.000000000E+00  0.00000E+00  9.000E+00
      21    -1     0     0   512   502  0.000000000E+00  0.000000000E+00 -2.472416469E+02  2.472416469E+02  0.000000000E+00  0.00000E+00  9.000E+00
      25     1     1     2     0     0 -1.250737838E+02 -2.817560624E+01 -6.440824348E+01  1.902911927E+02  1.250000000E+02  0.00000E+00  9.000E+00
      25     1     1     2     0     0  1.047395482E+02 -2.189728955E-01 -1.095469790E+00  1.630847049E+02  1.250000000E+02  0.00000E+00  9.000E+00
      21     1     1     2   512   501  2.033423556E+01  2.839457913E+01 -2.973521558E+01  4.586846744E+01  5.840038640E-07  0.00000E+00  9.000E+00
#rwgt            1           1   3.0367652590581044E-002           9      246437           0
</event>
<event>
      5   9999  3.79277E-02  1.25912E+02 -1.00000E+00  1.19488E-01
      21    -1     0     0   502   501  0.000000000E+00  0.000000000E+00  1.761923110E+02  1.761923110E+02  0.000000000E+00  0.00000E+00  9.000E+00
      21    -1     0     0   501   511  0.000000000E+00  0.000000000E+00 -4.312960591E+02  4.312960591E+02  0.000000000E+00  0.00000E+00  9.000E+00
      25     1     1     2     0     0 -1.248781768E+01 -1.462457913E+02 -1.223978201E+02  2.283637524E+02  1.250000000E+02  0.00000E+00  9.000E+00
      25     1     1     2     0     0 -1.132864603E+02  1.403518306E+02 -4.072764816E+01  2.231954295E+02  1.250000000E+02  0.00000E+00  9.000E+00
      21     1     1     2   502   511  1.257742780E+02  5.893960661E+00 -9.197827983E+01  1.559291882E+02  1.348699152E-06  0.00000E+00  9.000E+00
#rwgt            1           1   3.5546489553066725E-002           9      246626           0
</event>
<event>
      5   9999  3.79277E-02  5.66051E+01 -1.00000E+00  1.36069E-01
      21    -1     0     0   502   512  0.000000000E+00  0.000000000E+00  1.259969832E+02  1.259969832E+02  0.000000000E+00  0.00000E+00  9.000E+00
      21    -1     0     0   501   502  0.000000000E+00  0.000000000E+00 -4.756264010E+02  4.756264010E+02  0.000000000E+00  0.00000E+00  9.000E+00
      25     1     1     2     0     0 -1.872853511E+02  3.338665908E+01 -2.385916874E+02  3.297597080E+02  1.250000000E+02  0.00000E+00  9.000E+00
      25     1     1     2     0     0  1.413224612E+02 -3.481134920E-01 -1.021964595E+02  2.145723085E+02  1.250000000E+02  0.00000E+00  9.000E+00
      21     1     1     2   501   512  4.596288989E+01 -3.303854559E+01 -8.841270876E+00  5.729136769E+01  1.410503336E-06  0.00000E+00  9.000E+00
#rwgt            1           1   4.5688612420075526E-002           9      246865           0
</event>
<event>
      5   9999  3.79277E-02  4.37967E+01 -1.00000E+00  1.42439E-01
      21    -1     0     0   502   501  0.000000000E+00  0.000000000E+00  7.987841460E+02  7.987841460E+02  0.000000000E+00  0.00000E+00  9.000E+00
      21    -1     0     0   511   502  0.000000000E+00  0.000000000E+00 -1.255770166E+02  1.255770166E+02  0.000000000E+00  0.00000E+00  9.000E+00
      25     1     1     2     0     0 -1.654798172E+02  3.900371046E+01  2.562379934E+02  3.319454302E+02  1.250000000E+02  0.00000E+00  9.000E+00
      25     1     1     2     0     0  2.035188834E+02 -6.071039266E+01  4.657070649E+02  5.268906509E+02  1.250000000E+02  0.00000E+00  9.000E+00
      21     1     1     2   511   501 -3.803906611E+01  2.170668220E+01 -4.873792887E+01  6.552508156E+01  1.348699152E-06  0.00000E+00  9.000E+00
#rwgt            1           1   2.3845136730694383E-002           9      247158           0
</event>
<event>
      5   9999  3.79277E-02  3.57852E+01 -1.00000E+00  1.47904E-01
      21    -1     0     0   502   501  0.000000000E+00  0.000000000E+00  9.453226681E+01  9.453226681E+01  0.000000000E+00  0.00000E+00  9.000E+00
      21    -1     0     0   501   512  0.000000000E+00  0.000000000E+00 -5.199827620E+02  5.199827620E+02  0.000000000E+00  0.00000E+00  9.000E+00
      25     1     1     2     0     0 -6.006961748E+01  1.210809995E+02 -1.153236871E+02  2.172406964E+02  1.250000000E+02  0.00000E+00  9.000E+00
      25     1     1     2     0     0  6.782772166E+01 -1.560150894E+02 -2.490339459E+02  3.264723788E+02  1.250000000E+02  0.00000E+00  9.000E+00
      21     1     1     2   502   512 -7.758104178E+00  3.493408989E+01 -6.109286220E+01  7.080195356E+01  6.743495762E-07  0.00000E+00  9.000E+00
#rwgt            1           1   3.5157159887357736E-002           9      247267           0
</event>
<event>
      5   9999  3.79277E-02  8.91843E+01 -1.00000E+00  1.26106E-01
      21    -1     0     0   502   501  0.000000000E+00  0.000000000E+00  3.011834819E+02  3.011834819E+02  0.000000000E+00  0.00000E+00  9.000E+00
      21    -1     0     0   501   511  0.000000000E+00  0.000000000E+00 -4.861204663E+02  4.861204663E+02  0.000000000E+00  0.00000E+00  9.000E+00
      25     1     1     2     0     0  1.605386249E+02  1.402031471E+02 -6.880230146E+01  2.564923571E+02  1.250000000E+02  0.00000E+00  9.000E+00
      25     1     1     2     0     0 -2.150961214E+02 -2.107532667E+02  6.172850236E+01  3.318413609E+02  1.250000000E+02  0.00000E+00  9.000E+00
      21     1     1     2   502   511  5.455749643E+01  7.055011952E+01 -1.778631853E+02  1.989702301E+02  1.907348633E-06  0.00000E+00  9.000E+00
#rwgt            1           1   3.3033414418172709E-002           9      247493           0
</event>
<event>
      5   9999  3.79277E-02  1.83859E+01 -1.00000E+00  1.69442E-01
      21    -1     0     0   502   501  0.000000000E+00  0.000000000E+00  1.021991455E+03  1.021991455E+03  0.000000000E+00  0.00000E+00  9.000E+00
      21    -1     0     0   501   512  0.000000000E+00  0.000000000E+00 -4.954854907E+01  4.954854907E+01  0.000000000E+00  0.00000E+00  9.000E+00
      25     1     1     2     0     0 -6.378695886E+01 -4.985396412E+01  8.488043735E+02  8.617703048E+02  1.250000000E+02  0.00000E+00  9.000E+00
      25     1     1     2     0     0  4.812047571E+01  4.023090246E+01  1.293667630E+02  1.905121126E+02  1.250000000E+02  0.00000E+00  9.000E+00
      21     1     1     2   502   512  1.566648315E+01  9.623061660E+00 -5.728230653E+00  1.925758647E+01  8.215933294E-07  0.00000E+00  9.000E+00
#rwgt            1           1   4.8718904826470663E-002           9      247586           0
</event>
<event>
      5   9999  3.79277E-02  5.33412E+00 -1.00000E+00  2.33710E-01
      21    -1     0     0   502   501  0.000000000E+00  0.000000000E+00  1.767686975E+02  1.767686975E+02  0.000000000E+00  0.00000E+00  9.000E+00
      21    -1     0     0   501   511  0.000000000E+00  0.000000000E+00 -3.003038213E+02  3.003038213E+02  0.000000000E+00  0.00000E+00  9.000E+00
      25     1     1     2     0     0 -4.510666051E+01  1.115565675E+02 -1.855154038E+02  2.540087471E+02  1.250000000E+02  0.00000E+00  9.000E+00
      25     1     1     2     0     0  4.550268871E+01 -1.168759611E+02  8.713306692E+01  1.973516058E+02  1.250000000E+02  0.00000E+00  9.000E+00
      21     1     1     2   502   511 -3.960282041E-01  5.319393674E+00 -2.515278690E+01  2.571216592E+01  0.000000000E+00  0.00000E+00  9.000E+00
#rwgt            1           1   4.4089747787751751E-002           9      247776           0
</event>
<event>
      5   9999  3.79277E-02  1.58743E+01 -1.00000E+00  1.75097E-01
      21    -1     0     0   502   501  0.000000000E+00  0.000000000E+00  1.019089494E+03  1.019089494E+03  0.000000000E+00  0.00000E+00  9.000E+00
      21    -1     0     0   512   502  0.000000000E+00  0.000000000E+00 -1.721542514E+02  1.721542514E+02  0.000000000E+00  0.00000E+00  9.000E+00
      25     1     1     2     0     0 -2.132227437E+02 -2.464124441E+02  5.444851301E+02  6.467395828E+02  1.250000000E+02  0.00000E+00  9.000E+00
      25     1     1     2     0     0  2.029767488E+02  2.585373184E+02  3.489246603E+02  4.953933025E+02  1.250000000E+02  0.00000E+00  9.000E+00
      21     1     1     2   512   501  1.024599497E+01 -1.212487435E+01 -4.647454780E+01  4.911086015E+01  0.000000000E+00  0.00000E+00  9.000E+00
#rwgt            1           1   4.3644115656929376E-002           9      248346           0
</event>
<event>
      5   9999  3.79277E-02  2.71666E+01 -1.00000E+00  1.56094E-01
      21    -1     0     0   502   501  0.000000000E+00  0.000000000E+00  7.635237478E+01  7.635237478E+01  0.000000000E+00  0.00000E+00  9.000E+00
      21    -1     0     0   511   502  0.000000000E+00  0.000000000E+00 -6.656868406E+02  6.656868406E+02  0.000000000E+00  0.00000E+00  9.000E+00
      25     1     1     2     0     0  4.114937774E+01 -1.342452366E+02 -2.880387884E+02  3.439569718E+02  1.250000000E+02  0.00000E+00  9.000E+00
      25     1     1     2     0     0 -3.246324125E+01  1.085047173E+02 -1.023725339E+02  1.973126235E+02  1.250000000E+02  0.00000E+00  9.000E+00
      21     1     1     2   511   501 -8.686136486E+00  2.574051931E+01 -1.989231435E+02  2.007696200E+02  2.697398305E-06  0.00000E+00  9.000E+00
#rwgt            1           1   2.2094685962365034E-002           9      248637           0
</event>
<event>
      5   9999  3.79277E-02  1.25080E+02 -1.00000E+00  1.19609E-01
      21    -1     0     0   512   501  0.000000000E+00  0.000000000E+00  2.452562090E+02  2.452562090E+02  0.000000000E+00  0.00000E+00  9.000E+00
      21    -1     0     0   501   502  0.000000000E+00  0.000000000E+00 -5.898477811E+02  5.898477811E+02  0.000000000E+00  0.00000E+00  9.000E+00
      25     1     1     2     0     0 -8.699408558E+01  4.914748186E+01 -2.756786637E+01  1.623835988E+02  1.250000000E+02  0.00000E+00  9.000E+00
      25     1     1     2     0     0  3.079814182E+01 -1.608927501E+02 -4.470778991E+02  4.922790372E+02  1.250000000E+02  0.00000E+00  9.000E+00
      21     1     1     2   512   502  5.619594376E+01  1.117452682E+02  1.300541934E+02  1.804413541E+02  1.907348633E-06  0.00000E+00  9.000E+00
#rwgt            1           1   4.4997066838236184E-002           9      248741           0
</event>
<event>
      5   9999  3.79277E-02  9.81347E+00 -1.00000E+00  1.96707E-01
      21    -1     0     0   502   511  0.000000000E+00  0.000000000E+00  9.909826493E+01  9.909826493E+01  0.000000000E+00  0.00000E+00  9.000E+00
      21    -1     0     0   501   502  0.000000000E+00  0.000000000E+00 -6.079331899E+02  6.079331899E+02  0.000000000E+00  0.00000E+00  9.000E+00
      25     1     1     2     0     0  9.142664182E+01 -1.669319890E+02 -1.739499006E+02  2.865461354E+02  1.250000000E+02  0.00000E+00  9.000E+00
      25     1     1     2     0     0 -9.966668590E+01  1.722616977E+02 -3.365964853E+02  4.105237322E+02  1.250000000E+02  0.00000E+00  9.000E+00
      21     1     1     2   501   511  8.240044079E+00 -5.329708749E+00  1.711460957E+00  9.961587242E+00  1.444721179E-07  0.00000E+00  9.000E+00
#rwgt            1           1   4.0134866637809727E-002           9      248841           0
</event>
<event>
      5   9999  3.79277E-02  5.49644E+01 -1.00000E+00  1.36770E-01
      21    -1     0     0   512   501  0.000000000E+00  0.000000000E+00  3.100605754E+02  3.100605754E+02  0.000000000E+00  0.00000E+00  9.000E+00
      21    -1     0     0   501   502  0.000000000E+00  0.000000000E+00 -2.247513589E+02  2.247513589E+02  0.000000000E+00  0.00000E+00  9.000E+00
      25     1     1     2     0     0  1.011272049E+00 -1.191827248E+02  1.180038222E+02  2.091780261E+02  1.250000000E+02  0.00000E+00  9.000E+00
      25     1     1     2     0     0 -5.323877414E+01  1.363109906E+02 -1.168248602E+02  2.251401812E+02  1.250000000E+02  0.00000E+00  9.000E+00
      21     1     1     2   512   502  5.222750209E+01 -1.712826577E+01  8.413025443E+01  1.004937270E+02  9.536743164E-07  0.00000E+00  9.000E+00
#rwgt            1           1   3.2076026796461869E-002           9      249176           0
</event>
<event>
      5   9999  3.79277E-02  4.79921E+01 -1.00000E+00  1.40099E-01
      21    -1     0     0   502   501  0.000000000E+00  0.000000000E+00  4.331656744E+02  4.331656744E+02  0.000000000E+00  0.00000E+00  9.000E+00
      21    -1     0     0   511   502  0.000000000E+00  0.000000000E+00 -1.237983415E+02  1.237983415E+02  0.000000000E+00  0.00000E+00  9.000E+00
      25     1     1     2     0     0 -1.068257988E+02  6.721525578E+01  9.419865775E+01  2.010672251E+02  1.250000000E+02  0.00000E+00  9.000E+00
      25     1     1     2     0     0  1.514410146E+02 -8.489928628E+01  2.209608167E+02  3.075564212E+02  1.250000000E+02  0.00000E+00  9.000E+00
      21     1     1     2   511   501 -4.461521585E+01  1.768403049E+01 -5.792141508E+00  4.834036950E+01  8.840797528E-07  0.00000E+00  9.000E+00
#rwgt            1           1   3.7331818686418244E-002           9      249265           0
</event>
<event>
      5   9999  3.79277E-02  1.24301E+02 -1.00000E+00  1.19723E-01
      -3    -1     0     0     0   501  0.000000000E+00  0.000000000E+00  2.708710770E+02  2.708710770E+02  0.000000000E+00  0.00000E+00  9.000E+00
      21    -1     0     0   501   502  0.000000000E+00  0.000000000E+00 -4.756342013E+02  4.756342013E+02  0.000000000E+00  0.00000E+00  9.000E+00
      25     1     1     2     0     0 -1.764398977E+02 -5.112491611E+01 -3.304244789E+02  3.981835391E+02  1.250000000E+02  0.00000E+00  9.000E+00
      25     1     1     2     0     0  6.832917552E+01  1.124669907E+02  1.538143482E+01  1.821518289E+02  1.250000000E+02  0.00000E+00  9.000E+00
      -3     1     1     2     0   502  1.081107222E+02 -6.134207462E+01  1.102799198E+02  1.661699103E+02  3.303624740E-06  0.00000E+00  9.000E+00
#rwgt            1           1   4.0535220136069812E-002           9      249471           0
</event>
<event>
      5   9999  3.79277E-02  4.68828E+01 -1.00000E+00  1.40690E-01
      21    -1     0     0   502   501  0.000000000E+00  0.000000000E+00  2.149755464E+02  2.149755464E+02  0.000000000E+00  0.00000E+00  9.000E+00
      -2    -1     0     0     0   502  0.000000000E+00  0.000000000E+00 -4.101602074E+02  4.101602074E+02  0.000000000E+00  0.00000E+00  9.000E+00
      25     1     1     2     0     0  1.687604318E+02  1.104101180E+02  4.870936789E+01  2.422149459E+02  1.250000000E+02  0.00000E+00  9.000E+00
      25     1     1     2     0     0 -1.935801286E+02 -7.063601501E+01 -2.320462324E+02  3.345641445E+02  1.250000000E+02  0.00000E+00  9.000E+00
      -2     1     1     2     0   501  2.481969681E+01 -3.977410295E+01 -1.184779659E+01  4.835666344E+01  6.529361695E-07  0.00000E+00  9.000E+00
#rwgt            1           1   3.8675776270340370E-002           9      249568           0
</event>
<event>
      5   9999  3.79277E-02  1.77385E+01 -1.00000E+00  1.70787E-01
      21    -1     0     0   511   501  0.000000000E+00  0.000000000E+00  4.797456422E+02  4.797456422E+02  0.000000000E+00  0.00000E+00  9.000E+00
      21    -1     0     0   501   502  0.000000000E+00  0.000000000E+00 -1.094280511E+02  1.094280511E+02  0.000000000E+00  0.00000E+00  9.000E+00
      25     1     1     2     0     0 -1.727546826E+02  3.590162705E-01  2.011326575E+02  2.931273702E+02  1.250000000E+02  0.00000E+00  9.000E+00
      25     1     1     2     0     0  1.832444433E+02 -1.466354649E+01  1.426746158E+02  2.641488058E+02  1.250000000E+02  0.00000E+00  9.000E+00
      21     1     1     2   511   502 -1.048976078E+01  1.430453022E+01  2.651031782E+01  3.189751741E+01  4.768371582E-07  0.00000E+00  9.000E+00
#rwgt            1           1   3.8501222019617344E-002           9      249772           0
</event>
<event>
      5   9999  3.79277E-02  8.04541E+01 -1.00000E+00  1.28231E-01
      21    -1     0     0   502   501  0.000000000E+00  0.000000000E+00  5.503836394E+02  5.503836394E+02  0.000000000E+00  0.00000E+00  9.000E+00
       1    -1     0     0   501     0  0.000000000E+00  0.000000000E+00 -7.426077765E+02  7.426077765E+02  0.000000000E+00  0.00000E+00  9.000E+00
      25     1     1     2     0     0 -5.118747808E+01 -1.809595216E+02  2.918513815E+02  3.690104812E+02  1.250000000E+02  0.00000E+00  9.000E+00
      25     1     1     2     0     0 -2.101732969E+01  1.454724918E+02  1.747146027E+02  2.602963051E+02  1.250000000E+02  0.00000E+00  9.000E+00
       1     1     1     2   502     0  7.220480777E+01  3.548702976E+01 -6.587901214E+02  6.636846296E+02  1.078959322E-05  0.00000E+00  9.000E+00
#rwgt            1           1   4.2709379527539983E-002           9      249943           0
</event>
<event>
      5   9999  3.79277E-02  1.43815E+02 -1.00000E+00  1.17123E-01
      21    -1     0     0   502   511  0.000000000E+00  0.000000000E+00  1.231699832E+02  1.231699832E+02  0.000000000E+00  0.00000E+00  9.000E+00
      21    -1     0     0   501   502  0.000000000E+00  0.000000000E+00 -8.889773685E+02  8.889773685E+02  0.000000000E+00  0.00000E+00  9.000E+00
      25     1     1     2     0     0  6.691863697E+01  5.531067903E+00 -5.473879485E+02  5.654796751E+02  1.250000000E+02  0.00000E+00  9.000E+00
      25     1     1     2     0     0 -1.772566263E+02 -9.777216128E+01 -1.784440885E+02  2.973997307E+02  1.250000000E+02  0.00000E+00  9.000E+00
      21     1     1     2   501   511  1.103379894E+02  9.224109338E+01 -3.997534822E+01  1.492679459E+02  9.536743164E-07  0.00000E+00  9.000E+00
#rwgt            1           1   1.7788647442935571E-002           9      250016           0
</event>
<event>
      5   9999  3.79277E-02  9.89885E+01 -1.00000E+00  1.24027E-01
      21    -1     0     0   502   501  0.000000000E+00  0.000000000E+00  2.672208399E+03  2.672208399E+03  0.000000000E+00  0.00000E+00  9.000E+00
       4    -1     0     0   501     0  0.000000000E+00  0.000000000E+00 -9.896773280E+01  9.896773280E+01  0.000000000E+00  0.00000E+00  9.000E+00
      25     1     1     2     0     0  2.884878545E+02 -1.294640938E+02  7.402788944E+02  8.146312266E+02  1.250000000E+02  0.00000E+00  9.000E+00
      25     1     1     2     0     0 -3.752722883E+02  8.184920677E+01  1.810539116E+03  1.855048645E+03  1.250000000E+02  0.00000E+00  9.000E+00
       4     1     1     2   502     0  8.678443378E+01  4.761488702E+01  2.242265557E+01  1.014962605E+02  2.261837239E-06  0.00000E+00  9.000E+00
#rwgt            1           1  0.10281728355561172                9      250077           0
</event>
<event>
      5   9999  3.79277E-02  1.00463E+02 -1.00000E+00  1.23738E-01
      21    -1     0     0   511   501  0.000000000E+00  0.000000000E+00  1.023277963E+03  1.023277963E+03  0.000000000E+00  0.00000E+00  9.000E+00
      21    -1     0     0   501   502  0.000000000E+00  0.000000000E+00 -7.617636847E+01  7.617636847E+01  0.000000000E+00  0.00000E+00  9.000E+00
      25     1     1     2     0     0 -7.271436138E+01 -1.744464033E+02  2.383207052E+02  3.288475095E+02  1.250000000E+02  0.00000E+00  9.000E+00
      25     1     1     2     0     0  1.267140832E+02  8.973052062E+01  4.212554106E+02  4.660355633E+02  1.250000000E+02  0.00000E+00  9.000E+00
      21     1     1     2   511   502 -5.399972186E+01  8.471588271E+01  2.875254790E+02  3.045712591E+02  0.000000000E+00  0.00000E+00  9.000E+00
#rwgt            1           1   2.2582964963452971E-002           9      250203           0
</event>
<event>
      5   9999  3.79277E-02  4.71827E+01 -1.00000E+00  1.40528E-01
      21    -1     0     0   502   501  0.000000000E+00  0.000000000E+00  4.321627941E+02  4.321627941E+02  0.000000000E+00  0.00000E+00  9.000E+00
      21    -1     0     0   512   502  0.000000000E+00  0.000000000E+00 -1.338749815E+02  1.338749815E+02  0.000000000E+00  0.00000E+00  9.000E+00
      25     1     1     2     0     0 -4.456146107E+01  8.601084900E+01  2.858986986E+02  3.267210673E+02  1.250000000E+02  0.00000E+00  9.000E+00
      25     1     1     2     0     0  4.460255793E+01 -1.331935019E+02 -7.347351916E+00  1.881724759E+02  1.250000000E+02  0.00000E+00  9.000E+00
      21     1     1     2   512   501 -4.109686216E-02  4.718265287E+01  1.973646586E+01  5.114423238E+01  5.840038640E-07  0.00000E+00  9.000E+00
#rwgt            1           1   3.8177480510497325E-002           9      250455           0
</event>
<event>
      5   9999  3.79277E-02  9.15462E+01 -1.00000E+00  1.25578E-01
      21    -1     0     0   502   501  0.000000000E+00  0.000000000E+00  1.196240416E+03  1.196240416E+03  0.000000000E+00  0.00000E+00  9.000E+00
      21    -1     0     0   501   511  0.000000000E+00  0.000000000E+00 -1.225383052E+02  1.225383052E+02  0.000000000E+00  0.00000E+00  9.000E+00
      25     1     1     2     0     0 -1.177794748E+02  3.000491953E+02  5.564226117E+02  6.550821682E+02  1.250000000E+02  0.00000E+00  9.000E+00
      25     1     1     2     0     0  4.364022835E+01 -2.463456214E+02  4.964579683E+02  5.698123805E+02  1.250000000E+02  0.00000E+00  9.000E+00
      21     1     1     2   502   511  7.413924646E+01 -5.370357395E+01  2.082153104E+01  9.388417266E+01  1.168007728E-06  0.00000E+00  9.000E+00
#rwgt            1           1   4.3791397186655284E-002           9      250552           0
</event>
<event>
      5   9999  3.79277E-02  3.55650E+01 -1.00000E+00  1.48078E-01
      21    -1     0     0   502   501  0.000000000E+00  0.000000000E+00  1.649457898E+02  1.649457898E+02  0.000000000E+00  0.00000E+00  9.000E+00
      21    -1     0     0   512   502  0.000000000E+00  0.000000000E+00 -6.731436567E+02  6.731436567E+02  0.000000000E+00  0.00000E+00  9.000E+00
      25     1     1     2     0     0  1.761324263E+02 -3.331818982E+01 -2.425994709E+01  2.198778715E+02  1.250000000E+02  0.00000E+00  9.000E+00
      25     1     1     2     0     0 -1.845050828E+02 -1.247182013E+00 -1.211124790E+02  2.536472228E+02  1.250000000E+02  0.00000E+00  9.000E+00
      21     1     1     2   512   501  8.372656558E+00  3.456537183E+01 -3.628254409E+02  3.645643521E+02  5.394796609E-06  0.00000E+00  9.000E+00
#rwgt            1           1   3.5855963021930289E-002           9      250703           0
</event>
<event>
      5   9999  3.79277E-02  1.98822E+01 -1.00000E+00  1.66581E-01
      21    -1     0     0   502   501  0.000000000E+00  0.000000000E+00  1.685447532E+02  1.685447532E+02  0.000000000E+00  0.00000E+00  9.000E+00
      21    -1     0     0   501   511  0.000000000E+00  0.000000000E+00 -2.355861407E+02  2.355861407E+02  0.000000000E+00  0.00000E+00  9.000E+00
      25     1     1     2     0     0  8.259520463E+01  4.785498125E-01  8.270569440E+01  1.711357027E+02  1.250000000E+02  0.00000E+00  9.000E+00
      25     1     1     2     0     0 -9.200542949E+01 -1.799276697E+01 -1.191058028E+02  1.964686514E+02  1.250000000E+02  0.00000E+00  9.000E+00
      21     1     1     2   502   511  9.410224866E+00  1.751421716E+01 -3.064127905E+01  3.652653989E+01  6.743495762E-07  0.00000E+00  9.000E+00
#rwgt            1           1   3.6605292491172683E-002           9      250817           0
</event>
<event>
      5   9999  3.79277E-02  2.10736E+01 -1.00000E+00  1.64517E-01
      21    -1     0     0   502   512  0.000000000E+00  0.000000000E+00  1.040670700E+03  1.040670700E+03  0.000000000E+00  0.00000E+00  9.000E+00
      21    -1     0     0   501   502  0.000000000E+00  0.000000000E+00 -1.845195645E+02  1.845195645E+02  0.000000000E+00  0.00000E+00  9.000E+00
      25     1     1     2     0     0 -1.391680108E+02 -1.729145124E+02  5.391236169E+02  5.962771487E+02  1.250000000E+02  0.00000E+00  9.000E+00
      25     1     1     2     0     0  1.574952079E+02  1.625120036E+02 -4.827555181E+01  2.630027010E+02  1.250000000E+02  0.00000E+00  9.000E+00
      21     1     1     2   501   512 -1.832719705E+01  1.040250879E+01  3.653030703E+02  3.659104146E+02  0.000000000E+00  0.00000E+00  9.000E+00
#rwgt            1           1   3.1552102887239780E-002           9      251005           0
</event>
<event>
      5   9999  3.79277E-02  7.36723E+01 -1.00000E+00  1.30106E-01
      21    -1     0     0   502   501  0.000000000E+00  0.000000000E+00  5.086920746E+02  5.086920746E+02  0.000000000E+00  0.00000E+00  9.000E+00
      21    -1     0     0   501   511  0.000000000E+00  0.000000000E+00 -2.244293111E+02  2.244293111E+02  0.000000000E+00  0.00000E+00  9.000E+00
      25     1     1     2     0     0 -1.295404993E+02 -1.273450944E+02 -5.060320549E+01  2.262370404E+02  1.250000000E+02  0.00000E+00  9.000E+00
      25     1     1     2     0     0  1.797420123E+02  1.812655069E+02  3.262671750E+02  4.327119648E+02  1.250000000E+02  0.00000E+00  9.000E+00
      21     1     1     2   502   511 -5.020151295E+01 -5.392041250E+01  8.598794012E+00  7.417238061E+01  1.305872339E-06  0.00000E+00  9.000E+00
#rwgt            1           1  0.10037020231579177                9      251219           0
</event>
<event>
      5   9999 -3.79277E-02  6.47718E+01 -1.00000E+00  1.32951E-01
      21    -1     0     0   502   512  0.000000000E+00  0.000000000E+00  6.711138260E+02  6.711138260E+02  0.000000000E+00  0.00000E+00  9.000E+00
      21    -1     0     0   501   502  0.000000000E+00  0.000000000E+00 -1.089904640E+02  1.089904640E+02  0.000000000E+00  0.00000E+00  9.000E+00
      25     1     1     2     0     0 -2.448083248E+01  1.582474123E+02  2.813716274E+02  3.470396914E+02  1.250000000E+02  0.00000E+00  9.000E+00
      25     1     1     2     0     0  5.504873760E+01 -2.153524657E+02  1.758117918E+02  3.097447887E+02  1.250000000E+02  0.00000E+00  9.000E+00
      21     1     1     2   501   512 -3.056790512E+01  5.710505340E+01  1.049399428E+02  1.233198100E+02  0.000000000E+00  0.00000E+00  9.000E+00
#rwgt            1           1  -4.7299406481862559E-002           9      251307           0
</event>
<event>
      5   9999  3.79277E-02  1.40531E+01 -1.00000E+00  1.80094E-01
      21    -1     0     0   502   511  0.000000000E+00  0.000000000E+00  2.283742901E+02  2.283742901E+02  0.000000000E+00  0.00000E+00  9.000E+00
      21    -1     0     0   501   502  0.000000000E+00  0.000000000E+00 -2.156492993E+02  2.156492993E+02  0.000000000E+00  0.00000E+00  9.000E+00
      25     1     1     2     0     0  1.428197695E+02  6.629543376E+01  8.168517396E+01  2.170023934E+02  1.250000000E+02  0.00000E+00  9.000E+00
      25     1     1     2     0     0 -1.293810480E+02 -6.218560423E+01 -8.254691791E+01  2.074740914E+02  1.250000000E+02  0.00000E+00  9.000E+00
      21     1     1     2   501   511 -1.343872159E+01 -4.109829525E+00  1.358673474E+01  1.954710458E+01  0.000000000E+00  0.00000E+00  9.000E+00
#rwgt            1           1   4.1240856423423858E-002           9      251429           0
</event>
<event>
      5   9999 -3.79277E-02  6.56891E+01 -1.00000E+00  1.32634E-01
      21    -1     0     0   502   501  0.000000000E+00  0.000000000E+00  4.990266645E+02  4.990266645E+02  0.000000000E+00  0.00000E+00  9.000E+00
      21    -1     0     0   501   512  0.000000000E+00  0.000000000E+00 -3.054838124E+02  3.054838124E+02  0.000000000E+00  0.00000E+00  9.000E+00
      25     1     1     2     0     0 -2.426517307E+02 -8.310250052E+01  9.842119393E+01  3.018238218E+02  1.250000000E+02  0.00000E+00  9.000E+00
      25     1     1     2     0     0  1.824024549E+02  1.092764840E+02  2.396672856E+02  3.439148343E+02  1.250000000E+02  0.00000E+00  9.000E+00
      21     1     1     2   502   512  6.024927582E+01 -2.617398346E+01 -1.445456274E+02  1.587718207E+02  2.697398305E-06  0.00000E+00  9.000E+00
#rwgt            1           1  -3.7279595420792302E-002           9      251764           0
</event>
<event>
      5   9999  3.79277E-02  8.73035E+01 -1.00000E+00  1.26540E-01
      21    -1     0     0   511   501  0.000000000E+00  0.000000000E+00  1.513093633E+03  1.513093633E+03  0.000000000E+00  0.00000E+00  9.000E+00
      21    -1     0     0   501   502  0.000000000E+00  0.000000000E+00 -1.096959566E+02  1.096959566E+02  0.000000000E+00  0.00000E+00  9.000E+00
      25     1     1     2     0     0 -2.975910562E+01 -1.918207018E+02  1.375578806E+02  2.687525935E+02  1.250000000E+02  0.00000E+00  9.000E+00
      25     1     1     2     0     0  1.093320419E+02  1.559034185E+02  2.651886492E+02  3.495845977E+02  1.250000000E+02  0.00000E+00  9.000E+00
      21     1     1     2   511   502 -7.957293627E+01  3.591728334E+01  1.000651146E+03  1.004452398E+03  1.868812365E-05  0.00000E+00  9.000E+00
#rwgt            1           1   3.6677724647828008E-002           9      251903           0
</event>
<event>
      5   9999  3.79277E-02  2.73621E+01 -1.00000E+00  1.55869E-01
      21    -1     0     0   502   512  0.000000000E+00  0.000000000E+00  3.825241515E+02  3.825241515E+02  0.000000000E+00  0.00000E+00  9.000E+00
      21    -1     0     0   501   502  0.000000000E+00  0.000000000E+00 -4.185238873E+02  4.185238873E+02  0.000000000E+00  0.00000E+00  9.000E+00
      25     1     1     2     0     0  1.242689725E+02 -1.087950487E+02 -1.424572672E+02  2.513925479E+02  1.250000000E+02  0.00000E+00  9.000E+00
      25     1     1     2     0     0 -1.145176024E+02  8.322955621E+01 -1.805923304E+02  2.613044777E+02  1.250000000E+02  0.00000E+00  9.000E+00
      21     1     1     2   501   512 -9.751370086E+00  2.556549249E+01  2.870498618E+02  2.883510132E+02  6.607249480E-06  0.00000E+00  9.000E+00
#rwgt            1           1   3.6943714343172326E-002           9      252174           0
</event>
<event>
      5   9999  3.79277E-02  1.75997E+02 -1.00000E+00  1.13707E-01
      21    -1     0     0   502   511  0.000000000E+00  0.000000000E+00  5.697031225E+02  5.697031225E+02  0.000000000E+00  0.00000E+00  9.000E+00
      21    -1     0     0   501   502  0.000000000E+00  0.000000000E+00 -1.670899661E+02  1.670899661E+02  0.000000000E+00  0.00000E+00  9.000E+00
      25     1     1     2     0     0 -1.457573550E+02  1.813500023E+02  9.882761719E+01  2.820016450E+02  1.250000000E+02  0.00000E+00  9.000E+00
      25     1     1     2     0     0  1.018228026E+02 -1.092489549E+01  1.616483429E+02  2.285660150E+02  1.250000000E+02  0.00000E+00  9.000E+00
      21     1     1     2   501   511  4.393455241E+01 -1.704251068E+02  1.421371963E+02  2.262254285E+02  3.814697266E-06  0.00000E+00  9.000E+00
#rwgt            1           1  0.13186238022827632                9      252308           0
</event>
<event>
      5   9999  3.79277E-02  3.73011E+01 -1.00000E+00  1.46747E-01
      21    -1     0     0   512   501  0.000000000E+00  0.000000000E+00  9.867055641E+01  9.867055641E+01  0.000000000E+00  0.00000E+00  9.000E+00
      21    -1     0     0   501   502  0.000000000E+00  0.000000000E+00 -5.756843345E+02  5.756843345E+02  0.000000000E+00  0.00000E+00  9.000E+00
      25     1     1     2     0     0 -9.662161827E+01 -1.715237050E+02 -2.493519022E+02  3.414051692E+02  1.250000000E+02  0.00000E+00  9.000E+00
      25     1     1     2     0     0  8.055469714E+01  1.378603153E+02 -2.091306406E+02  2.912990741E+02  1.250000000E+02  0.00000E+00  9.000E+00
      21     1     1     2   512   502  1.606692113E+01  3.366338964E+01 -1.853123539E+01  4.165064756E+01  6.307962682E-07  0.00000E+00  9.000E+00
#rwgt            2          11   2.7738585272942778E-003           9      252383           0
</event>
<event>
      5   9999 -3.79277E-02  8.21169E+01 -1.00000E+00  1.27803E-01
      21    -1     0     0   502   501  0.000000000E+00  0.000000000E+00  1.695271858E+02  1.695271858E+02  0.000000000E+00  0.00000E+00  9.000E+00
       2    -1     0     0   501     0  0.000000000E+00  0.000000000E+00 -3.852012456E+03  3.852012456E+03  0.000000000E+00  0.00000E+00  9.000E+00
      25     1     1     2     0     0 -1.932160750E+02 -7.911390537E+01 -6.135755246E+01  2.509605764E+02  1.250000000E+02  0.00000E+00  9.000E+00
      25     1     1     2     0     0  1.526115291E+02  7.738396955E+00 -5.697189028E+01  2.054773902E+02  1.250000000E+02  0.00000E+00  9.000E+00
       2     1     1     2   502     0  4.060454590E+01  7.137550841E+01 -3.564155828E+03  3.565101675E+03  7.475249459E-05  0.00000E+00  9.000E+00
#rwgt            1           1 -0.30907944054443437                9      252403           0
</event>
<event>
      5   9999  3.79277E-02  1.71170E+01 -1.00000E+00  1.72147E-01
      21    -1     0     0   502   511  0.000000000E+00  0.000000000E+00  4.999327421E+02  4.999327421E+02  0.000000000E+00  0.00000E+00  9.000E+00
      21    -1     0     0   501   502  0.000000000E+00  0.000000000E+00 -1.475147472E+02  1.475147472E+02  0.000000000E+00  0.00000E+00  9.000E+00
      25     1     1     2     0     0 -4.179483072E+01 -6.670972193E+00  3.448572069E+02  3.692462632E+02  1.250000000E+02  0.00000E+00  9.000E+00
      25     1     1     2     0     0  5.774229344E+01  4.523807652E-01 -9.943611805E+01  1.698438067E+02  1.250000000E+02  0.00000E+00  9.000E+00
      21     1     1     2   501   511 -1.594746271E+01  6.218591428E+00  1.069969061E+02  1.083574195E+02  2.336015456E-06  0.00000E+00  9.000E+00
#rwgt            1           1   4.5205152939870874E-002           9      252606           0
</event>
<event>
      5   9999  3.79277E-02  7.06096E+01 -1.00000E+00  1.31030E-01
      21    -1     0     0   512   501  0.000000000E+00  0.000000000E+00  1.872088579E+02  1.872088579E+02  0.000000000E+00  0.00000E+00  9.000E+00
      21    -1     0     0   501   502  0.000000000E+00  0.000000000E+00 -3.377472470E+02  3.377472470E+02  0.000000000E+00  0.00000E+00  9.000E+00
      25     1     1     2     0     0  3.262252796E+00 -1.409876638E+02 -1.312907069E+02  2.296745814E+02  1.250000000E+02  0.00000E+00  9.000E+00
      25     1     1     2     0     0 -7.331795269E+01  1.498145976E+02 -5.579650461E+01  2.157734594E+02  1.250000000E+02  0.00000E+00  9.000E+00
      21     1     1     2   512   502  7.005569989E+01 -8.826933796E+00  3.654882237E+01  7.950806414E+01  1.846782373E-06  0.00000E+00  9.000E+00
#rwgt            1           1   4.0842659306569593E-002           9      252790           0
</event>
<event>
      5   9999  3.79277E-02  3.72682E+01 -1.00000E+00  1.46772E-01
      21    -1     0     0   502   501  0.000000000E+00  0.000000000E+00  5.672989398E+02  5.672989398E+02  0.000000000E+00  0.00000E+00  9.000E+00
       2    -1     0     0   501     0  0.000000000E+00  0.000000000E+00 -1.142915067E+03  1.142915067E+03  0.000000000E+00  0.00000E+00  9.000E+00
      25     1     1     2     0     0 -4.741106226E+01  1.014108774E+02  4.830667145E+02  5.113809007E+02  1.250000000E+02  0.00000E+00  9.000E+00
      25     1     1     2     0     0  5.455979857E+01 -6.483471159E+01 -1.200360132E+01  1.514905868E+02  1.250000000E+02  0.00000E+00  9.000E+00
       2     1     1     2   502     0 -7.148736312E+00 -3.657616582E+01 -1.046679241E+03  1.047342519E+03  1.525878906E-05  0.00000E+00  9.000E+00
#rwgt            1           1   2.1917247122549999E-002           9      252868           0
</event>
<event>
      5   9999  3.79277E-02  1.71905E+01 -1.00000E+00  1.71982E-01
      21    -1     0     0   511   501  0.000000000E+00  0.000000000E+00  5.703587249E+01  5.703587249E+01  0.000000000E+00  0.00000E+00  9.000E+00
      21    -1     0     0   501   502  0.000000000E+00  0.000000000E+00 -1.389691898E+03  1.389691898E+03  0.000000000E+00  0.00000E+00  9.000E+00
      25     1     1     2     0     0  9.568774974E+01 -1.956803017E+02 -4.268749463E+02  4.952717897E+02  1.250000000E+02  0.00000E+00  9.000E+00
      25     1     1     2     0     0 -9.604980052E+01  2.128669912E+02 -8.882457284E+02  9.268998835E+02  1.250000000E+02  0.00000E+00  9.000E+00
      21     1     1     2   511   502  3.620507792E-01 -1.718668948E+01 -1.753535034E+01  2.455609675E+01  3.371747881E-07  0.00000E+00  9.000E+00
#rwgt            1           1   4.0542885192921499E-002           9      252965           0
</event>
<event>
      5   9999  3.79277E-02  4.53727E+01 -1.00000E+00  1.41525E-01
       2    -1     0     0   502     0  0.000000000E+00  0.000000000E+00  8.896524438E+02  8.896524438E+02  0.000000000E+00  0.00000E+00  9.000E+00
      21    -1     0     0   501   502  0.000000000E+00  0.000000000E+00 -5.971147699E+02  5.971147699E+02  0.000000000E+00  0.00000E+00  9.000E+00
      25     1     1     2     0     0 -9.427815194E+01  1.995509290E+01 -1.802145485E+02  2.395597194E+02  1.250000000E+02  0.00000E+00  9.000E+00
      25     1     1     2     0     0  1.252192837E+02 -5.314132293E+01 -3.645442869E+02  4.086825251E+02  1.250000000E+02  0.00000E+00  9.000E+00
       2     1     1     2   501     0 -3.094113173E+01  3.318623003E+01  8.372965093E+02  8.385249692E+02  0.000000000E+00  0.00000E+00  9.000E+00
#rwgt            1           1   5.2339512291431384E-002           9      253217           0
</event>
<event>
      5   9999  3.79277E-02  9.82028E+01 -1.00000E+00  1.24183E-01
      21    -1     0     0   502   511  0.000000000E+00  0.000000000E+00  4.385721960E+02  4.385721960E+02  0.000000000E+00  0.00000E+00  9.000E+00
      21    -1     0     0   501   502  0.000000000E+00  0.000000000E+00 -2.498231886E+02  2.498231886E+02  0.000000000E+00  0.00000E+00  9.000E+00
      25     1     1     2     0     0  1.339845044E+02  5.464655446E+01  7.511450330E+01  2.054392415E+02  1.250000000E+02  0.00000E+00  9.000E+00
      25     1     1     2     0     0 -5.346901507E+01  1.576625387E+00 -1.495078262E+02  2.020866433E+02  1.250000000E+02  0.00000E+00  9.000E+00
      21     1     1     2   501   511 -8.051548934E+01 -5.622317984E+01  2.631423303E+02  2.808694999E+02  3.814697266E-06  0.00000E+00  9.000E+00
#rwgt            1           1   4.6191885859989283E-002           9      253286           0
</event>
<event>
      5   9999  3.79277E-02  2.18661E+01 -1.00000E+00  1.63235E-01
      21    -1     0     0   502   501  0.000000000E+00  0.000000000E+00  1.682766322E+03  1.682766322E+03  0.000000000E+00  0.00000E+00  9.000E+00
       2    -1     0     0   501     0  0.000000000E+00  0.000000000E+00 -4.399804426E+02  4.399804426E+02  0.000000000E+00  0.00000E+00  9.000E+00
      25     1     1     2     0     0 -1.348755180E+02 -2.037369990E+02  1.046050552E+03  1.081455930E+03  1.250000000E+02  0.00000E+00  9.000E+00
      25     1     1     2     0     0  1.563296285E+02  1.995126089E+02  5.864339337E+02  6.509792565E+02  1.250000000E+02  0.00000E+00  9.000E+00
       2     1     1     2   502     0 -2.145411051E+01  4.224390081E+00 -3.896986064E+02  3.903115783E+02  5.394796609E-06  0.00000E+00  9.000E+00
#rwgt            1           1   4.0759285666198360E-002           9      253427           0
</event>
<event>
      5   9999  3.79277E-02  5.22107E+01 -1.00000E+00  1.38012E-01
      21    -1     0     0   511   501  0.000000000E+00  0.000000000E+00  2.298374614E+02  2.298374614E+02  0.000000000E+00  0.00000E+00  9.000E+00
      21    -1     0     0   501   502  0.000000000E+00  0.000000000E+00 -3.810244674E+02  3.810244674E+02  0.000000000E+00  0.00000E+00  9.000E+00
      25     1     1     2     0     0 -1.826239108E+02 -3.801395295E+01  1.943694451E+01  2.253871075E+02  1.250000000E+02  0.00000E+00  9.000E+00
      25     1     1     2     0     0  2.105049283E+02 -6.129067863E+00 -2.079647831E+02  3.212852958E+02  1.250000000E+02  0.00000E+00  9.000E+00
      21     1     1     2   511   502 -2.788101750E+01  4.414302081E+01  3.734083256E+01  6.418952562E+01  0.000000000E+00  0.00000E+00  9.000E+00
#rwgt            1           1   3.5138464136302290E-002           9      253619           0
</event>
<event>
      5   9999  3.79277E-02  4.22693E+01 -1.00000E+00  1.43369E-01
      21    -1     0     0   502   501  0.000000000E+00  0.000000000E+00  1.249683529E+02  1.249683529E+02  0.000000000E+00  0.00000E+00  9.000E+00
      21    -1     0     0   512   502  0.000000000E+00  0.000000000E+00 -4.937223573E+02  4.937223573E+02  0.000000000E+00  0.00000E+00  9.000E+00
      25     1     1     2     0     0  1.935787006E+02  8.646792091E+00 -1.133055746E+02  2.569253463E+02  1.250000000E+02  0.00000E+00  9.000E+00
      25     1     1     2     0     0 -1.682809027E+02 -4.250999101E+01 -2.128472420E+02  3.017523985E+02  1.250000000E+02  0.00000E+00  9.000E+00
      21     1     1     2   512   501 -2.529779792E+01  3.386319892E+01 -4.260118780E+01  6.001296545E+01  6.743495762E-07  0.00000E+00  9.000E+00
#rwgt            1           1   3.6468233157376705E-002           9      253796           0
</event>
<event>
      5   9999  3.79277E-02  1.11438E+02 -1.00000E+00  1.21749E-01
      21    -1     0     0   502   501  0.000000000E+00  0.000000000E+00  5.291472795E+02  5.291472795E+02  0.000000000E+00  0.00000E+00  9.000E+00
      21    -1     0     0   511   502  0.000000000E+00  0.000000000E+00 -2.321674679E+02  2.321674679E+02  0.000000000E+00  0.00000E+00  9.000E+00
      25     1     1     2     0     0 -1.597044627E+02 -6.544273549E+01  3.244333467E+02  3.881626766E+02  1.250000000E+02  0.00000E+00  9.000E+00
      25     1     1     2     0     0  6.414988738E+01  1.227824997E+02  9.348556151E+01  2.086990668E+02  1.250000000E+02  0.00000E+00  9.000E+00
      21     1     1     2   511   501  9.555457533E+01 -5.733976422E+01 -1.209390966E+02  1.644530039E+02  2.697398305E-06  0.00000E+00  9.000E+00
#rwgt            1           1   2.8117015377034118E-002           9      253924           0
</event>
<event>
      5   9999  3.79277E-02  9.55283E+01 -1.00000E+00  1.24728E-01
      21    -1     0     0   512   501  0.000000000E+00  0.000000000E+00  6.339844531E+02  6.339844531E+02  0.000000000E+00  0.00000E+00  9.000E+00
      21    -1     0     0   501   502  0.000000000E+00  0.000000000E+00 -1.024612738E+02  1.024612738E+02  0.000000000E+00  0.00000E+00  9.000E+00
      25     1     1     2     0     0  1.035933033E+02  3.322160937E+01  2.723533201E+02  3.188049228E+02  1.250000000E+02  0.00000E+00  9.000E+00
      25     1     1     2     0     0 -1.361325363E+02 -1.230372931E+02  1.310131944E+02  2.577977891E+02  1.250000000E+02  0.00000E+00  9.000E+00
      21     1     1     2   512   502  3.253923300E+01  8.981568372E+01  1.281566648E+02  1.598430151E+02  1.907348633E-06  0.00000E+00  9.000E+00
#rwgt            1           1   3.7479100764556246E-002           9      254020           0
</event>
<event>
      5   9999  3.79277E-02  1.45742E+01 -1.00000E+00  1.78570E-01
      21    -1     0     0   502   511  0.000000000E+00  0.000000000E+00  1.030521449E+02  1.030521449E+02  0.000000000E+00  0.00000E+00  9.000E+00
      21    -1     0     0   501   502  0.000000000E+00  0.000000000E+00 -8.538274243E+02  8.538274243E+02  0.000000000E+00  0.00000E+00  9.000E+00
      25     1     1     2     0     0  5.917295713E+01  1.911407104E+02 -1.032190621E+02  2.575177369E+02  1.250000000E+02  0.00000E+00  9.000E+00
      25     1     1     2     0     0 -7.262736288E+01 -1.967431750E+02 -6.342845069E+02  6.796502383E+02  1.250000000E+02  0.00000E+00  9.000E+00
      21     1     1     2   501   511  1.345440575E+01  5.602464566E+00 -1.327171040E+01  1.971159405E+01  4.129530925E-07  0.00000E+00  9.000E+00
#rwgt            2          11   5.8972598220154264E-003           9      254067           0
</event>
<event>
      5   9999  3.79277E-02  8.16763E+01 -1.00000E+00  1.27915E-01
      21    -1     0     0   502   512  0.000000000E+00  0.000000000E+00  1.395571369E+02  1.395571369E+02  0.000000000E+00  0.00000E+00  9.000E+00
      21    -1     0     0   501   502  0.000000000E+00  0.000000000E+00 -1.629788688E+03  1.629788688E+03  0.000000000E+00  0.00000E+00  9.000E+00
      25     1     1     2     0     0 -1.099707031E+02 -6.148023403E+01 -1.069716325E+03  1.084339150E+03  1.250000000E+02  0.00000E+00  9.000E+00
      25     1     1     2     0     0  1.630167465E+02 -6.255912897E-01 -5.183428998E+02  5.575654337E+02  1.250000000E+02  0.00000E+00  9.000E+00
      21     1     1     2   501   512 -5.304604346E+01  6.210582532E+01  9.782767401E+01  1.274412416E+02  4.672030912E-06  0.00000E+00  9.000E+00
#rwgt            1           1   4.4537244002575596E-002           9      254207           0
</event>
<event>
      5   9999  3.79277E-02  1.03864E+02 -1.00000E+00  1.23092E-01
      21    -1     0     0   502   501  0.000000000E+00  0.000000000E+00  4.368350572E+02  4.368350572E+02  0.000000000E+00  0.00000E+00  9.000E+00
      21    -1     0     0   511   502  0.000000000E+00  0.000000000E+00 -1.968553378E+02  1.968553378E+02  0.000000000E+00  0.00000E+00  9.000E+00
      25     1     1     2     0     0  1.421174816E+01  9.260131363E+01 -7.653387418E+01  1.739523238E+02  1.250000000E+02  0.00000E+00  9.000E+00
      25     1     1     2     0     0 -1.584935403E+01  1.124999675E+01  3.314826952E+02  3.548007070E+02  1.250000000E+02  0.00000E+00  9.000E+00
      21     1     1     2   511   501  1.637605871E+00 -1.038513104E+02 -1.496910163E+01  1.049373643E+02  2.044013524E-06  0.00000E+00  9.000E+00
#rwgt            1           1   4.2483945042504606E-002           9      254383           0
</event>
<event>
      5   9999  3.79277E-02  5.13454E+01 -1.00000E+00  1.38421E-01
      21    -1     0     0   502   501  0.000000000E+00  0.000000000E+00  3.002501771E+02  3.002501771E+02  0.000000000E+00  0.00000E+00  9.000E+00
       1    -1     0     0   501     0  0.000000000E+00  0.000000000E+00 -1.476014859E+03  1.476014859E+03  0.000000000E+00  0.00000E+00  9.000E+00
      25     1     1     2     0     0 -1.163345026E+02 -3.167040572E+01 -1.975342742E+02  2.630238023E+02  1.250000000E+02  0.00000E+00  9.000E+00
      25     1     1     2     0     0  7.801037279E+01  6.584065839E+01  2.425753711E+02  2.913561759E+02  1.250000000E+02  0.00000E+00  9.000E+00
       1     1     1     2   502     0  3.832412977E+01 -3.417025267E+01 -1.220805779E+03  1.221885058E+03  0.000000000E+00  0.00000E+00  9.000E+00
#rwgt            1           1   4.8411554881505683E-002           9      254768           0
</event>
<event>
      5   9999  3.79277E-02  2.35023E+01 -1.00000E+00  1.60787E-01
      21    -1     0     0   511   501  0.000000000E+00  0.000000000E+00  1.257581682E+02  1.257581682E+02  0.000000000E+00  0.00000E+00  9.000E+00
      21    -1     0     0   501   502  0.000000000E+00  0.000000000E+00 -2.373883623E+02  2.373883623E+02  0.000000000E+00  0.00000E+00  9.000E+00
      25     1     1     2     0     0 -7.080622782E+01  2.504677178E+01  1.192479719E+01  1.463149461E+02  1.250000000E+02  0.00000E+00  9.000E+00
      25     1     1     2     0     0  8.375664605E+01 -5.434351315E+00 -1.210595853E+02  1.931971302E+02  1.250000000E+02  0.00000E+00  9.000E+00
      21     1     1     2   511   502 -1.295041823E+01 -1.961242046E+01 -2.495405980E+00  2.363445408E+01  4.986882368E-07  0.00000E+00  9.000E+00
#rwgt            1           1   4.6025891803207361E-002           9      254885           0
</event>
<event>
      5   9999  3.79277E-02  4.15753E+01 -1.00000E+00  1.43807E-01
      21    -1     0     0   502   512  0.000000000E+00  0.000000000E+00  7.736833513E+02  7.736833513E+02  0.000000000E+00  0.00000E+00  9.000E+00
      21    -1     0     0   501   502  0.000000000E+00  0.000000000E+00 -6.117809809E+01  6.117809809E+01  0.000000000E+00  0.00000E+00  9.000E+00
      25     1     1     2     0     0 -5.377688221E+01 -7.554930063E+01  1.089420061E+02  1.899816059E+02  1.250000000E+02  0.00000E+00  9.000E+00
      25     1     1     2     0     0  7.628446807E+01  1.105051393E+02  5.226150293E+02  5.538792059E+02  1.250000000E+02  0.00000E+00  9.000E+00
      21     1     1     2   501   512 -2.250758586E+01 -3.495583866E+01  8.094821778E+01  9.100063758E+01  1.651812370E-06  0.00000E+00  9.000E+00
#rwgt            1           1   3.4522336312084151E-002           9      255054           0
</event>
<event>
      5   9999  3.79277E-02  1.62483E+02 -1.00000E+00  1.15034E-01
      21    -1     0     0   511   501  0.000000000E+00  0.000000000E+00  1.867602039E+03  1.867602039E+03  0.000000000E+00  0.00000E+00  9.000E+00
      21    -1     0     0   501   502  0.000000000E+00  0.000000000E+00 -9.384110050E+01  9.384110050E+01  0.000000000E+00  0.00000E+00  9.000E+00
      25     1     1     2     0     0  1.266577436E+02 -4.185415327E+01  6.726234477E+02  6.970231392E+02  1.250000000E+02  0.00000E+00  9.000E+00
      25     1     1     2     0     0 -1.084586167E+02 -1.196059388E+02  6.306434676E+01  2.137076601E+02  1.250000000E+02  0.00000E+00  9.000E+00
      21     1     1     2   511   502 -1.819912684E+01  1.614600921E+02  1.038073144E+03  1.050712341E+03  2.157918644E-05  0.00000E+00  9.000E+00
#rwgt            1           1   3.8733332357247900E-002           9      255123           0
</event>
<event>
      5   9999  3.79277E-02  8.83467E+01 -1.00000E+00  1.26297E-01
      21    -1     0     0   502   512  0.000000000E+00  0.000000000E+00  6.390979999E+02  6.390979999E+02  0.000000000E+00  0.00000E+00  9.000E+00
      21    -1     0     0   501   502  0.000000000E+00  0.000000000E+00 -1.724543373E+02  1.724543373E+02  0.000000000E+00  0.00000E+00  9.000E+00
      25     1     1     2     0     0 -1.382519558E+02 -1.343562135E+02  2.999383912E+02  3.778269894E+02  1.250000000E+02  0.00000E+00  9.000E+00
      25     1     1     2     0     0  8.499434044E+01  2.048456723E+02  1.113908366E+01  2.548232065E+02  1.250000000E+02  0.00000E+00  9.000E+00
      21     1     1     2   501   512  5.325761535E+01 -7.048945878E+01  1.555661878E+02  1.789021413E+02  1.907348633E-06  0.00000E+00  9.000E+00
#rwgt            1           1   1.6205566082427101E-002           9      255433           0
</event>
<event>
      5   9999  3.79277E-02  1.38795E+02 -1.00000E+00  1.17746E-01
       2    -1     0     0   502     0  0.000000000E+00  0.000000000E+00  7.422692023E+02  7.422692023E+02  0.000000000E+00  0.00000E+00  9.000E+00
      21    -1     0     0   501   502  0.000000000E+00  0.000000000E+00 -1.727632234E+02  1.727632234E+02  0.000000000E+00  0.00000E+00  9.000E+00
      25     1     1     2     0     0 -2.970731367E+01  1.365674222E+02  3.810781425E+02  4.247101789E+02  1.250000000E+02  0.00000E+00  9.000E+00
      25     1     1     2     0     0  1.683878323E+02 -1.421925594E+02 -3.584439842E+00  2.533989625E+02  1.250000000E+02  0.00000E+00  9.000E+00
       2     1     1     2   501     0 -1.386805186E+02  5.625137171E+00  1.920122763E+02  2.369232843E+02  0.000000000E+00  0.00000E+00  9.000E+00
#rwgt            1           1   4.3850638383369410E-002           9      255590           0
</event>
<event>
      5   9999  3.79277E-02  3.90485E+01 -1.00000E+00  1.45492E-01
      21    -1     0     0   502   511  0.000000000E+00  0.000000000E+00  1.380419735E+02  1.380419735E+02  0.000000000E+00  0.00000E+00  9.000E+00
      21    -1     0     0   501   502  0.000000000E+00  0.000000000E+00 -9.661631786E+02  9.661631786E+02  0.000000000E+00  0.00000E+00  9.000E+00
      25     1     1     2     0     0 -1.226940940E+02  2.251406210E+02 -4.803566723E+02  5.586677658E+02  1.250000000E+02  0.00000E+00  9.000E+00
      25     1     1     2     0     0  1.272434339E+02 -1.863580785E+02 -4.026390147E+02  4.781876212E+02  1.250000000E+02  0.00000E+00  9.000E+00
      21     1     1     2   501   511 -4.549339913E+00 -3.878254250E+01  5.487448195E+01  6.734976515E+01  2.336015456E-06  0.00000E+00  9.000E+00
#rwgt            1           1   6.2997449808878392E-002           9      255785           0
</event>
<event>
      5   9999  3.79277E-02  3.80082E+01 -1.00000E+00  1.46229E-01
       1    -1     0     0   502     0  0.000000000E+00  0.000000000E+00  1.215155072E+03  1.215155072E+03  0.000000000E+00  0.00000E+00  9.000E+00
      21    -1     0     0   501   502  0.000000000E+00  0.000000000E+00 -7.893727720E+02  7.893727720E+02  0.000000000E+00  0.00000E+00  9.000E+00
      25     1     1     2     0     0  2.583158055E+02 -2.748447710E+01 -4.369449349E+02  5.234771514E+02  1.250000000E+02  0.00000E+00  9.000E+00
      25     1     1     2     0     0 -2.224645967E+02  1.486239591E+01 -2.559502642E+02  3.617276950E+02  1.250000000E+02  0.00000E+00  9.000E+00
       1     1     1     2   501     0 -3.585120885E+01  1.262208119E+01  1.118677499E+03  1.119322998E+03  1.525878906E-05  0.00000E+00  9.000E+00
#rwgt            1           1   3.0876706588192009E-002           9      255894           0
</event>
<event>
      5   9999  3.79277E-02  7.87687E+01 -1.00000E+00  1.28676E-01
      21    -1     0     0   502   501  0.000000000E+00  0.000000000E+00  7.229900056E+02  7.229900056E+02  0.000000000E+00  0.00000E+00  9.000E+00
      21    -1     0     0   501   511  0.000000000E+00  0.000000000E+00 -2.516920176E+02  2.516920176E+02  0.000000000E+00  0.00000E+00  9.000E+00
      25     1     1     2     0     0 -1.146590812E+02  6.794596740E+01  6.383793994E+02  6.640155246E+02  1.250000000E+02  0.00000E+00  9.000E+00
      25     1     1     2     0     0  1.046647759E+02  1.018609105E+01 -1.645422520E+02  2.318569051E+02  1.250000000E+02  0.00000E+00  9.000E+00
      21     1     1     2   502   511  9.994305278E+00 -7.813205845E+01 -2.539159421E+00  7.880959349E+01  1.643997242E-06  0.00000E+00  9.000E+00
#rwgt            1           1   4.9887559929748436E-002           9      256027           0
</event>
<event>
      5   9999  3.79277E-02  1.06477E+02 -1.00000E+00  1.22614E-01
      21    -1     0     0   502   501  0.000000000E+00  0.000000000E+00  2.598181631E+02  2.598181631E+02  0.000000000E+00  0.00000E+00  9.000E+00
      -5    -1     0     0     0   502  0.000000000E+00  0.000000000E+00 -3.125823969E+02  3.125823969E+02  0.000000000E+00  0.00000E+00  9.000E+00
      25     1     1     2     0     0  2.475331499E-01 -1.205215025E+02  4.624406536E+01  1.796914228E+02  1.250000000E+02  0.00000E+00  9.000E+00
      25     1     1     2     0     0 -5.570455610E+01  2.114157479E+02 -1.277929643E+02  2.824104420E+02  1.250000000E+02  0.00000E+00  9.000E+00
      -5     1     1     2     0   501  5.545702295E+01 -9.089424540E+01  2.878466509E+01  1.102986953E+02  2.523185073E-06  0.00000E+00  9.000E+00
#rwgt            1           1   4.3389818877393578E-002           9      256132           0
</event>
<event>
      5   9999  3.79277E-02  1.08562E+01 -1.00000E+00  1.91721E-01
      21    -1     0     0   502   501  0.000000000E+00  0.000000000E+00  4.306650519E+01  4.306650519E+01  0.000000000E+00  0.00000E+00  9.000E+00
       1    -1     0     0   501     0  0.000000000E+00  0.000000000E+00 -1.676006671E+03  1.676006671E+03  0.000000000E+00  0.00000E+00  9.000E+00
      25     1     1     2     0     0  1.131003011E+02  1.521490457E+02 -6.111660861E+02  6.519892599E+02  1.250000000E+02  0.00000E+00  9.000E+00
      25     1     1     2     0     0 -1.127246491E+02 -1.412993634E+02 -5.117328643E+02  5.569271775E+02  1.250000000E+02  0.00000E+00  9.000E+00
       1     1     1     2   502     0 -3.756520004E-01 -1.084968230E+01 -5.100412158E+02  5.101567392E+02  5.394796609E-06  0.00000E+00  9.000E+00
#rwgt            1           1   2.7438358786198155E-002           9      256187           0
</event>
<event>
      5   9999  3.79277E-02  5.44216E+00 -1.00000E+00  2.32262E-01
      21    -1     0     0   502   501  0.000000000E+00  0.000000000E+00  1.811161351E+03  1.811161351E+03  0.000000000E+00  0.00000E+00  9.000E+00
      21    -1     0     0   501   511  0.000000000E+00  0.000000000E+00 -1.313053008E+02  1.313053008E+02  0.000000000E+00  0.00000E+00  9.000E+00
      25     1     1     2     0     0  1.301673722E+01  3.852939459E+01  1.489748854E+02  1.986767882E+02  1.250000000E+02  0.00000E+00  9.000E+00
      25     1     1     2     0     0 -1.058145198E+01 -3.366251253E+01  1.634688272E+03  1.639840199E+03  1.250000000E+02  0.00000E+00  9.000E+00
      21     1     1     2   502   511 -2.435285234E+00 -4.866882058E+00 -1.038071075E+02  1.039496643E+02  4.862803949E-06  0.00000E+00  9.000E+00
#rwgt            1           1   3.9900200680109847E-002           9      256489           0
</event>
<event>
      5   9999  3.79277E-02  4.93695E+01 -1.00000E+00  1.39391E-01
      21    -1     0     0   502   501  0.000000000E+00  0.000000000E+00  3.717354473E+02  3.717354473E+02  0.000000000E+00  0.00000E+00  9.000E+00
      21    -1     0     0   501   512  0.000000000E+00  0.000000000E+00 -1.605396766E+02  1.605396766E+02  0.000000000E+00  0.00000E+00  9.000E+00
      25     1     1     2     0     0 -1.203549864E+01  6.652633160E+01  4.181704993E+01  1.481359905E+02  1.250000000E+02  0.00000E+00  9.000E+00
      25     1     1     2     0     0  3.661956684E+01 -1.093395145E+02  2.423322580E+02  2.960507480E+02  1.250000000E+02  0.00000E+00  9.000E+00
      21     1     1     2   502   512 -2.458406819E+01  4.281318286E+01 -7.295353732E+01  8.808838540E+01  1.348699152E-06  0.00000E+00  9.000E+00
#rwgt            1           1   4.7028470599130165E-002           9      257124           0
</event>
<event>
      5   9999 -3.79277E-02  4.05090E+01 -1.00000E+00  1.44500E-01
      21    -1     0     0   502   501  0.000000000E+00  0.000000000E+00  1.474775347E+02  1.474775347E+02  0.000000000E+00  0.00000E+00  9.000E+00
      21    -1     0     0   501   511  0.000000000E+00  0.000000000E+00 -4.671309631E+02  4.671309631E+02  0.000000000E+00  0.00000E+00  9.000E+00
      25     1     1     2     0     0  1.370049494E+02 -6.058310339E+01 -2.783383199E+02  3.399086479E+02  1.250000000E+02  0.00000E+00  9.000E+00
      25     1     1     2     0     0 -1.666510681E+02  8.818908524E+01 -1.568114863E+01  2.267615304E+02  1.250000000E+02  0.00000E+00  9.000E+00
      21     1     1     2   502   511  2.964611866E+01 -2.760598185E+01 -2.563395983E+01  4.793831956E+01  3.371747881E-07  0.00000E+00  9.000E+00
#rwgt            1           1  -6.2888512762311416E-002           9      257349           0
</event>
<event>
      5   9999  3.79277E-02  1.14947E+02 -1.00000E+00  1.21167E-01
       2    -1     0     0   502     0  0.000000000E+00  0.000000000E+00  3.132406921E+03  3.132406921E+03  0.000000000E+00  0.00000E+00  9.000E+00
      21    -1     0     0   501   502  0.000000000E+00  0.000000000E+00 -8.033176396E+01  8.033176396E+01  0.000000000E+00  0.00000E+00  9.000E+00
      25     1     1     2     0     0  1.119965903E+02 -1.152027379E+02  2.762335613E+02  3.431397491E+02  1.250000000E+02  0.00000E+00  9.000E+00
      25     1     1     2     0     0 -6.197647268E-01  1.436290810E+02  1.530584850E+02  2.442981721E+02  1.250000000E+02  0.00000E+00  9.000E+00
       2     1     1     2   501     0 -1.113768256E+02 -2.842634313E+01  2.622783111E+03  2.625300764E+03  0.000000000E+00  0.00000E+00  9.000E+00
#rwgt            1           1   3.8392416373943090E-002           9      257582           0
</event>
<event>
      5   9999  3.79277E-02  8.74435E+01 -1.00000E+00  1.26507E-01
      21    -1     0     0   502   511  0.000000000E+00  0.000000000E+00  1.505898952E+03  1.505898952E+03  0.000000000E+00  0.00000E+00  9.000E+00
      21    -1     0     0   501   502  0.000000000E+00  0.000000000E+00 -8.505929815E+01  8.505929815E+01  0.000000000E+00  0.00000E+00  9.000E+00
      25     1     1     2     0     0  2.455697623E+02 -8.912626679E+00  4.113570955E+02  4.952005686E+02  1.250000000E+02  0.00000E+00  9.000E+00
      25     1     1     2     0     0 -2.306787666E+02 -7.725364789E+01  4.293027065E+02  5.090251794E+02  1.250000000E+02  0.00000E+00  9.000E+00
      21     1     1     2   501   511 -1.489099570E+01  8.616627457E+01  5.801798520E+02  5.867325023E+02  7.629394531E-06  0.00000E+00  9.000E+00
#rwgt            1           1   4.5612974488326782E-002           9      257652           0
</event>
<event>
      5   9999  3.79277E-02  1.67943E+01 -1.00000E+00  1.72882E-01
      21    -1     0     0   502   501  0.000000000E+00  0.000000000E+00  4.651720595E+01  4.651720595E+01  0.000000000E+00  0.00000E+00  9.000E+00
      21    -1     0     0   501   512  0.000000000E+00  0.000000000E+00 -7.761271581E+02  7.761271581E+02  0.000000000E+00  0.00000E+00  9.000E+00
      25     1     1     2     0     0  6.778594174E+01  5.962116461E+01 -4.640109083E+02  4.889588328E+02  1.250000000E+02  0.00000E+00  9.000E+00
      25     1     1     2     0     0 -8.453893735E+01 -5.844441786E+01 -1.628808390E+02  2.296034617E+02  1.250000000E+02  0.00000E+00  9.000E+00
      21     1     1     2   502   512  1.675299561E+01 -1.176746749E+00 -1.027182049E+02  1.040820696E+02  1.348699152E-06  0.00000E+00  9.000E+00
#rwgt            1           1   3.7664873846965922E-002           9      257749           0
</event>
<event>
      5   9999  3.79277E-02  2.13953E+01 -1.00000E+00  1.63988E-01
      21    -1     0     0   511   501  0.000000000E+00  0.000000000E+00  2.452927522E+02  2.452927522E+02  0.000000000E+00  0.00000E+00  9.000E+00
      21    -1     0     0   501   502  0.000000000E+00  0.000000000E+00 -1.462484091E+02  1.462484091E+02  0.000000000E+00  0.00000E+00  9.000E+00
      25     1     1     2     0     0  6.956191364E+01  7.831467609E+01  8.533292988E+01  1.840618299E+02  1.250000000E+02  0.00000E+00  9.000E+00
      25     1     1     2     0     0 -8.802652699E+01 -6.750655775E+01 -1.920042889E+01  1.682244372E+02  1.250000000E+02  0.00000E+00  9.000E+00
      21     1     1     2   511   502  1.846461335E+01 -1.080811834E+01  3.291184205E+01  3.925489416E+01  0.000000000E+00  0.00000E+00  9.000E+00
#rwgt            1           1   5.1121036111463639E-002           9      257935           0
</event>
<event>
      5   9999  3.79277E-02  5.66599E+01 -1.00000E+00  1.36046E-01
      21    -1     0     0   512   501  0.000000000E+00  0.000000000E+00  4.490224593E+02  4.490224593E+02  0.000000000E+00  0.00000E+00  9.000E+00
      21    -1     0     0   501   502  0.000000000E+00  0.000000000E+00 -1.660689618E+02  1.660689618E+02  0.000000000E+00  0.00000E+00  9.000E+00
      25     1     1     2     0     0 -6.168216700E+01 -1.953691095E+02  1.314830452E+02  2.736541063E+02  1.250000000E+02  0.00000E+00  9.000E+00
      25     1     1     2     0     0  5.203383201E+00  1.998961936E+02  7.743182487E+01  2.482060655E+02  1.250000000E+02  0.00000E+00  9.000E+00
      21     1     1     2   512   502  5.647878380E+01 -4.527084105E+00  7.403862746E+01  9.323124941E+01  0.000000000E+00  0.00000E+00  9.000E+00
#rwgt            1           1   4.0166065312274173E-002           9      258241           0
</event>
<event>
      5   9999  3.79277E-02  1.39519E+01 -1.00000E+00  1.80399E-01
       1    -1     0     0   502     0  0.000000000E+00  0.000000000E+00  2.143072116E+03  2.143072116E+03  0.000000000E+00  0.00000E+00  9.000E+00
      21    -1     0     0   501   502  0.000000000E+00  0.000000000E+00 -2.078164165E+01  2.078164165E+01  0.000000000E+00  0.00000E+00  9.000E+00
      25     1     1     2     0     0  7.034184527E+01  1.023496291E+02  8.210058684E+02  8.397017671E+02  1.250000000E+02  0.00000E+00  9.000E+00
      25     1     1     2     0     0 -7.254696995E+01 -8.857309658E+01  6.208504275E+02  6.435747895E+02  1.250000000E+02  0.00000E+00  9.000E+00
       1     1     1     2   501     0  2.205124678E+00 -1.377653248E+01  6.804341786E+02  6.805772012E+02  7.629394531E-06  0.00000E+00  9.000E+00
#rwgt            1           1   5.4411986205864689E-002           9      258392           0
</event>
<event>
      5   9999  3.79277E-02  3.37701E+01 -1.00000E+00  1.49553E-01
      21    -1     0     0   502   511  0.000000000E+00  0.000000000E+00  1.104517135E+03  1.104517135E+03  0.000000000E+00  0.00000E+00  9.000E+00
      21    -1     0     0   501   502  0.000000000E+00  0.000000000E+00 -4.099653178E+01  4.099653178E+01  0.000000000E+00  0.00000E+00  9.000E+00
      25     1     1     2     0     0 -5.691114903E+01 -1.091715788E+02  2.406876377E+02  2.978470270E+02  1.250000000E+02  0.00000E+00  9.000E+00
      25     1     1     2     0     0  2.330284888E+01  1.124735531E+02  6.979362377E+02  7.182849816E+02  1.250000000E+02  0.00000E+00  9.000E+00
      21     1     1     2   501   511  3.360830015E+01 -3.301974233E+00  1.248967278E+02  1.293816582E+02  1.348699152E-06  0.00000E+00  9.000E+00
#rwgt            1           1   3.7134517143282364E-002           9      258621           0
</event>
<event>
      5   9999  3.79277E-02  9.18371E+00 -1.00000E+00  2.00132E-01
      21    -1     0     0   502   501  0.000000000E+00  0.000000000E+00  6.418696994E+02  6.418696994E+02  0.000000000E+00  0.00000E+00  9.000E+00
      21    -1     0     0   501   512  0.000000000E+00  0.000000000E+00 -6.476397825E+01  6.476397825E+01  0.000000000E+00  0.00000E+00  9.000E+00
      25     1     1     2     0     0 -1.072923188E+02 -7.092749378E+01  1.544426082E+02  2.366851712E+02  1.250000000E+02  0.00000E+00  9.000E+00
      25     1     1     2     0     0  1.161048047E+02  7.351217091E+01  4.215888196E+02  4.607021790E+02  1.250000000E+02  0.00000E+00  9.000E+00
      21     1     1     2   502   512 -8.812485942E+00 -2.584677132E+00  1.074293376E+00  9.246327412E+00  1.756820995E-07  0.00000E+00  9.000E+00
#rwgt            1           1   4.1172662891686827E-002           9      258683           0
</event>
<event>
      5   9999  3.79277E-02  5.14520E+01 -1.00000E+00  1.38370E-01
      21    -1     0     0   502   501  0.000000000E+00  0.000000000E+00  3.298836276E+02  3.298836276E+02  0.000000000E+00  0.00000E+00  9.000E+00
      21    -1     0     0   511   502  0.000000000E+00  0.000000000E+00 -1.800589415E+02  1.800589415E+02  0.000000000E+00  0.00000E+00  9.000E+00
      25     1     1     2     0     0  4.395829358E+01  1.080223482E+02  2.365977446E+02  2.918983591E+02  1.250000000E+02  0.00000E+00  9.000E+00
      25     1     1     2     0     0 -9.679712877E-01 -7.975325096E+01 -6.961121312E+01  1.638054914E+02  1.250000000E+02  0.00000E+00  9.000E+00
      21     1     1     2   511   501 -4.299032229E+01 -2.826909719E+01 -1.716184536E+01  5.423871867E+01  4.129530925E-07  0.00000E+00  9.000E+00
#rwgt            1           1   3.1286680547289364E-002           9      258930           0
</event>
<event>
      5   9999  3.79277E-02  1.12479E+02 -1.00000E+00  1.21574E-01
      21    -1     0     0   502   501  0.000000000E+00  0.000000000E+00  1.926561222E+02  1.926561222E+02  0.000000000E+00  0.00000E+00  9.000E+00
       2    -1     0     0   501     0  0.000000000E+00  0.000000000E+00 -7.248949373E+02  7.248949373E+02  0.000000000E+00  0.00000E+00  9.000E+00
      25     1     1     2     0     0  1.048239975E+02  2.017054438E+02 -3.763505570E+02  4.570972525E+02  1.250000000E+02  0.00000E+00  9.000E+00
      25     1     1     2     0     0  5.960873744E+00 -1.822589751E+02 -2.352211281E+02  3.228123993E+02  1.250000000E+02  0.00000E+00  9.000E+00
       2     1     1     2   502     0 -1.107848712E+02 -1.944646876E+01  7.933286998E+01  1.376414077E+02  3.015782986E-06  0.00000E+00  9.000E+00
#rwgt            1           1   3.3849918748068225E-002           9      259203           0
</event>
<event>
      5   9999  3.79277E-02  9.66347E+01 -1.00000E+00  1.24500E-01
      21    -1     0     0   502   501  0.000000000E+00  0.000000000E+00  3.408189524E+02  3.408189524E+02  0.000000000E+00  0.00000E+00  9.000E+00
      21    -1     0     0   511   502  0.000000000E+00  0.000000000E+00 -2.105838969E+02  2.105838969E+02  0.000000000E+00  0.00000E+00  9.000E+00
      25     1     1     2     0     0  7.830383646E+01  1.085742569E+02 -3.249819663E+01  1.860134211E+02  1.250000000E+02  0.00000E+00  9.000E+00
      25     1     1     2     0     0 -1.195041491E+02 -2.116259367E+01  1.968801958E+02  2.628990463E+02  1.250000000E+02  0.00000E+00  9.000E+00
      21     1     1     2   511   501  4.120031265E+01 -8.741166321E+01 -3.414694362E+01  1.024903819E+02  8.259061849E-07  0.00000E+00  9.000E+00
#rwgt            1           1   3.7288266201327955E-002           9      259276           0
</event>
<event>
      5   9999  3.79277E-02  2.40619E+01 -1.00000E+00  1.60005E-01
      21    -1     0     0   502   501  0.000000000E+00  0.000000000E+00  3.971142334E+02  3.971142334E+02  0.000000000E+00  0.00000E+00  9.000E+00
      21    -1     0     0   501   512  0.000000000E+00  0.000000000E+00 -9.053719939E+01  9.053719939E+01  0.000000000E+00  0.00000E+00  9.000E+00
      25     1     1     2     0     0 -1.052815444E+02 -5.225586572E+01  1.838657776E+02  2.514885748E+02  1.250000000E+02  0.00000E+00  9.000E+00
      25     1     1     2     0     0  1.182897019E+02  3.201331731E+01  1.193558393E+02  2.118681723E+02  1.250000000E+02  0.00000E+00  9.000E+00
      21     1     1     2   502   512 -1.300815750E+01  2.024254840E+01  3.355417098E+00  2.429468566E+01  4.380028980E-07  0.00000E+00  9.000E+00
#rwgt            1           1   4.4908941835837379E-002           9      259412           0
</event>
<event>
      5   9999  3.79277E-02  2.56821E+01 -1.00000E+00  1.57880E-01
      21    -1     0     0   502   501  0.000000000E+00  0.000000000E+00  1.159529996E+02  1.159529996E+02  0.000000000E+00  0.00000E+00  9.000E+00
      21    -1     0     0   501   511  0.000000000E+00  0.000000000E+00 -5.012662263E+02  5.012662263E+02  0.000000000E+00  0.00000E+00  9.000E+00
      25     1     1     2     0     0  8.944127699E+01 -5.478253191E+01 -2.181169288E+02  2.723983525E+02  1.250000000E+02  0.00000E+00  9.000E+00
      25     1     1     2     0     0 -8.216055994E+01  7.941104723E+01  6.261862016E+00  1.694717763E+02  1.250000000E+02  0.00000E+00  9.000E+00
      21     1     1     2   502   511 -7.280717047E+00 -2.462851532E+01 -1.734581600E+02  1.753490971E+02  2.697398305E-06  0.00000E+00  9.000E+00
#rwgt            1           1   3.3068669571045768E-002           9      259659           0
</event>
<event>
      5   9999 -3.79277E-02  7.67488E+01 -1.00000E+00  1.29228E-01
      21    -1     0     0   512   501  0.000000000E+00  0.000000000E+00  2.918738981E+02  2.918738981E+02  0.000000000E+00  0.00000E+00  9.000E+00
      21    -1     0     0   501   502  0.000000000E+00  0.000000000E+00 -7.524345916E+02  7.524345916E+02  0.000000000E+00  0.00000E+00  9.000E+00
      25     1     1     2     0     0 -7.024933602E+01 -4.253541291E+02 -1.826771000E+02  4.846204982E+02  1.250000000E+02  0.00000E+00  9.000E+00
      25     1     1     2     0     0  3.712606876E+01  3.561210164E+02 -2.956990874E+02  4.808986105E+02  1.250000000E+02  0.00000E+00  9.000E+00
      21     1     1     2   512   502  3.312326726E+01  6.923311278E+01  1.781549392E+01  7.878938103E+01  7.539457465E-07  0.00000E+00  9.000E+00
#rwgt            1           1 -0.25499138017670631                9      259940           0
</event>
<event>
      5   9999  3.79277E-02  4.64452E+01 -1.00000E+00  1.40928E-01
      -3    -1     0     0     0   501  0.000000000E+00  0.000000000E+00  3.722454044E+02  3.722454044E+02  0.000000000E+00  0.00000E+00  9.000E+00
      21    -1     0     0   501   502  0.000000000E+00  0.000000000E+00 -1.882905087E+02  1.882905087E+02  0.000000000E+00  0.00000E+00  9.000E+00
      25     1     1     2     0     0  1.187130381E+02 -8.168827990E+01  1.891439561E+02  2.686376679E+02  1.250000000E+02  0.00000E+00  9.000E+00
      25     1     1     2     0     0 -1.064125181E+02  3.690155159E+01 -9.322852799E+01  1.923587974E+02  1.250000000E+02  0.00000E+00  9.000E+00
      -3     1     1     2     0   502 -1.230052001E+01  4.478672831E+01  8.803946761E+01  9.953944787E+01  1.348699152E-06  0.00000E+00  9.000E+00
#rwgt            1           1   3.8101813950373188E-002           9      260100           0
</event>
<event>
      5   9999  3.79277E-02  2.67576E+01 -1.00000E+00  1.56572E-01
      21    -1     0     0   502   501  0.000000000E+00  0.000000000E+00  1.330100089E+02  1.330100089E+02  0.000000000E+00  0.00000E+00  9.000E+00
      21    -1     0     0   511   502  0.000000000E+00  0.000000000E+00 -6.535688431E+02  6.535688431E+02  0.000000000E+00  0.00000E+00  9.000E+00
      25     1     1     2     0     0 -7.514378514E+01  2.416574399E+02 -1.863104296E+02  3.382033159E+02  1.250000000E+02  0.00000E+00  9.000E+00
      25     1     1     2     0     0  4.937495566E+01 -2.344508602E+02 -2.879349347E+02  3.948881091E+02  1.250000000E+02  0.00000E+00  9.000E+00
      21     1     1     2   511   501  2.576882948E+01 -7.206579656E+00 -4.631346991E+01  5.348742711E+01  9.536743164E-07  0.00000E+00  9.000E+00
#rwgt            1           1   2.9720238004455259E-002           9      260164           0
</event>
<event>
      5   9999  3.79277E-02  4.43062E+01 -1.00000E+00  1.42139E-01
      21    -1     0     0   502   501  0.000000000E+00  0.000000000E+00  3.135900593E+02  3.135900593E+02  0.000000000E+00  0.00000E+00  9.000E+00
      21    -1     0     0   512   502  0.000000000E+00  0.000000000E+00 -4.511804913E+02  4.511804913E+02  0.000000000E+00  0.00000E+00  9.000E+00
      25     1     1     2     0     0 -2.477115937E+02  1.275154841E+02 -1.191891479E+02  3.277991539E+02  1.250000000E+02  0.00000E+00  9.000E+00
      25     1     1     2     0     0  2.716617694E+02 -9.024043655E+01  8.564185075E+01  3.238872952E+02  1.250000000E+02  0.00000E+00  9.000E+00
      21     1     1     2   512   501 -2.395017574E+01 -3.727504755E+01 -1.040431349E+02  1.130841015E+02  1.348699152E-06  0.00000E+00  9.000E+00
#rwgt            1           1   4.6102800963750551E-002           9      260279           0
</event>
<event>
      5   9999  3.79277E-02  4.18346E+01 -1.00000E+00  1.43643E-01
      21    -1     0     0   511   501  0.000000000E+00  0.000000000E+00  3.630200269E+02  3.630200269E+02  0.000000000E+00  0.00000E+00  9.000E+00
      21    -1     0     0   501   502  0.000000000E+00  0.000000000E+00 -1.059857513E+02  1.059857513E+02  0.000000000E+00  0.00000E+00  9.000E+00
      25     1     1     2     0     0 -4.409303712E+01 -4.953583443E+01  2.227391213E+02  2.638857915E+02  1.250000000E+02  0.00000E+00  9.000E+00
      25     1     1     2     0     0  7.926570715E+01  2.688596833E+01 -9.174748277E-01  1.504385236E+02  1.250000000E+02  0.00000E+00  9.000E+00
      21     1     1     2   511   502 -3.517267003E+01  2.264986610E+01  3.521262919E+01  5.468146309E+01  9.536743164E-07  0.00000E+00  9.000E+00
#rwgt            1           1   4.0594700740029355E-002           9      260505           0
</event>
<event>
      5   9999  3.79277E-02  1.87570E+01 -1.00000E+00  1.68702E-01
      21    -1     0     0   502   501  0.000000000E+00  0.000000000E+00  1.996330889E+02  1.996330889E+02  0.000000000E+00  0.00000E+00  9.000E+00
      21    -1     0     0   512   502  0.000000000E+00  0.000000000E+00 -3.702490225E+02  3.702490225E+02  0.000000000E+00  0.00000E+00  9.000E+00
      25     1     1     2     0     0 -1.566977587E+02  8.685275206E+01 -4.250240461E+01  2.225512132E+02  1.250000000E+02  0.00000E+00  9.000E+00
      25     1     1     2     0     0  1.754232682E+02 -8.576675944E+01 -1.463332795E+01  2.323109863E+02  1.250000000E+02  0.00000E+00  9.000E+00
      21     1     1     2   512   501 -1.872550955E+01 -1.085992615E+00 -1.134802011E+02  1.150199119E+02  1.348699152E-06  0.00000E+00  9.000E+00
#rwgt            1           1   3.6537861735241844E-002           9      260609           0
</event>
<event>
      5   9999  3.79277E-02  4.95864E+01 -1.00000E+00  1.39282E-01
      21    -1     0     0   511   501  0.000000000E+00  0.000000000E+00  9.555274054E+02  9.555274054E+02  0.000000000E+00  0.00000E+00  9.000E+00
      21    -1     0     0   501   502  0.000000000E+00  0.000000000E+00 -1.430219582E+02  1.430219582E+02  0.000000000E+00  0.00000E+00  9.000E+00
      25     1     1     2     0     0  1.822048077E+02 -1.185048596E+02  8.544053093E+01  2.648906907E+02  1.250000000E+02  0.00000E+00  9.000E+00
      25     1     1     2     0     0 -1.972532445E+02  1.657526248E+02  3.448982291E+02  4.482884825E+02  1.250000000E+02  0.00000E+00  9.000E+00
      21     1     1     2   511   502  1.504843676E+01 -4.724776519E+01  3.821666872E+02  3.853701903E+02  7.629394531E-06  0.00000E+00  9.000E+00
#rwgt            1           1   2.4951645486262324E-002           9      260794           0
</event>
<event>
      5   9999 -3.79277E-02  3.93916E+01 -1.00000E+00  1.45254E-01
      -3    -1     0     0     0   501  0.000000000E+00  0.000000000E+00  9.572888934E+02  9.572888934E+02  0.000000000E+00  0.00000E+00  9.000E+00
      21    -1     0     0   501   502  0.000000000E+00  0.000000000E+00 -6.207511424E+02  6.207511424E+02  0.000000000E+00  0.00000E+00  9.000E+00
      25     1     1     2     0     0  3.210645426E+02  8.188494623E+01  5.580508403E-01  3.541368328E+02  1.250000000E+02  0.00000E+00  9.000E+00
      25     1     1     2     0     0 -3.280506817E+02 -1.206521367E+02 -3.657163590E+02  5.211023345E+02  1.250000000E+02  0.00000E+00  9.000E+00
      -3     1     1     2     0   502  6.986139125E+00  3.876719049E+01  7.016960591E+02  7.028008684E+02  0.000000000E+00  0.00000E+00  9.000E+00
#rwgt            1           1 -0.30164911967831842                9      260947           0
</event>
<event>
      5   9999  3.79277E-02  9.78809E+01 -1.00000E+00  1.24248E-01
      21    -1     0     0   502   511  0.000000000E+00  0.000000000E+00  4.685036762E+02  4.685036762E+02  0.000000000E+00  0.00000E+00  9.000E+00
      21    -1     0     0   501   502  0.000000000E+00  0.000000000E+00 -6.580830239E+02  6.580830239E+02  0.000000000E+00  0.00000E+00  9.000E+00
      25     1     1     2     0     0 -2.655216817E+02 -2.093769437E+01  2.798420658E+01  2.955474011E+02  1.250000000E+02  0.00000E+00  9.000E+00
      25     1     1     2     0     0  1.803496224E+02  6.917046134E+01 -4.901221153E+02  5.414381100E+02  1.250000000E+02  0.00000E+00  9.000E+00
      21     1     1     2   501   511  8.517205928E+01 -4.823276698E+01  2.725585611E+02  2.896011890E+02  3.814697266E-06  0.00000E+00  9.000E+00
#rwgt            1           1   2.9475027588782822E-002           9      261129           0
</event>
<event>
      5   9999  3.79277E-02  1.28831E+02 -1.00000E+00  1.19074E-01
      21    -1     0     0   502   501  0.000000000E+00  0.000000000E+00  1.346298990E+02  1.346298990E+02  0.000000000E+00  0.00000E+00  9.000E+00
      21    -1     0     0   501   512  0.000000000E+00  0.000000000E+00 -5.811828882E+02  5.811828882E+02  0.000000000E+00  0.00000E+00  9.000E+00
      25     1     1     2     0     0 -2.023378433E+02 -2.234052567E+00 -2.532988499E+02  3.474635249E+02  1.250000000E+02  0.00000E+00  9.000E+00
      25     1     1     2     0     0  7.512991672E+01 -1.815154028E+01 -1.404116238E+01  1.476351484E+02  1.250000000E+02  0.00000E+00  9.000E+00
      21     1     1     2   502   512  1.272079266E+02  2.038559285E+01 -1.792129769E+02  2.207141139E+02  1.907348633E-06  0.00000E+00  9.000E+00
#rwgt            1           1   3.4749283783733154E-002           9      261245           0
</event>
<event>
      5   9999  3.79277E-02  1.78981E+01 -1.00000E+00  1.70449E-01
      21    -1     0     0   502   501  0.000000000E+00  0.000000000E+00  4.919431061E+01  4.919431061E+01  0.000000000E+00  0.00000E+00  9.000E+00
      21    -1     0     0   511   502  0.000000000E+00  0.000000000E+00 -1.307759668E+03  1.307759668E+03  0.000000000E+00  0.00000E+00  9.000E+00
      25     1     1     2     0     0  1.071247275E+02  9.969467444E+01 -2.502252083E+02  3.156776682E+02  1.250000000E+02  0.00000E+00  9.000E+00
      25     1     1     2     0     0 -1.223393926E+02 -1.091210280E+02 -6.374928741E+02  6.699973808E+02  1.250000000E+02  0.00000E+00  9.000E+00
      21     1     1     2   511   501  1.521466506E+01  9.426353595E+00 -3.708472745E+02  3.712789290E+02  7.629394531E-06  0.00000E+00  9.000E+00
#rwgt            1           1   3.8875508574662494E-002           9      261329           0
</event>
<event>
      5   9999 -3.79277E-02  3.00140E+01 -1.00000E+00  1.53026E-01
      21    -1     0     0   512   501  0.000000000E+00  0.000000000E+00  6.108840387E+02  6.108840387E+02  0.000000000E+00  0.00000E+00  9.000E+00
      21    -1     0     0   501   502  0.000000000E+00  0.000000000E+00 -4.230490516E+02  4.230490516E+02  0.000000000E+00  0.00000E+00  9.000E+00
      25     1     1     2     0     0 -2.797830908E+02 -1.580411432E+02 -2.765625324E+02  4.420038633E+02  1.250000000E+02  0.00000E+00  9.000E+00
      25     1     1     2     0     0  2.512774592E+02  1.674364297E+02  4.555318111E+02  5.606331692E+02  1.250000000E+02  0.00000E+00  9.000E+00
      21     1     1     2   512   502  2.850563162E+01 -9.395286552E+00  8.865708443E+00  3.129605773E+01  3.153981341E-07  0.00000E+00  9.000E+00
#rwgt            1           1 -0.17761884536682471                9      261478           0
</event>
<event>
      5   9999  3.79277E-02  2.86333E+01 -1.00000E+00  1.54460E-01
      21    -1     0     0   502   501  0.000000000E+00  0.000000000E+00  8.207529210E+02  8.207529210E+02  0.000000000E+00  0.00000E+00  9.000E+00
      21    -1     0     0   511   502  0.000000000E+00  0.000000000E+00 -2.132223097E+02  2.132223097E+02  0.000000000E+00  0.00000E+00  9.000E+00
      25     1     1     2     0     0  7.452190859E+00 -1.457471469E+02  4.924678808E+02  5.286278271E+02  1.250000000E+02  0.00000E+00  9.000E+00
      25     1     1     2     0     0 -3.225432413E+01  1.600552424E+02  2.747142267E+02  3.431485515E+02  1.250000000E+02  0.00000E+00  9.000E+00
      21     1     1     2   511   501  2.480213327E+01 -1.430809546E+01 -1.596514961E+02  1.621988521E+02  1.907348633E-06  0.00000E+00  9.000E+00
#rwgt            1           1   2.3626417512816800E-002           9      261857           0
</event>
<event>
      5   9999  3.79277E-02  1.52145E+02 -1.00000E+00  1.16150E-01
       2    -1     0     0   502     0  0.000000000E+00  0.000000000E+00  9.248796154E+02  9.248796154E+02  0.000000000E+00  0.00000E+00  9.000E+00
      21    -1     0     0   501   502  0.000000000E+00  0.000000000E+00 -1.173933884E+03  1.173933884E+03  0.000000000E+00  0.00000E+00  9.000E+00
      25     1     1     2     0     0 -1.705302591E+02  3.693114956E+02 -6.151263049E+02  7.479818989E+02  1.250000000E+02  0.00000E+00  9.000E+00
      25     1     1     2     0     0  2.425864839E+02 -5.033120306E+02 -3.146596741E+02  6.533046095E+02  1.250000000E+02  0.00000E+00  9.000E+00
       2     1     1     2   501     0 -7.205622476E+01  1.340005350E+02  6.807317100E+02  6.975269915E+02  1.525878906E-05  0.00000E+00  9.000E+00
#rwgt            1           1   7.4052466198829076E-002           9      261973           0
</event>
<event>
      5   9999  3.79277E-02  1.04214E+01 -1.00000E+00  1.93708E-01
      21    -1     0     0   511   501  0.000000000E+00  0.000000000E+00  1.801899879E+02  1.801899879E+02  0.000000000E+00  0.00000E+00  9.000E+00
      21    -1     0     0   501   502  0.000000000E+00  0.000000000E+00 -4.036845200E+02  4.036845200E+02  0.000000000E+00  0.00000E+00  9.000E+00
      25     1     1     2     0     0 -2.325382581E+02  1.031843993E+01 -1.509499394E+02  3.042883433E+02  1.250000000E+02  0.00000E+00  9.000E+00
      25     1     1     2     0     0  2.249691358E+02 -3.155091585E+00 -7.638679061E+01  2.684790652E+02  1.250000000E+02  0.00000E+00  9.000E+00
      21     1     1     2   511   502  7.569122340E+00 -7.163348342E+00  3.842197889E+00  1.110709940E+01  2.064765462E-07  0.00000E+00  9.000E+00
#rwgt            1           1   3.9602288388369947E-002           9      262040           0
</event>
<event>
      5   9999  3.79277E-02  1.13281E+02 -1.00000E+00  1.21440E-01
       2    -1     0     0   502     0  0.000000000E+00  0.000000000E+00  2.539410302E+03  2.539410302E+03  0.000000000E+00  0.00000E+00  9.000E+00
      21    -1     0     0   501   502  0.000000000E+00  0.000000000E+00 -1.527876348E+02  1.527876348E+02  0.000000000E+00  0.00000E+00  9.000E+00
      25     1     1     2     0     0 -2.765240758E+02  1.870127702E+02  5.907991777E+02  6.900058037E+02  1.250000000E+02  0.00000E+00  9.000E+00
      25     1     1     2     0     0  1.632730339E+02 -1.843987463E+02  8.694164677E+01  2.895597195E+02  1.250000000E+02  0.00000E+00  9.000E+00
       2     1     1     2   501     0  1.132510420E+02 -2.614023959E+00  1.708881843E+03  1.712632414E+03  2.157918644E-05  0.00000E+00  9.000E+00
#rwgt            1           1   3.5804526878547183E-002           9      262360           0
</event>
<event>
      5   9999  3.79277E-02  1.61923E+02 -1.00000E+00  1.15092E-01
      21    -1     0     0   502   501  0.000000000E+00  0.000000000E+00  2.277659880E+02  2.277659880E+02  0.000000000E+00  0.00000E+00  9.000E+00
      21    -1     0     0   501   511  0.000000000E+00  0.000000000E+00 -4.335855503E+02  4.335855503E+02  0.000000000E+00  0.00000E+00  9.000E+00
      25     1     1     2     0     0  6.549159917E+01  7.650852556E+01  6.328774649E+01  1.725486682E+02  1.250000000E+02  0.00000E+00  9.000E+00
      25     1     1     2     0     0 -2.116515438E+02 -6.821294418E+00 -1.541903391E+02  2.902457006E+02  1.250000000E+02  0.00000E+00  9.000E+00
      21     1     1     2   502   511  1.461599447E+02 -6.968723114E+01 -1.149169698E+02  1.985571695E+02  4.473129043E-06  0.00000E+00  9.000E+00
#rwgt            1           1   3.2843002379900836E-002           9      262478           0
</event>
<event>
      5   9999  3.79277E-02  2.30043E+01 -1.00000E+00  1.61506E-01
      21    -1     0     0   502   501  0.000000000E+00  0.000000000E+00  5.243480490E+02  5.243480490E+02  0.000000000E+00  0.00000E+00  9.000E+00
       2    -1     0     0   501     0  0.000000000E+00  0.000000000E+00 -1.946065844E+02  1.946065844E+02  0.000000000E+00  0.00000E+00  9.000E+00
      25     1     1     2     0     0 -1.737253833E+02  4.485601129E+01  2.424315609E+02  3.264822082E+02  1.250000000E+02  0.00000E+00  9.000E+00
      25     1     1     2     0     0  1.577748529E+02 -2.827957087E+01  1.954036968E+02  2.819578746E+02  1.250000000E+02  0.00000E+00  9.000E+00
       2     1     1     2   502     0  1.595053034E+01 -1.657644042E+01 -1.080937931E+02  1.105145506E+02  1.907348633E-06  0.00000E+00  9.000E+00
#rwgt            1           1   2.8436158663967280E-002           9      262544           0
</event>
<event>
      5   9999  3.79277E-02  3.99562E+01 -1.00000E+00  1.44870E-01
      21    -1     0     0   502   511  0.000000000E+00  0.000000000E+00  1.352301696E+02  1.352301696E+02  0.000000000E+00  0.00000E+00  9.000E+00
      21    -1     0     0   501   502  0.000000000E+00  0.000000000E+00 -1.026124916E+03  1.026124916E+03  0.000000000E+00  0.00000E+00  9.000E+00
      25     1     1     2     0     0  2.426299292E+02 -1.862437629E+02 -4.860246972E+02  5.877082848E+02  1.250000000E+02  0.00000E+00  9.000E+00
      25     1     1     2     0     0 -2.710255536E+02  1.581334563E+02 -4.123173260E+02  5.330024560E+02  1.250000000E+02  0.00000E+00  9.000E+00
      21     1     1     2   501   511  2.839562444E+01  2.811030655E+01  7.447276888E+00  4.064434469E+01  5.840038640E-07  0.00000E+00  9.000E+00
#rwgt            1           1   3.2551783406371354E-002           9      262726           0
</event>
<event>
      5   9999  3.79277E-02  4.50581E+01 -1.00000E+00  1.41704E-01
      21    -1     0     0   502   501  0.000000000E+00  0.000000000E+00  4.716040087E+02  4.716040087E+02  0.000000000E+00  0.00000E+00  9.000E+00
      21    -1     0     0   512   502  0.000000000E+00  0.000000000E+00 -8.299688831E+01  8.299688831E+01  0.000000000E+00  0.00000E+00  9.000E+00
      25     1     1     2     0     0 -2.998869689E+01  4.603661414E+01  3.353924174E+01  1.406007558E+02  1.250000000E+02  0.00000E+00  9.000E+00
      25     1     1     2     0     0  2.573170868E+01 -9.089313856E+01  3.220455740E+02  3.581368945E+02  1.250000000E+02  0.00000E+00  9.000E+00
      21     1     1     2   512   501  4.256988215E+00  4.485652442E+01  3.302230459E+01  5.586324670E+01  9.536743164E-07  0.00000E+00  9.000E+00
#rwgt            1           1   4.7551262862425198E-002           9      263013           0
</event>
<event>
      5   9999  3.79277E-02  4.72679E+01 -1.00000E+00  1.40482E-01
      21    -1     0     0   502   501  0.000000000E+00  0.000000000E+00  2.049563748E+02  2.049563748E+02  0.000000000E+00  0.00000E+00  9.000E+00
      21    -1     0     0   511   502  0.000000000E+00  0.000000000E+00 -2.166732780E+02  2.166732780E+02  0.000000000E+00  0.00000E+00  9.000E+00
      25     1     1     2     0     0 -1.115078676E+01  1.355055632E+02  5.287817113E+01  1.921124636E+02  1.250000000E+02  0.00000E+00  9.000E+00
      25     1     1     2     0     0 -3.057463307E+01 -1.132965087E+02 -3.926867978E+01  1.758918312E+02  1.250000000E+02  0.00000E+00  9.000E+00
      21     1     1     2   511   501  4.172541983E+01 -2.220905448E+01 -2.532639461E+01  5.362535803E+01  7.539457465E-07  0.00000E+00  9.000E+00
#rwgt            1           1   3.4258062131320023E-002           9      263099           0
</event>
<event>
      5   9999  3.79277E-02  2.08473E+01 -1.00000E+00  1.64896E-01
      21    -1     0     0   502   501  0.000000000E+00  0.000000000E+00  2.694226012E+02  2.694226012E+02  0.000000000E+00  0.00000E+00  9.000E+00
      21    -1     0     0   512   502  0.000000000E+00  0.000000000E+00 -1.476571666E+02  1.476571666E+02  0.000000000E+00  0.00000E+00  9.000E+00
      25     1     1     2     0     0 -4.983345395E+01 -3.768288630E+01 -7.100883243E+01  1.567502068E+02  1.250000000E+02  0.00000E+00  9.000E+00
      25     1     1     2     0     0  4.460974149E+01  5.786510047E+01  1.906176608E+02  2.393710331E+02  1.250000000E+02  0.00000E+00  9.000E+00
      21     1     1     2   512   501  5.223712466E+00 -2.018221417E+01  2.156606227E+00  2.095852789E+01  4.490172617E-07  0.00000E+00  9.000E+00
#rwgt            1           1   3.3376836638061506E-002           9      263197           0
</event>
<event>
      5   9999  3.79277E-02  1.82785E+01 -1.00000E+00  1.69660E-01
      21    -1     0     0   502   501  0.000000000E+00  0.000000000E+00  2.343843192E+02  2.343843192E+02  0.000000000E+00  0.00000E+00  9.000E+00
      21    -1     0     0   501   511  0.000000000E+00  0.000000000E+00 -2.176022323E+02  2.176022323E+02  0.000000000E+00  0.00000E+00  9.000E+00
      25     1     1     2     0     0  1.217878482E+02 -2.779277127E+01  1.420207249E+02  2.267148085E+02  1.250000000E+02  0.00000E+00  9.000E+00
      25     1     1     2     0     0 -1.069304734E+02  3.843993254E+01 -1.115460756E+02  2.024334002E+02  1.250000000E+02  0.00000E+00  9.000E+00
      21     1     1     2   502   511 -1.485737487E+01 -1.064716127E+01 -1.369256236E+01  2.283834265E+01  0.000000000E+00  0.00000E+00  9.000E+00
#rwgt            1           1   2.1740494347576276E-002           9      263352           0
</event>
<event>
      5   9999  3.79277E-02  1.68352E+01 -1.00000E+00  1.72788E-01
      21    -1     0     0   502   501  0.000000000E+00  0.000000000E+00  3.664826644E+03  3.664826644E+03  0.000000000E+00  0.00000E+00  9.000E+00
      21    -1     0     0   512   502  0.000000000E+00  0.000000000E+00 -1.568157979E+01  1.568157979E+01  0.000000000E+00  0.00000E+00  9.000E+00
      25     1     1     2     0     0  7.805184166E+00 -1.339308231E+02  8.773540416E+02  8.963110512E+02  1.250000000E+02  0.00000E+00  9.000E+00
      25     1     1     2     0     0  5.251858450E+00  1.445580730E+02  2.750111259E+03  2.756748367E+03  1.250000000E+02  0.00000E+00  9.000E+00
      21     1     1     2   512   501 -1.305704262E+01 -1.062724993E+01  2.167976292E+01  2.744880550E+01  1.066240300E-06  0.00000E+00  9.000E+00
#rwgt            1           1   1.7207159854182901E-002           9      263472           0
</event>
<event>
      5   9999  3.79277E-02  1.41718E+01 -1.00000E+00  1.79739E-01
      21    -1     0     0   511   501  0.000000000E+00  0.000000000E+00  5.832668426E+02  5.832668426E+02  0.000000000E+00  0.00000E+00  9.000E+00
      21    -1     0     0   501   502  0.000000000E+00  0.000000000E+00 -1.480274794E+02  1.480274794E+02  0.000000000E+00  0.00000E+00  9.000E+00
      25     1     1     2     0     0 -1.017028659E+02  4.377686191E+01 -6.878635821E+01  1.806002482E+02  1.250000000E+02  0.00000E+00  9.000E+00
      25     1     1     2     0     0  8.864636855E+01 -3.826611791E+01  2.463947843E+02  2.926736479E+02  1.250000000E+02  0.00000E+00  9.000E+00
      21     1     1     2   511   502  1.305649737E+01 -5.510743997E+00  2.576309371E+02  2.580204259E+02  0.000000000E+00  0.00000E+00  9.000E+00
#rwgt            1           1   4.0250499130086999E-002           9      263678           0
</event>
<event>
      5   9999  3.79277E-02  5.25672E+01 -1.00000E+00  1.37846E-01
      21    -1     0     0   502   501  0.000000000E+00  0.000000000E+00  5.116445666E+02  5.116445666E+02  0.000000000E+00  0.00000E+00  9.000E+00
      21    -1     0     0   512   502  0.000000000E+00  0.000000000E+00 -2.848408805E+02  2.848408805E+02  0.000000000E+00  0.00000E+00  9.000E+00
      25     1     1     2     0     0 -2.483146760E+02  6.643103492E+01  8.676675486E+01  2.987084372E+02  1.250000000E+02  0.00000E+00  9.000E+00
      25     1     1     2     0     0  2.268597871E+02 -1.844146318E+01  2.595915563E+02  3.671760159E+02  1.250000000E+02  0.00000E+00  9.000E+00
      21     1     1     2   512   501  2.145488894E+01 -4.798957174E+01 -1.195546251E+02  1.306009940E+02  2.336015456E-06  0.00000E+00  9.000E+00
#rwgt            1           1   4.3085742460368726E-002           9      263976           0
</event>
<event>
      5   9999  3.79277E-02  2.57356E+01 -1.00000E+00  1.57813E-01
      21    -1     0     0   502   501  0.000000000E+00  0.000000000E+00  8.113954883E+02  8.113954883E+02  0.000000000E+00  0.00000E+00  9.000E+00
      21    -1     0     0   511   502  0.000000000E+00  0.000000000E+00 -3.006808089E+02  3.006808089E+02  0.000000000E+00  0.00000E+00  9.000E+00
      25     1     1     2     0     0 -1.297508367E+02  1.809276864E+02  5.325754162E+02  5.906197434E+02  1.250000000E+02  0.00000E+00  9.000E+00
      25     1     1     2     0     0  1.548990079E+02 -1.863950355E+02  1.742840870E+02  3.236305840E+02  1.250000000E+02  0.00000E+00  9.000E+00
      21     1     1     2   511   501 -2.514817115E+01  5.467349174E+00 -1.961448238E+02  1.978259698E+02  3.814697266E-06  0.00000E+00  9.000E+00
#rwgt            1           1   4.2862633003682850E-002           9      264110           0
</event>
<event>
      5   9999  3.79277E-02  2.22545E+01 -1.00000E+00  1.62630E-01
      21    -1     0     0   502   501  0.000000000E+00  0.000000000E+00  8.357667307E+02  8.357667307E+02  0.000000000E+00  0.00000E+00  9.000E+00
      21    -1     0     0   512   502  0.000000000E+00  0.000000000E+00 -4.884686538E+02  4.884686538E+02  0.000000000E+00  0.00000E+00  9.000E+00
      25     1     1     2     0     0  6.305767326E+01  1.799983896E+02  4.913929347E+02  5.417265977E+02  1.250000000E+02  0.00000E+00  9.000E+00
      25     1     1     2     0     0 -7.264964769E+01 -1.599171614E+02  2.824838541E+02  3.553499650E+02  1.250000000E+02  0.00000E+00  9.000E+00
      21     1     1     2   512   501  9.591974433E+00 -2.008122815E+01 -4.265787118E+02  4.271588219E+02  0.000000000E+00  0.00000E+00  9.000E+00
#rwgt            1           1   3.5831709577985579E-002           9      264299           0
</event>
<event>
      5   9999  3.79277E-02  2.11276E+01 -1.00000E+00  1.64427E-01
      21    -1     0     0   502   501  0.000000000E+00  0.000000000E+00  1.960239394E+02  1.960239394E+02  0.000000000E+00  0.00000E+00  9.000E+00
      21    -1     0     0   501   511  0.000000000E+00  0.000000000E+00 -5.154004425E+02  5.154004425E+02  0.000000000E+00  0.00000E+00  9.000E+00
      25     1     1     2     0     0 -1.045573045E+02 -1.985929335E+02 -3.178342060E+02  4.086746453E+02  1.250000000E+02  0.00000E+00  9.000E+00
      25     1     1     2     0     0  1.207977946E+02  1.850791853E+02  3.913737301E+01  2.569107743E+02  1.250000000E+02  0.00000E+00  9.000E+00
      21     1     1     2   502   511 -1.624049011E+01  1.351374827E+01 -4.067967009E+01  4.583896236E+01  1.168007728E-06  0.00000E+00  9.000E+00
#rwgt            1           1   5.0645178914220344E-002           9      264481           0
</event>
<event>
      5   9999  3.79277E-02  5.20806E+01 -1.00000E+00  1.38073E-01
      21    -1     0     0   502   501  0.000000000E+00  0.000000000E+00  5.394224550E+02  5.394224550E+02  0.000000000E+00  0.00000E+00  9.000E+00
      21    -1     0     0   512   502  0.000000000E+00  0.000000000E+00 -1.341032029E+02  1.341032029E+02  0.000000000E+00  0.00000E+00  9.000E+00
      25     1     1     2     0     0  4.859940918E+01 -1.906293836E+02  2.023296002E+02  3.086482327E+02  1.250000000E+02  0.00000E+00  9.000E+00
      25     1     1     2     0     0 -7.642309594E+01  1.466040669E+02  2.271216381E+02  3.074776098E+02  1.250000000E+02  0.00000E+00  9.000E+00
      21     1     1     2   512   501  2.782368676E+01  4.402531672E+01 -2.413198610E+01  5.739981542E+01  4.768371582E-07  0.00000E+00  9.000E+00
#rwgt            1           1   8.4895137029787571E-002           9      264655           0
</event>
<event>
      5   9999  3.79277E-02  5.98842E+00 -1.00000E+00  2.25602E-01
      21    -1     0     0   502   501  0.000000000E+00  0.000000000E+00  1.421087771E+02  1.421087771E+02  0.000000000E+00  0.00000E+00  9.000E+00
      21    -1     0     0   511   502  0.000000000E+00  0.000000000E+00 -1.189622640E+03  1.189622640E+03  0.000000000E+00  0.00000E+00  9.000E+00
      25     1     1     2     0     0  1.119281429E+02  5.317053969E+01 -2.596467532E+01  1.779162158E+02  1.250000000E+02  0.00000E+00  9.000E+00
      25     1     1     2     0     0 -1.141219134E+02 -4.759842120E+01 -5.075711649E+01  1.830046603E+02  1.250000000E+02  0.00000E+00  9.000E+00
      21     1     1     2   511   501  2.193770544E+00 -5.572118490E+00 -9.707920714E+02  9.708105413E+02  0.000000000E+00  0.00000E+00  9.000E+00
#rwgt            1           1   2.4822505452218049E-002           9      264768           0
</event>
<event>
      5   9999 -3.79277E-02  8.92721E+01 -1.00000E+00  1.26086E-01
      21    -1     0     0   512   501  0.000000000E+00  0.000000000E+00  8.938517336E+01  8.938517336E+01  0.000000000E+00  0.00000E+00  9.000E+00
      21    -1     0     0   501   502  0.000000000E+00  0.000000000E+00 -6.632525528E+02  6.632525528E+02  0.000000000E+00  0.00000E+00  9.000E+00
      25     1     1     2     0     0  1.135633415E+02  8.126118856E+01 -2.752077128E+02  3.329629085E+02  1.250000000E+02  0.00000E+00  9.000E+00
      25     1     1     2     0     0 -1.560351791E+02 -2.739573602E+00 -2.421010556E+02  3.139942731E+02  1.250000000E+02  0.00000E+00  9.000E+00
      21     1     1     2   512   502  4.247183769E+01 -7.852161495E+01 -5.655861105E+01  1.056805445E+02  2.611744678E-06  0.00000E+00  9.000E+00
#rwgt            1           1  -1.9342421632326030E-002           9      265012           0
</event>
<event>
      5   9999  3.79277E-02  1.67849E+01 -1.00000E+00  1.72904E-01
      21    -1     0     0   502   501  0.000000000E+00  0.000000000E+00  8.907917868E+01  8.907917868E+01  0.000000000E+00  0.00000E+00  9.000E+00
      21    -1     0     0   511   502  0.000000000E+00  0.000000000E+00 -8.427363561E+02  8.427363561E+02  0.000000000E+00  0.00000E+00  9.000E+00
      25     1     1     2     0     0 -6.013759308E+01  2.066220901E+02 -2.848608827E+02  3.782590920E+02  1.250000000E+02  0.00000E+00  9.000E+00
      25     1     1     2     0     0  6.858895796E+01 -2.211240770E+02 -3.739420697E+02  4.572285797E+02  1.250000000E+02  0.00000E+00  9.000E+00
      21     1     1     2   511   501 -8.451364882E+00  1.450198694E+01 -9.485422502E+01  9.632786304E+01  1.348699152E-06  0.00000E+00  9.000E+00
#rwgt            1           1   3.4714923135763485E-002           9      265115           0
</event>
<event>
      5   9999  3.79277E-02  6.00939E+01 -1.00000E+00  1.34667E-01
      21    -1     0     0   502   501  0.000000000E+00  0.000000000E+00  2.452544769E+02  2.452544769E+02  0.000000000E+00  0.00000E+00  9.000E+00
      21    -1     0     0   501   512  0.000000000E+00  0.000000000E+00 -2.954185458E+02  2.954185458E+02  0.000000000E+00  0.00000E+00  9.000E+00
      25     1     1     2     0     0  9.923173432E-01 -2.178376229E+02 -2.182725452E+01  2.521024468E+02  1.250000000E+02  0.00000E+00  9.000E+00
      25     1     1     2     0     0 -3.215526119E+01  1.664553012E+02  1.981749108E+01  2.115633736E+02  1.250000000E+02  0.00000E+00  9.000E+00
      21     1     1     2   502   512  3.116294385E+01  5.138232174E+01 -4.815430549E+01  7.700720222E+01  1.168007728E-06  0.00000E+00  9.000E+00
#rwgt            1           1   4.5218126648221932E-002           9      265353           0
</event>
<event>
      5   9999  3.79277E-02  1.33023E+01 -1.00000E+00  1.82443E-01
      21    -1     0     0   502   511  0.000000000E+00  0.000000000E+00  2.167368606E+02  2.167368606E+02  0.000000000E+00  0.00000E+00  9.000E+00
      21    -1     0     0   501   502  0.000000000E+00  0.000000000E+00 -1.801345458E+02  1.801345458E+02  0.000000000E+00  0.00000E+00  9.000E+00
      25     1     1     2     0     0 -1.122582921E+02  1.690370911E+01  6.663575404E+01  1.815295658E+02  1.250000000E+02  0.00000E+00  9.000E+00
      25     1     1     2     0     0  1.255591456E+02 -1.670653434E+01 -5.566733175E+01  1.864619510E+02  1.250000000E+02  0.00000E+00  9.000E+00
      21     1     1     2   501   511 -1.330085345E+01 -1.971747728E-01  2.563389254E+01  2.887988966E+01  0.000000000E+00  0.00000E+00  9.000E+00
#rwgt            1           1   4.6044170918550641E-002           9      265421           0
</event>
<event>
      5   9999  3.79277E-02  6.16319E+01 -1.00000E+00  1.34084E-01
      21    -1     0     0   512   501  0.000000000E+00  0.000000000E+00  1.375525107E+02  1.375525107E+02  0.000000000E+00  0.00000E+00  9.000E+00
      21    -1     0     0   501   502  0.000000000E+00  0.000000000E+00 -1.060180189E+03  1.060180189E+03  0.000000000E+00  0.00000E+00  9.000E+00
      25     1     1     2     0     0 -1.217207671E+02 -7.543334631E+01 -5.756888937E+02  6.062580616E+02  1.250000000E+02  0.00000E+00  9.000E+00
      25     1     1     2     0     0  1.400126292E+02  1.657847868E+01 -4.406886066E+02  4.792805341E+02  1.250000000E+02  0.00000E+00  9.000E+00
      21     1     1     2   512   502 -1.829186215E+01  5.885486763E+01  9.374982247E+01  1.121941036E+02  4.046097457E-06  0.00000E+00  9.000E+00
#rwgt            1           1   4.3005130960643949E-002           9      265734           0
</event>
<event>
      5   9999  3.79277E-02  1.00752E+02 -1.00000E+00  1.23682E-01
      21    -1     0     0   511   501  0.000000000E+00  0.000000000E+00  1.821558340E+02  1.821558340E+02  0.000000000E+00  0.00000E+00  9.000E+00
      21    -1     0     0   501   502  0.000000000E+00  0.000000000E+00 -6.710134028E+02  6.710134028E+02  0.000000000E+00  0.00000E+00  9.000E+00
      25     1     1     2     0     0  2.057154225E+02 -2.117958526E+02 -3.762337559E+02  4.943209052E+02  1.250000000E+02  0.00000E+00  9.000E+00
      25     1     1     2     0     0 -1.534461954E+02  1.256623442E+02 -1.076494192E+02  2.579731713E+02  1.250000000E+02  0.00000E+00  9.000E+00
      21     1     1     2   511   502 -5.226922705E+01  8.613350847E+01 -4.974393697E+00  1.008751603E+02  9.812162896E-07  0.00000E+00  9.000E+00
#rwgt            2          11   2.7443160951857500E-003           9      265896           0
</event>
<event>
      5   9999 -3.79277E-02  2.94470E+01 -1.00000E+00  1.53603E-01
      21    -1     0     0   502   512  0.000000000E+00  0.000000000E+00  5.257769960E+01  5.257769960E+01  0.000000000E+00  0.00000E+00  9.000E+00
      21    -1     0     0   501   502  0.000000000E+00  0.000000000E+00 -9.995837218E+02  9.995837218E+02  0.000000000E+00  0.00000E+00  9.000E+00
      25     1     1     2     0     0 -4.229121673E+01 -1.622256967E+02 -4.056375806E+02  4.563688973E+02  1.250000000E+02  0.00000E+00  9.000E+00
      25     1     1     2     0     0  1.289846811E+01  1.640121690E+02 -5.195970931E+02  5.591712629E+02  1.250000000E+02  0.00000E+00  9.000E+00
      21     1     1     2   501   512  2.939274862E+01 -1.786472287E+00 -2.177134849E+01  3.662126118E+01  2.384185791E-07  0.00000E+00  9.000E+00
#rwgt            1           1 -0.18901146143603120                9      266111           0
</event>
<event>
      5   9999  3.79277E-02  5.87266E+00 -1.00000E+00  2.26928E-01
      21    -1     0     0   511   501  0.000000000E+00  0.000000000E+00  3.934549990E+02  3.934549990E+02  0.000000000E+00  0.00000E+00  9.000E+00
      21    -1     0     0   501   502  0.000000000E+00  0.000000000E+00 -3.148184985E+02  3.148184985E+02  0.000000000E+00  0.00000E+00  9.000E+00
      25     1     1     2     0     0 -2.040042766E+02 -1.327847625E+02 -1.679090795E+02  3.210420486E+02  1.250000000E+02  0.00000E+00  9.000E+00
      25     1     1     2     0     0  2.071350503E+02  1.377533067E+02  2.061609454E+02  3.464220518E+02  1.250000000E+02  0.00000E+00  9.000E+00
      21     1     1     2   511   502 -3.130773709E+00 -4.968544205E+00  4.038463456E+01  4.080939701E+01  0.000000000E+00  0.00000E+00  9.000E+00
#rwgt            1           1   3.2136845884384944E-002           9      266255           0
</event>
<event>
      5   9999  3.79277E-02  1.96916E+01 -1.00000E+00  1.66928E-01
      21    -1     0     0   502   512  0.000000000E+00  0.000000000E+00  1.218636283E+03  1.218636283E+03  0.000000000E+00  0.00000E+00  9.000E+00
      21    -1     0     0   501   502  0.000000000E+00  0.000000000E+00 -1.892699289E+02  1.892699289E+02  0.000000000E+00  0.00000E+00  9.000E+00
      25     1     1     2     0     0  6.710873160E+01  1.089850193E+02 -2.382632152E+01  1.804827135E+02  1.250000000E+02  0.00000E+00  9.000E+00
      25     1     1     2     0     0 -4.853503546E+01 -1.024447429E+02 -5.219871635E+00  1.688277882E+02  1.250000000E+02  0.00000E+00  9.000E+00
      21     1     1     2   501   512 -1.857369613E+01 -6.540276340E+00  1.058412548E+03  1.058595710E+03  1.525878906E-05  0.00000E+00  9.000E+00
#rwgt            1           1   4.4968389071349570E-002           9      266640           0
</event>
<event>
      5   9999  3.79277E-02  9.72753E+01 -1.00000E+00  1.24370E-01
      21    -1     0     0   502   501  0.000000000E+00  0.000000000E+00  5.951224883E+02  5.951224883E+02  0.000000000E+00  0.00000E+00  9.000E+00
      21    -1     0     0   511   502  0.000000000E+00  0.000000000E+00 -5.886865067E+02  5.886865067E+02  0.000000000E+00  0.00000E+00  9.000E+00
      25     1     1     2     0     0 -6.366202799E+01  3.664260229E+02  2.040596543E+02  4.422513161E+02  1.250000000E+02  0.00000E+00  9.000E+00
      25     1     1     2     0     0  1.292747216E+02 -2.946106304E+02  1.531050585E+02  3.775891102E+02  1.250000000E+02  0.00000E+00  9.000E+00
      21     1     1     2   511   501 -6.561269362E+01 -7.181539255E+01 -3.507287312E+02  3.639685688E+02  3.814697266E-06  0.00000E+00  9.000E+00
#rwgt            1           1   3.5294512079482851E-002           9      266885           0
</event>
<event>
      5   9999  3.79277E-02  2.02020E+01 -1.00000E+00  1.66010E-01
      -1    -1     0     0     0   501  0.000000000E+00  0.000000000E+00  5.349736312E+02  5.349736312E+02  0.000000000E+00  0.00000E+00  9.000E+00
      21    -1     0     0   501   502  0.000000000E+00  0.000000000E+00 -2.917941955E+02  2.917941955E+02  0.000000000E+00  0.00000E+00  9.000E+00
      25     1     1     2     0     0  3.900793874E+01  1.065131370E+02 -2.538195489E+00  1.688138326E+02  1.250000000E+02  0.00000E+00  9.000E+00
      25     1     1     2     0     0 -2.542055379E+01 -1.214631761E+02 -1.681972853E+02  2.435463703E+02  1.250000000E+02  0.00000E+00  9.000E+00
      -1     1     1     2     0   502 -1.358738495E+01  1.495003912E+01  4.139149164E+02  4.144076239E+02  0.000000000E+00  0.00000E+00  9.000E+00
#rwgt            1           1   3.7430767372619869E-002           9      267134           0
</event>
<event>
      5   9999  3.79277E-02  5.42887E+01 -1.00000E+00  1.37067E-01
      21    -1     0     0   511   501  0.000000000E+00  0.000000000E+00  5.287815755E+02  5.287815755E+02  0.000000000E+00  0.00000E+00  9.000E+00
      21    -1     0     0   501   502  0.000000000E+00  0.000000000E+00 -2.228349817E+02  2.228349817E+02  0.000000000E+00  0.00000E+00  9.000E+00
      25     1     1     2     0     0  5.862608220E+01 -1.975765102E+02  1.229743511E+01  2.413497914E+02  1.250000000E+02  0.00000E+00  9.000E+00
      25     1     1     2     0     0 -5.176873497E+00  2.070866160E+02  3.318938513E+01  2.442093402E+02  1.250000000E+02  0.00000E+00  9.000E+00
      21     1     1     2   511   502 -5.344920870E+01 -9.510105819E+00  2.604597736E+02  2.660574256E+02  3.814697266E-06  0.00000E+00  9.000E+00
#rwgt            1           1   3.9638907432718050E-002           9      267305           0
</event>
<event>
      5   9999  3.79277E-02  4.97786E+01 -1.00000E+00  1.39186E-01
      21    -1     0     0   502   512  0.000000000E+00  0.000000000E+00  1.148579498E+03  1.148579498E+03  0.000000000E+00  0.00000E+00  9.000E+00
      21    -1     0     0   501   502  0.000000000E+00  0.000000000E+00 -1.042307178E+02  1.042307178E+02  0.000000000E+00  0.00000E+00  9.000E+00
      25     1     1     2     0     0 -1.259275444E+02 -1.041821979E+02  3.042841286E+02  3.673220763E+02  1.250000000E+02  0.00000E+00  9.000E+00
      25     1     1     2     0     0  1.700195570E+02  8.107805524E+01  1.063670873E+02  2.498384640E+02  1.250000000E+02  0.00000E+00  9.000E+00
      21     1     1     2   501   512 -4.409201265E+01  2.310414263E+01  6.336975646E+02  6.356496758E+02  7.629394531E-06  0.00000E+00  9.000E+00
#rwgt            1           1   3.2332569914493042E-002           9      267521           0
</event>
<event>
      5   9999  3.79277E-02  5.67744E+01 -1.00000E+00  1.35998E-01
      21    -1     0     0   502   501  0.000000000E+00  0.000000000E+00  6.368684536E+01  6.368684536E+01  0.000000000E+00  0.00000E+00  9.000E+00
       2    -1     0     0   501     0  0.000000000E+00  0.000000000E+00 -7.936070089E+02  7.936070089E+02  0.000000000E+00  0.00000E+00  9.000E+00
      25     1     1     2     0     0  6.349461306E+00  4.088217367E+01 -3.563197658E+01  1.364049322E+02  1.250000000E+02  0.00000E+00  9.000E+00
      25     1     1     2     0     0 -5.365277494E+01 -9.485881281E+00 -5.203289597E+02  5.378994595E+02  1.250000000E+02  0.00000E+00  9.000E+00
       2     1     1     2   502     0  4.730331363E+01 -3.139629239E+01 -1.739592272E+02  1.829894625E+02  3.303624740E-06  0.00000E+00  9.000E+00
#rwgt            1           1   4.5003796011507030E-002           9      267692           0
</event>
<event>
      5   9999  3.79277E-02  5.49678E+01 -1.00000E+00  1.36768E-01
      21    -1     0     0   511   501  0.000000000E+00  0.000000000E+00  4.050214824E+02  4.050214824E+02  0.000000000E+00  0.00000E+00  9.000E+00
      21    -1     0     0   501   502  0.000000000E+00  0.000000000E+00 -1.110806787E+02  1.110806787E+02  0.000000000E+00  0.00000E+00  9.000E+00
      25     1     1     2     0     0  1.098941804E+02  1.220839853E+01  1.045935081E+02  1.969532377E+02  1.250000000E+02  0.00000E+00  9.000E+00
      25     1     1     2     0     0 -1.417265279E+02 -5.702088655E+01  1.213315501E+02  2.316983713E+02  1.250000000E+02  0.00000E+00  9.000E+00
      21     1     1     2   511   502  3.183234752E+01  4.481248802E+01  6.801574551E+01  8.745055213E+01  9.536743164E-07  0.00000E+00  9.000E+00
#rwgt            2          11   2.1523365808348983E-003           9      267996           0
</event>
<event>
      5   9999  3.79277E-02  1.74250E+01 -1.00000E+00  1.71464E-01
      21    -1     0     0   502   501  0.000000000E+00  0.000000000E+00  9.962657374E+02  9.962657374E+02  0.000000000E+00  0.00000E+00  9.000E+00
      21    -1     0     0   512   502  0.000000000E+00  0.000000000E+00 -2.693454311E+02  2.693454311E+02  0.000000000E+00  0.00000E+00  9.000E+00
      25     1     1     2     0     0  1.991417238E+02 -1.680314579E+02  2.428236019E+02  3.774656258E+02  1.250000000E+02  0.00000E+00  9.000E+00
      25     1     1     2     0     0 -2.163912702E+02  1.655649544E+02  6.529085035E+02  7.184368099E+02  1.250000000E+02  0.00000E+00  9.000E+00
      21     1     1     2   512   501  1.724954646E+01  2.466503495E+00 -1.688117991E+02  1.697087328E+02  0.000000000E+00  0.00000E+00  9.000E+00
#rwgt            1           1   3.6410804132598409E-002           9      268046           0
</event>
<event>
      5   9999  3.79277E-02  4.67425E+01 -1.00000E+00  1.40766E-01
      21    -1     0     0   502   501  0.000000000E+00  0.000000000E+00  3.468626906E+02  3.468626906E+02  0.000000000E+00  0.00000E+00  9.000E+00
      21    -1     0     0   501   511  0.000000000E+00  0.000000000E+00 -2.303490402E+02  2.303490402E+02  0.000000000E+00  0.00000E+00  9.000E+00
      25     1     1     2     0     0 -2.103213256E+02 -7.236045102E+00  7.945988033E+01  2.573446967E+02  1.250000000E+02  0.00000E+00  9.000E+00
      25     1     1     2     0     0  1.782946738E+02 -2.681026404E+01  1.002923263E+02  2.412287953E+02  1.250000000E+02  0.00000E+00  9.000E+00
      21     1     1     2   502   511  3.202665188E+01  3.404630914E+01 -6.323855629E+01  7.863823878E+01  1.651812370E-06  0.00000E+00  9.000E+00
#rwgt            1           1   2.3581861796775214E-002           9      268303           0
</event>
<event>
      5   9999  3.79277E-02  5.60828E+00 -1.00000E+00  2.30124E-01
      21    -1     0     0   502   501  0.000000000E+00  0.000000000E+00  4.689969340E+02  4.689969340E+02  0.000000000E+00  0.00000E+00  9.000E+00
      21    -1     0     0   501   512  0.000000000E+00  0.000000000E+00 -1.472533593E+02  1.472533593E+02  0.000000000E+00  0.00000E+00  9.000E+00
      25     1     1     2     0     0  1.853570108E+01 -1.366779716E+02  2.149586554E+02  2.843530616E+02  1.250000000E+02  0.00000E+00  9.000E+00
      25     1     1     2     0     0 -1.342058925E+01  1.389776379E+02  1.791839641E+02  2.592812933E+02  1.250000000E+02  0.00000E+00  9.000E+00
      21     1     1     2   502   512 -5.115111825E+00 -2.299666315E+00 -7.239904477E+01  7.261593846E+01  9.536743164E-07  0.00000E+00  9.000E+00
#rwgt            1           1   4.3170162664481940E-002           9      268508           0
</event>
<event>
      5   9999  3.79277E-02  4.89230E+01 -1.00000E+00  1.39617E-01
      21    -1     0     0   511   501  0.000000000E+00  0.000000000E+00  1.434318193E+03  1.434318193E+03  0.000000000E+00  0.00000E+00  9.000E+00
      21    -1     0     0   501   502  0.000000000E+00  0.000000000E+00 -7.491513798E+01  7.491513798E+01  0.000000000E+00  0.00000E+00  9.000E+00
      25     1     1     2     0     0  1.563263838E+02 -7.280888780E+01  4.065908146E+02  4.589990882E+02  1.250000000E+02  0.00000E+00  9.000E+00
      25     1     1     2     0     0 -1.347236533E+02  1.167039942E+02  1.993568640E+02  2.951922157E+02  1.250000000E+02  0.00000E+00  9.000E+00
      21     1     1     2   511   502 -2.160273050E+01 -4.389510636E+01  7.534553763E+02  7.550420269E+02  0.000000000E+00  0.00000E+00  9.000E+00
#rwgt            1           1   3.3727564120428793E-002           9      268980           0
</event>
<event>
      5   9999  3.79277E-02  1.55707E+02 -1.00000E+00  1.15755E-01
      21    -1     0     0   502   501  0.000000000E+00  0.000000000E+00  3.518637992E+02  3.518637992E+02  0.000000000E+00  0.00000E+00  9.000E+00
       2    -1     0     0   501     0  0.000000000E+00  0.000000000E+00 -1.026542180E+03  1.026542180E+03  0.000000000E+00  0.00000E+00  9.000E+00
      25     1     1     2     0     0 -1.659653781E+02 -9.852176694E+01 -1.227407203E+02  2.606555768E+02  1.250000000E+02  0.00000E+00  9.000E+00
      25     1     1     2     0     0  3.078015042E+02  1.627640528E+02  1.496689633E+02  3.990735539E+02  1.250000000E+02  0.00000E+00  9.000E+00
       2     1     1     2   502     0 -1.418361261E+02 -6.424228583E+01 -7.016066233E+02  7.186768480E+02  1.525878906E-05  0.00000E+00  9.000E+00
#rwgt            1           1   3.4928588412477084E-002           9      269119           0
</event>
<event>
      5   9999  3.79277E-02  1.09520E+02 -1.00000E+00  1.22077E-01
      21    -1     0     0   502   501  0.000000000E+00  0.000000000E+00  2.529462068E+02  2.529462068E+02  0.000000000E+00  0.00000E+00  9.000E+00
      21    -1     0     0   501   511  0.000000000E+00  0.000000000E+00 -4.638128699E+02  4.638128699E+02  0.000000000E+00  0.00000E+00  9.000E+00
      25     1     1     2     0     0  1.042091020E+02 -1.666015066E+02 -1.697892697E+02  2.882169236E+02  1.250000000E+02  0.00000E+00  9.000E+00
      25     1     1     2     0     0 -8.337847154E+01  2.741221697E+02 -3.077022126E+00  3.126170205E+02  1.250000000E+02  0.00000E+00  9.000E+00
      21     1     1     2   502   511 -2.083063046E+01 -1.075206631E+02 -3.800037129E+01  1.159251326E+02  1.651812370E-06  0.00000E+00  9.000E+00
#rwgt            1           1   3.0071554312906954E-002           9      269169           0
</event>
<event>
      5   9999  3.79277E-02  3.53013E+01 -1.00000E+00  1.48288E-01
      21    -1     0     0   512   501  0.000000000E+00  0.000000000E+00  1.036916442E+02  1.036916442E+02  0.000000000E+00  0.00000E+00  9.000E+00
      21    -1     0     0   501   502  0.000000000E+00  0.000000000E+00 -1.253710921E+03  1.253710921E+03  0.000000000E+00  0.00000E+00  9.000E+00
      25     1     1     2     0     0  2.366269326E+02  1.289733104E+02 -6.568085719E+02  7.208667839E+02  1.250000000E+02  0.00000E+00  9.000E+00
      25     1     1     2     0     0 -2.272984740E+02 -9.492688025E+01 -5.222659341E+02  5.908150428E+02  1.250000000E+02  0.00000E+00  9.000E+00
      21     1     1     2   512   502 -9.328458613E+00 -3.404643017E+01  2.905522948E+01  4.572073826E+01  1.261592536E-06  0.00000E+00  9.000E+00
#rwgt            1           1   3.0352919800669381E-002           9      269240           0
</event>
<event>
      5   9999  3.79277E-02  1.60553E+02 -1.00000E+00  1.15235E-01
      21    -1     0     0   502   511  0.000000000E+00  0.000000000E+00  6.116898581E+02  6.116898581E+02  0.000000000E+00  0.00000E+00  9.000E+00
      21    -1     0     0   501   502  0.000000000E+00  0.000000000E+00 -4.505371309E+02  4.505371309E+02  0.000000000E+00  0.00000E+00  9.000E+00
      25     1     1     2     0     0  2.793012853E+02 -9.824638398E+00 -1.123993520E+02  3.261354716E+02  1.250000000E+02  0.00000E+00  9.000E+00
      25     1     1     2     0     0 -1.843401205E+02 -1.196339435E+02 -1.424443169E+02  2.901877735E+02  1.250000000E+02  0.00000E+00  9.000E+00
      21     1     1     2   501   511 -9.496116476E+01  1.294585819E+02  4.159963962E+02  4.459037439E+02  7.629394531E-06  0.00000E+00  9.000E+00
#rwgt            1           1   7.7198189483950408E-002           9      269367           0
</event>
<event>
      5   9999  3.79277E-02  1.15285E+02 -1.00000E+00  1.21112E-01
      21    -1     0     0   512   501  0.000000000E+00  0.000000000E+00  7.449352356E+02  7.449352356E+02  0.000000000E+00  0.00000E+00  9.000E+00
      21    -1     0     0   501   502  0.000000000E+00  0.000000000E+00 -1.165085848E+03  1.165085848E+03  0.000000000E+00  0.00000E+00  9.000E+00
      25     1     1     2     0     0 -5.094715647E+01  4.235844482E+01 -1.340265887E+02  1.948793911E+02  1.250000000E+02  0.00000E+00  9.000E+00
      25     1     1     2     0     0 -2.648423052E+01 -1.277688870E+02 -9.877324562E+02  1.004124847E+03  1.250000000E+02  0.00000E+00  9.000E+00
      21     1     1     2   512   502  7.743138699E+01  8.541044214E+01  7.016084322E+02  7.110168461E+02  0.000000000E+00  0.00000E+00  9.000E+00
#rwgt            1           1   3.4572569002060197E-002           9      269428           0
</event>
<event>
      5   9999  3.79277E-02  4.08485E+01 -1.00000E+00  1.44277E-01
      21    -1     0     0   502   511  0.000000000E+00  0.000000000E+00  1.525830243E+03  1.525830243E+03  0.000000000E+00  0.00000E+00  9.000E+00
      21    -1     0     0   501   502  0.000000000E+00  0.000000000E+00 -2.061998139E+02  2.061998139E+02  0.000000000E+00  0.00000E+00  9.000E+00
      25     1     1     2     0     0  6.198392368E+01 -3.936198794E+01 -1.714603697E+02  2.245329180E+02  1.250000000E+02  0.00000E+00  9.000E+00
      25     1     1     2     0     0 -9.033410103E+01  9.953333689E+00  7.759518516E+02  7.911925143E+02  1.250000000E+02  0.00000E+00  9.000E+00
      21     1     1     2   501   511  2.835017735E+01  2.940865425E+01  7.151389469E+02  7.163046243E+02  7.629394531E-06  0.00000E+00  9.000E+00
#rwgt            1           1   6.3905813899221384E-002           9      269488           0
</event>
<event>
      5   9999  3.79277E-02  1.06609E+02 -1.00000E+00  1.22591E-01
      21    -1     0     0   502   512  0.000000000E+00  0.000000000E+00  7.399482799E+01  7.399482799E+01  0.000000000E+00  0.00000E+00  9.000E+00
      21    -1     0     0   501   502  0.000000000E+00  0.000000000E+00 -7.270592129E+02  7.270592129E+02  0.000000000E+00  0.00000E+00  9.000E+00
      25     1     1     2     0     0 -9.690765453E+01 -8.710514385E+01 -3.361866430E+02  3.816082527E+02  1.250000000E+02  0.00000E+00  9.000E+00
      25     1     1     2     0     0  1.024702160E+02 -1.935899063E+01 -2.307516264E+02  2.823937477E+02  1.250000000E+02  0.00000E+00  9.000E+00
      21     1     1     2   501   512 -5.562561441E+00  1.064641345E+02 -8.612611552E+01  1.370520405E+02  2.132480600E-06  0.00000E+00  9.000E+00
#rwgt            1           1   3.8245402637566053E-002           9      269704           0
</event>
<event>
      5   9999  3.79277E-02  3.23085E+01 -1.00000E+00  1.50837E-01
      21    -1     0     0   502   501  0.000000000E+00  0.000000000E+00  2.515671539E+01  2.515671539E+01  0.000000000E+00  0.00000E+00  9.000E+00
      21    -1     0     0   511   502  0.000000000E+00  0.000000000E+00 -3.123136439E+03  3.123136439E+03  0.000000000E+00  0.00000E+00  9.000E+00
      25     1     1     2     0     0 -8.707933322E+01 -1.021706076E+02 -2.034211512E+03  2.042464961E+03  1.250000000E+02  0.00000E+00  9.000E+00
      25     1     1     2     0     0  1.193840899E+02  1.016809765E+02 -4.676493911E+02  5.088344868E+02  1.250000000E+02  0.00000E+00  9.000E+00
      21     1     1     2   511   501 -3.230475665E+01  4.896311317E-01 -5.961188210E+02  5.969937066E+02  7.629394531E-06  0.00000E+00  9.000E+00
#rwgt            1           1   6.8317963366863466E-002           9      269761           0
</event>
<event>
      5   9999 -3.79277E-02  5.32788E+01 -1.00000E+00  1.37520E-01
      21    -1     0     0   502   501  0.000000000E+00  0.000000000E+00  2.568176797E+02  2.568176797E+02  0.000000000E+00  0.00000E+00  9.000E+00
      21    -1     0     0   512   502  0.000000000E+00  0.000000000E+00 -7.643632783E+02  7.643632783E+02  0.000000000E+00  0.00000E+00  9.000E+00
      25     1     1     2     0     0 -2.084646435E+02  1.806615823E+02  7.889212610E+01  3.129617907E+02  1.250000000E+02  0.00000E+00  9.000E+00
      25     1     1     2     0     0  2.615887924E+02 -1.847182640E+02 -5.049153277E+02  6.108305997E+02  1.250000000E+02  0.00000E+00  9.000E+00
      21     1     1     2   512   501 -5.312414900E+01  4.056681617E+00 -8.152239704E+01  9.738856756E+01  1.651812370E-06  0.00000E+00  9.000E+00
#rwgt            1           1 -0.11852894360521751                9      269988           0
</event>
<event>
      5   9999  3.79277E-02  2.56899E+01 -1.00000E+00  1.57870E-01
      21    -1     0     0   502   511  0.000000000E+00  0.000000000E+00  2.656801764E+02  2.656801764E+02  0.000000000E+00  0.00000E+00  9.000E+00
      21    -1     0     0   501   502  0.000000000E+00  0.000000000E+00 -9.574309810E+02  9.574309810E+02  0.000000000E+00  0.00000E+00  9.000E+00
      25     1     1     2     0     0  5.975776710E+00  1.766166108E+02 -5.991396108E+02  6.370419220E+02  1.250000000E+02  0.00000E+00  9.000E+00
      25     1     1     2     0     0  2.549738148E+00 -2.008506333E+02 -2.972028159E+02  3.798710200E+02  1.250000000E+02  0.00000E+00  9.000E+00
      21     1     1     2   501   511 -8.525514859E+00  2.423402245E+01  2.045916221E+02  2.061982155E+02  4.672030912E-06  0.00000E+00  9.000E+00
#rwgt            1           1   3.3526170627079903E-002           9      270085           0
</event>
<event>
      5   9999  3.79277E-02  2.01657E+01 -1.00000E+00  1.66074E-01
      21    -1     0     0   512   501  0.000000000E+00  0.000000000E+00  1.168729782E+02  1.168729782E+02  0.000000000E+00  0.00000E+00  9.000E+00
      21    -1     0     0   501   502  0.000000000E+00  0.000000000E+00 -5.520502031E+02  5.520502031E+02  0.000000000E+00  0.00000E+00  9.000E+00
      25     1     1     2     0     0 -1.945906042E+02  5.812667049E+01 -2.345150609E+02  3.344645376E+02  1.250000000E+02  0.00000E+00  9.000E+00
      25     1     1     2     0     0  1.957072958E+02 -7.826139532E+01 -1.959150261E+02  3.137417554E+02  1.250000000E+02  0.00000E+00  9.000E+00
      21     1     1     2   512   502 -1.116691568E+00  2.013472484E+01 -4.747137887E+00  2.071688834E+01  2.858538343E-07  0.00000E+00  9.000E+00
#rwgt            1           1   3.7343499902967092E-002           9      270297           0
</event>
<event>
      5   9999  3.79277E-02  1.63958E+02 -1.00000E+00  1.14883E-01
      21    -1     0     0   502   501  0.000000000E+00  0.000000000E+00  2.090498284E+02  2.090498284E+02  0.000000000E+00  0.00000E+00  9.000E+00
      -3    -1     0     0     0   502  0.000000000E+00  0.000000000E+00 -9.528506528E+02  9.528506528E+02  0.000000000E+00  0.00000E+00  9.000E+00
      25     1     1     2     0     0 -1.411042480E+02 -5.411932822E+01 -1.433037116E+02  2.428997000E+02  1.250000000E+02  0.00000E+00  9.000E+00
      25     1     1     2     0     0  3.780727103E+00 -3.545926047E+01  1.219170371E+02  1.782145252E+02  1.250000000E+02  0.00000E+00  9.000E+00
      -3     1     1     2     0   501  1.373235209E+02  8.957858870E+01 -7.224141500E+02  7.407862560E+02  7.629394531E-06  0.00000E+00  9.000E+00
#rwgt            1           1   4.4456466456953656E-002           9      270459           0
</event>
<event>
      5   9999 -3.79277E-02  3.24421E+01 -1.00000E+00  1.50716E-01
      21    -1     0     0   502   501  0.000000000E+00  0.000000000E+00  2.222038985E+02  2.222038985E+02  0.000000000E+00  0.00000E+00  9.000E+00
      21    -1     0     0   501   511  0.000000000E+00  0.000000000E+00 -2.316278025E+02  2.316278025E+02  0.000000000E+00  0.00000E+00  9.000E+00
      25     1     1     2     0     0 -4.657729562E+01 -9.353389837E+01  1.393114635E+02  2.143611870E+02  1.250000000E+02  0.00000E+00  9.000E+00
      25     1     1     2     0     0  2.632095768E+01  6.819276845E+01 -8.488165901E+01  1.678479744E+02  1.250000000E+02  0.00000E+00  9.000E+00
      21     1     1     2   502   511  2.025633794E+01  2.534112992E+01 -6.385370854E+01  7.162253966E+01  1.168007728E-06  0.00000E+00  9.000E+00
#rwgt            1           1  -8.3101667690746714E-002           9      270515           0
</event>
<event>
      5   9999  3.79277E-02  6.86607E+01 -1.00000E+00  1.31647E-01
       2    -1     0     0   502     0  0.000000000E+00  0.000000000E+00  1.299801017E+03  1.299801017E+03  0.000000000E+00  0.00000E+00  9.000E+00
      21    -1     0     0   501   502  0.000000000E+00  0.000000000E+00 -1.727370022E+02  1.727370022E+02  0.000000000E+00  0.00000E+00  9.000E+00
      25     1     1     2     0     0  3.864436610E+01 -1.240459430E+02 -7.893619741E+01  1.968164278E+02  1.250000000E+02  0.00000E+00  9.000E+00
      25     1     1     2     0     0 -5.468465975E+01  5.728521701E+01  1.283447102E+02  1.958810168E+02  1.250000000E+02  0.00000E+00  9.000E+00
       2     1     1     2   501     0  1.604029364E+01  6.676072599E+01  1.077655502E+03  1.079840575E+03  2.157918644E-05  0.00000E+00  9.000E+00
#rwgt            1           1   2.4097887912970160E-002           9      270634           0
</event>
<event>
      5   9999  3.79277E-02  6.54405E+01 -1.00000E+00  1.32719E-01
      21    -1     0     0   511   501  0.000000000E+00  0.000000000E+00  6.301673299E+02  6.301673299E+02  0.000000000E+00  0.00000E+00  9.000E+00
      21    -1     0     0   501   502  0.000000000E+00  0.000000000E+00 -2.414882619E+02  2.414882619E+02  0.000000000E+00  0.00000E+00  9.000E+00
      25     1     1     2     0     0 -3.361735769E+00 -2.745716431E+01  2.446595694E+02  2.761313131E+02  1.250000000E+02  0.00000E+00  9.000E+00
      25     1     1     2     0     0  5.512891687E+01 -1.257558477E+01 -2.015501036E+02  2.438130166E+02  1.250000000E+02  0.00000E+00  9.000E+00
      21     1     1     2   511   502 -5.176718110E+01  4.003274908E+01  3.455696021E+02  3.517112621E+02  5.394796609E-06  0.00000E+00  9.000E+00
#rwgt            1           1   4.4815096280484343E-002           9      270714           0
</event>
<event>
      5   9999  3.79277E-02  7.31788E+01 -1.00000E+00  1.30251E-01
      21    -1     0     0   502   501  0.000000000E+00  0.000000000E+00  1.676246243E+02  1.676246243E+02  0.000000000E+00  0.00000E+00  9.000E+00
       2    -1     0     0   501     0  0.000000000E+00  0.000000000E+00 -7.862999313E+02  7.862999313E+02  0.000000000E+00  0.00000E+00  9.000E+00
      25     1     1     2     0     0  5.964966384E+01 -5.271239227E+01  9.520868430E+01  1.761430449E+02  1.250000000E+02  0.00000E+00  9.000E+00
      25     1     1     2     0     0 -9.467897392E+01  1.169625967E+02 -3.046146985E+02  3.620213691E+02  1.250000000E+02  0.00000E+00  9.000E+00
       2     1     1     2   502     0  3.502931008E+01 -6.425020447E+01 -4.092692928E+02  4.157601416E+02  7.629394531E-06  0.00000E+00  9.000E+00
#rwgt            1           1   2.9779385935796876E-002           9      270856           0
</event>
<event>
      5   9999  3.79277E-02  4.50497E+01 -1.00000E+00  1.41709E-01
      21    -1     0     0   502   511  0.000000000E+00  0.000000000E+00  1.272022522E+02  1.272022522E+02  0.000000000E+00  0.00000E+00  9.000E+00
      21    -1     0     0   501   502  0.000000000E+00  0.000000000E+00 -2.218813197E+03  2.218813197E+03  0.000000000E+00  0.00000E+00  9.000E+00
      25     1     1     2     0     0  1.330495974E+02 -1.362827060E+02 -1.567227294E+03  1.583698697E+03  1.250000000E+02  0.00000E+00  9.000E+00
      25     1     1     2     0     0 -1.759857617E+02  1.499195061E+02 -6.107558996E+02  6.649019593E+02  1.250000000E+02  0.00000E+00  9.000E+00
      21     1     1     2   501   511  4.293616424E+01 -1.363680015E+01  8.637224889E+01  9.741479301E+01  4.672030912E-06  0.00000E+00  9.000E+00
#rwgt            2          11   8.9217465573824904E-003           9      271011           0
</event>
<event>
      5   9999  3.79277E-02  4.66799E+01 -1.00000E+00  1.40800E-01
      -4    -1     0     0     0   501  0.000000000E+00  0.000000000E+00  7.177984683E+02  7.177984683E+02  0.000000000E+00  0.00000E+00  9.000E+00
      21    -1     0     0   501   502  0.000000000E+00  0.000000000E+00 -2.452148504E+02  2.452148504E+02  0.000000000E+00  0.00000E+00  9.000E+00
      25     1     1     2     0     0  1.532642252E+02  8.497215361E+01 -5.801422330E+01  2.229368514E+02  1.250000000E+02  0.00000E+00  9.000E+00
      25     1     1     2     0     0 -1.979176503E+02 -7.136762913E+01  4.085088919E+01  2.481099150E+02  1.250000000E+02  0.00000E+00  9.000E+00
      -4     1     1     2     0   502  4.465342507E+01 -1.360452449E+01  4.897469520E+02  4.919665522E+02  5.394796609E-06  0.00000E+00  9.000E+00
#rwgt            1           1   4.3096823589546272E-002           9      271031           0
</event>
<event>
      5   9999  3.79277E-02  4.37879E+01 -1.00000E+00  1.42445E-01
      21    -1     0     0   511   501  0.000000000E+00  0.000000000E+00  5.325698475E+02  5.325698475E+02  0.000000000E+00  0.00000E+00  9.000E+00
      21    -1     0     0   501   502  0.000000000E+00  0.000000000E+00 -1.092371053E+02  1.092371053E+02  0.000000000E+00  0.00000E+00  9.000E+00
      25     1     1     2     0     0 -6.408911769E+01  1.145768133E+02  3.848860855E+02  4.254380800E+02  1.250000000E+02  0.00000E+00  9.000E+00
      25     1     1     2     0     0  3.519344900E+01 -8.167669582E+01 -6.593494904E+00  1.535517361E+02  1.250000000E+02  0.00000E+00  9.000E+00
      21     1     1     2   511   502  2.889566869E+01 -3.290011752E+01  4.504015156E+01  6.281713663E+01  4.768371582E-07  0.00000E+00  9.000E+00
#rwgt            1           1   4.4652721007983454E-002           9      271141           0
</event>
<event>
      5   9999  3.79277E-02  1.03928E+02 -1.00000E+00  1.23080E-01
      -3    -1     0     0     0   501  0.000000000E+00  0.000000000E+00  5.757600944E+02  5.757600944E+02  0.000000000E+00  0.00000E+00  9.000E+00
      21    -1     0     0   501   502  0.000000000E+00  0.000000000E+00 -6.674203312E+02  6.674203312E+02  0.000000000E+00  0.00000E+00  9.000E+00
      25     1     1     2     0     0 -6.873668895E+01  4.554536503E+01  3.317041658E+02  3.639392344E+02  1.250000000E+02  0.00000E+00  9.000E+00
      25     1     1     2     0     0  1.421746187E+01 -1.340256095E+02 -6.255010488E+02  6.519521165E+02  1.250000000E+02  0.00000E+00  9.000E+00
      -3     1     1     2     0   502  5.451922708E+01  8.848024448E+01  2.021366461E+02  2.272890747E+02  2.697398305E-06  0.00000E+00  9.000E+00
#rwgt            1           1  0.11400749160777623                9      271231           0
</event>
<event>
      5   9999  3.79277E-02  1.68498E+02 -1.00000E+00  1.14427E-01
      21    -1     0     0   502   501  0.000000000E+00  0.000000000E+00  3.369697988E+02  3.369697988E+02  0.000000000E+00  0.00000E+00  9.000E+00
       2    -1     0     0   501     0  0.000000000E+00  0.000000000E+00 -1.633569936E+03  1.633569936E+03  0.000000000E+00  0.00000E+00  9.000E+00
      25     1     1     2     0     0 -1.172099001E+02  7.916941749E+01  3.953698280E+01  1.928577983E+02  1.250000000E+02  0.00000E+00  9.000E+00
      25     1     1     2     0     0  1.806411761E+02  7.693310736E+01  1.533261214E+02  2.787182036E+02  1.250000000E+02  0.00000E+00  9.000E+00
       2     1     1     2   502     0 -6.343127601E+01 -1.561025249E+02 -1.489463242E+03  1.498963733E+03  3.737624730E-05  0.00000E+00  9.000E+00
#rwgt            1           1   3.5652625857552682E-002           9      271278           0
</event>
<event>
      5   9999  3.79277E-02  7.07391E+01 -1.00000E+00  1.30990E-01
      21    -1     0     0   502   501  0.000000000E+00  0.000000000E+00  2.948520066E+02  2.948520066E+02  0.000000000E+00  0.00000E+00  9.000E+00
      21    -1     0     0   511   502  0.000000000E+00  0.000000000E+00 -4.658290139E+02  4.658290139E+02  0.000000000E+00  0.00000E+00  9.000E+00
      25     1     1     2     0     0 -6.399111358E+01 -1.034189134E+02 -4.630016376E+01  1.804412354E+02  1.250000000E+02  0.00000E+00  9.000E+00
      25     1     1     2     0     0  8.627189379E+01  3.628035558E+01  1.967127200E+02  2.511573173E+02  1.250000000E+02  0.00000E+00  9.000E+00
      21     1     1     2   511   501 -2.228078021E+01  6.713855785E+01 -3.213895634E+02  3.290824678E+02  5.394796609E-06  0.00000E+00  9.000E+00
#rwgt            1           1   4.5859661928614417E-002           9      271360           0
</event>
<event>
      5   9999  3.79277E-02  1.93698E+01 -1.00000E+00  1.67525E-01
      21    -1     0     0   512   501  0.000000000E+00  0.000000000E+00  1.208294666E+02  1.208294666E+02  0.000000000E+00  0.00000E+00  9.000E+00
      21    -1     0     0   501   502  0.000000000E+00  0.000000000E+00 -2.013345637E+02  2.013345637E+02  0.000000000E+00  0.00000E+00  9.000E+00
      25     1     1     2     0     0 -2.289527707E+01  6.179940297E+01 -6.176319090E+01  1.542175466E+02  1.250000000E+02  0.00000E+00  9.000E+00
      25     1     1     2     0     0  3.628675274E+01 -4.780451827E+01 -3.460003760E+01  1.429131309E+02  1.250000000E+02  0.00000E+00  9.000E+00
      21     1     1     2   512   502 -1.339147567E+01 -1.399488470E+01  1.585813143E+01  2.503335276E+01  1.685873940E-07  0.00000E+00  9.000E+00
#rwgt            1           1   3.4909949257275065E-002           9      271569           0
</event>
<event>
      5   9999  3.79277E-02  7.69857E+01 -1.00000E+00  1.29162E-01
      21    -1     0     0   511   501  0.000000000E+00  0.000000000E+00  1.077341308E+03  1.077341308E+03  0.000000000E+00  0.00000E+00  9.000E+00
      21    -1     0     0   501   502  0.000000000E+00  0.000000000E+00 -1.829465918E+02  1.829465918E+02  0.000000000E+00  0.00000E+00  9.000E+00
      25     1     1     2     0     0 -3.083569043E+01 -2.154647522E+02  2.128313799E+02  3.290867598E+02  1.250000000E+02  0.00000E+00  9.000E+00
      25     1     1     2     0     0  9.986934357E+01  1.813890135E+02 -3.431364394E+00  2.418938492E+02  1.250000000E+02  0.00000E+00  9.000E+00
      21     1     1     2   511   502 -6.903365315E+01  3.407573863E+01  6.849947010E+02  6.893072911E+02  0.000000000E+00  0.00000E+00  9.000E+00
#rwgt            1           1   3.2795865057753913E-002           9      271739           0
</event>
<event>
      5   9999  3.79277E-02  2.71045E+02 -1.00000E+00  1.07044E-01
       2    -1     0     0   502     0  0.000000000E+00  0.000000000E+00  1.858945862E+03  1.858945862E+03  0.000000000E+00  0.00000E+00  9.000E+00
      21    -1     0     0   501   502  0.000000000E+00  0.000000000E+00 -2.591727605E+02  2.591727605E+02  0.000000000E+00  0.00000E+00  9.000E+00
      25     1     1     2     0     0 -1.334450024E+02  2.768143175E+02  3.828707676E+02  5.066051320E+02  1.250000000E+02  0.00000E+00  9.000E+00
      25     1     1     2     0     0 -1.268302690E+02 -3.524606543E+02  3.220181319E+01  3.962024568E+02  1.250000000E+02  0.00000E+00  9.000E+00
       2     1     1     2   501     0  2.602752715E+02  7.564633674E+01  1.184700520E+03  1.215311034E+03  0.000000000E+00  0.00000E+00  9.000E+00
#rwgt            1           1   3.9310815058911763E-002           9      271809           0
</event>
<event>
      5   9999  3.79277E-02  7.06898E+01 -1.00000E+00  1.31005E-01
      21    -1     0     0   502   511  0.000000000E+00  0.000000000E+00  1.456751119E+02  1.456751119E+02  0.000000000E+00  0.00000E+00  9.000E+00
      21    -1     0     0   501   502  0.000000000E+00  0.000000000E+00 -4.220722163E+02  4.220722163E+02  0.000000000E+00  0.00000E+00  9.000E+00
      25     1     1     2     0     0 -4.957732054E+01  1.188916279E+02 -8.929839892E+01  2.004802582E+02  1.250000000E+02  0.00000E+00  9.000E+00
      25     1     1     2     0     0  1.092435911E+02 -8.098396562E+01 -2.217003538E+02  2.885630118E+02  1.250000000E+02  0.00000E+00  9.000E+00
      21     1     1     2   501   511 -5.966627059E+01 -3.790766224E+01  3.460164837E+01  7.870405817E+01  1.907348633E-06  0.00000E+00  9.000E+00
#rwgt            1           1   4.0952820279805693E-002           9      271917           0
</event>
<event>
      5   9999 -3.79277E-02  4.13716E+01 -1.00000E+00  1.43938E-01
       4    -1     0     0   502     0  0.000000000E+00  0.000000000E+00  2.371977878E+02  2.371977878E+02  0.000000000E+00  0.00000E+00  9.000E+00
      21    -1     0     0   501   502  0.000000000E+00  0.000000000E+00 -2.860186545E+02  2.860186545E+02  0.000000000E+00  0.00000E+00  9.000E+00
      25     1     1     2     0     0  9.428729263E+01  8.475248356E+01 -1.620153280E+02  2.407219216E+02  1.250000000E+02  0.00000E+00  9.000E+00
      25     1     1     2     0     0 -8.077857444E+01 -1.238565483E+02  3.895365013E+01  1.975044544E+02  1.250000000E+02  0.00000E+00  9.000E+00
       4     1     1     2   501     0 -1.350871819E+01  3.910406474E+01  7.424081109E+01  8.499006635E+01  0.000000000E+00  0.00000E+00  9.000E+00
#rwgt            1           1  -9.2129251445295879E-002           9      272027           0
</event>
<event>
      5   9999  3.79277E-02  1.24504E+01 -1.00000E+00  1.85361E-01
      21    -1     0     0   502   511  0.000000000E+00  0.000000000E+00  1.498684261E+02  1.498684261E+02  0.000000000E+00  0.00000E+00  9.000E+00
      21    -1     0     0   501   502  0.000000000E+00  0.000000000E+00 -2.652409403E+02  2.652409403E+02  0.000000000E+00  0.00000E+00  9.000E+00
      25     1     1     2     0     0  6.983717284E+01  1.261499576E+02 -4.216665511E+01  1.954330303E+02  1.250000000E+02  0.00000E+00  9.000E+00
      25     1     1     2     0     0 -6.189952643E+01 -1.165580162E+02 -8.663368893E+01  2.013646408E+02  1.250000000E+02  0.00000E+00  9.000E+00
      21     1     1     2   501   511 -7.937646415E+00 -9.591941468E+00  1.342782988E+01  1.831169536E+01  2.384185791E-07  0.00000E+00  9.000E+00
#rwgt            1           1   4.3577897217293708E-002           9      272101           0
</event>
<event>
      5   9999  3.79277E-02  6.68733E+00 -1.00000E+00  2.18397E-01
      21    -1     0     0   502   501  0.000000000E+00  0.000000000E+00  9.163527843E+02  9.163527843E+02  0.000000000E+00  0.00000E+00  9.000E+00
      -4    -1     0     0     0   502  0.000000000E+00  0.000000000E+00 -6.602685009E+02  6.602685009E+02  0.000000000E+00  0.00000E+00  9.000E+00
      25     1     1     2     0     0 -1.598604499E+02  3.946911115E+01  2.936786533E+02  3.591452708E+02  1.250000000E+02  0.00000E+00  9.000E+00
      25     1     1     2     0     0  1.536683967E+02 -4.199475851E+01  5.725462605E+02  6.072987373E+02  1.250000000E+02  0.00000E+00  9.000E+00
      -4     1     1     2     0   501  6.192053142E+00  2.525647356E+00 -6.101406304E+02  6.101772770E+02  7.629394531E-06  0.00000E+00  9.000E+00
#rwgt            1           1   4.2975738298931039E-002           9      272331           0
</event>
<event>
      5   9999  3.79277E-02  5.68449E+01 -1.00000E+00  1.35969E-01
      21    -1     0     0   511   501  0.000000000E+00  0.000000000E+00  5.581537191E+02  5.581537191E+02  0.000000000E+00  0.00000E+00  9.000E+00
      21    -1     0     0   501   502  0.000000000E+00  0.000000000E+00 -1.909446947E+02  1.909446947E+02  0.000000000E+00  0.00000E+00  9.000E+00
      25     1     1     2     0     0 -2.028299052E+02  5.818786921E+01  1.978046570E+02  3.150832920E+02  1.250000000E+02  0.00000E+00  9.000E+00
      25     1     1     2     0     0  1.543286690E+02 -2.854048592E+01 -5.048641302E+01  2.068955662E+02  1.250000000E+02  0.00000E+00  9.000E+00
      21     1     1     2   511   502  4.850123621E+01 -2.964738329E+01  2.198907804E+02  2.271195556E+02  2.697398305E-06  0.00000E+00  9.000E+00
#rwgt            1           1   4.0678313831984315E-002           9      272729           0
</event>
<event>
      5   9999  3.79277E-02  3.58568E+02 -1.00000E+00  1.03135E-01
      21    -1     0     0   502   512  0.000000000E+00  0.000000000E+00  2.160772012E+02  2.160772012E+02  0.000000000E+00  0.00000E+00  9.000E+00
      21    -1     0     0   501   502  0.000000000E+00  0.000000000E+00 -2.344106638E+03  2.344106638E+03  0.000000000E+00  0.00000E+00  9.000E+00
      25     1     1     2     0     0  1.175116603E+02 -2.497143738E+02 -9.437572276E+02  9.911957240E+02  1.250000000E+02  0.00000E+00  9.000E+00
      25     1     1     2     0     0 -2.994080491E+02 -5.929167424E+01 -1.164022468E+03  1.209848746E+03  1.250000000E+02  0.00000E+00  9.000E+00
      21     1     1     2   501   512  1.818963888E+02  3.090060481E+02 -2.024974057E+01  3.591393685E+02  1.012366950E-05  0.00000E+00  9.000E+00
#rwgt            1           1   3.4641285131966772E-002           9      272883           0
</event>
<event>
      5   9999  3.79277E-02  3.67206E+01 -1.00000E+00  1.47182E-01
      21    -1     0     0   511   501  0.000000000E+00  0.000000000E+00  3.267520454E+02  3.267520454E+02  0.000000000E+00  0.00000E+00  9.000E+00
      21    -1     0     0   501   502  0.000000000E+00  0.000000000E+00 -2.419083938E+02  2.419083938E+02  0.000000000E+00  0.00000E+00  9.000E+00
      25     1     1     2     0     0  6.487013944E+01  5.244141033E+00 -1.888827659E+02  2.356636061E+02  1.250000000E+02  0.00000E+00  9.000E+00
      25     1     1     2     0     0 -3.623908817E+01  1.774866006E+01  2.642153144E+02  2.950644316E+02  1.250000000E+02  0.00000E+00  9.000E+00
      21     1     1     2   511   502 -2.863105127E+01 -2.299280109E+01  9.511103095E+00  3.793240146E+01  5.057621821E-07  0.00000E+00  9.000E+00
#rwgt            1           1   4.8707729901787324E-002           9      272945           0
</event>
<event>
      5   9999  3.79277E-02  5.60346E+01 -1.00000E+00  1.36310E-01
      21    -1     0     0   502   512  0.000000000E+00  0.000000000E+00  3.096822091E+02  3.096822091E+02  0.000000000E+00  0.00000E+00  9.000E+00
      21    -1     0     0   501   502  0.000000000E+00  0.000000000E+00 -3.862496335E+02  3.862496335E+02  0.000000000E+00  0.00000E+00  9.000E+00
      25     1     1     2     0     0  2.383134073E+02 -5.842862769E+01 -1.454378033E+02  3.114230872E+02  1.250000000E+02  0.00000E+00  9.000E+00
      25     1     1     2     0     0 -2.805657496E+02  9.523377885E+01  5.036137691E+01  3.254963606E+02  1.250000000E+02  0.00000E+00  9.000E+00
      21     1     1     2   501   512  4.225234233E+01 -3.680515115E+01  1.850900191E+01  5.901239476E+01  9.233911863E-07  0.00000E+00  9.000E+00
#rwgt            1           1  0.22719355686619394                9      273144           0
</event>
<event>
      5   9999  3.79277E-02  6.66117E+01 -1.00000E+00  1.32321E-01
      21    -1     0     0   511   501  0.000000000E+00  0.000000000E+00  2.474391716E+02  2.474391716E+02  0.000000000E+00  0.00000E+00  9.000E+00
      21    -1     0     0   501   502  0.000000000E+00  0.000000000E+00 -5.263579115E+02  5.263579115E+02  0.000000000E+00  0.00000E+00  9.000E+00
      25     1     1     2     0     0  1.216128552E+01 -2.318135480E+02 -2.101310994E+02  3.371431400E+02  1.250000000E+02  0.00000E+00  9.000E+00
      25     1     1     2     0     0 -7.033636814E+01  2.642600776E+02 -1.463608805E+02  3.344055930E+02  1.250000000E+02  0.00000E+00  9.000E+00
      21     1     1     2   511   502  5.817508262E+01 -3.244652961E+01  7.757324003E+01  1.022483501E+02  2.336015456E-06  0.00000E+00  9.000E+00
#rwgt            1           1   4.6272751032390896E-002           9      273278           0
</event>
<event>
      5   9999  3.79277E-02  4.13571E+01 -1.00000E+00  1.43947E-01
      21    -1     0     0   502   512  0.000000000E+00  0.000000000E+00  2.147336140E+03  2.147336140E+03  0.000000000E+00  0.00000E+00  9.000E+00
      21    -1     0     0   501   502  0.000000000E+00  0.000000000E+00 -2.171213123E+01  2.171213123E+01  0.000000000E+00  0.00000E+00  9.000E+00
      25     1     1     2     0     0  1.655854992E+01  1.007251382E+02  1.066767215E+03  1.078905477E+03  1.250000000E+02  0.00000E+00  9.000E+00
      25     1     1     2     0     0  5.041884731E+00 -1.359931836E+02  5.626572373E+02  5.922227058E+02  1.250000000E+02  0.00000E+00  9.000E+00
      21     1     1     2   501   512 -2.160043466E+01  3.526804534E+01  4.961995566E+02  4.979200877E+02  0.000000000E+00  0.00000E+00  9.000E+00
#rwgt            1           1   4.6271667422993601E-002           9      273380           0
</event>
<event>
      5   9999  3.79277E-02  8.71615E+01 -1.00000E+00  1.26573E-01
      21    -1     0     0   502   501  0.000000000E+00  0.000000000E+00  8.521929162E+02  8.521929162E+02  0.000000000E+00  0.00000E+00  9.000E+00
      21    -1     0     0   511   502  0.000000000E+00  0.000000000E+00 -2.478141950E+02  2.478141950E+02  0.000000000E+00  0.00000E+00  9.000E+00
      25     1     1     2     0     0  1.090090445E+02 -7.066882390E+01 -1.222584092E+01  1.806973316E+02  1.250000000E+02  0.00000E+00  9.000E+00
      25     1     1     2     0     0 -1.069987557E+02  1.578070903E+02  7.365571497E+02  7.710338814E+02  1.250000000E+02  0.00000E+00  9.000E+00
      21     1     1     2   511   501 -2.010288792E+00 -8.713826642E+01 -1.199525876E+02  1.482758983E+02  3.015782986E-06  0.00000E+00  9.000E+00
#rwgt            1           1   3.9219606430563353E-002           9      273554           0
</event>
<event>
      5   9999 -3.79277E-02  9.02431E+01 -1.00000E+00  1.25867E-01
      21    -1     0     0   502   501  0.000000000E+00  0.000000000E+00  8.465736236E+01  8.465736236E+01  0.000000000E+00  0.00000E+00  9.000E+00
      21    -1     0     0   512   502  0.000000000E+00  0.000000000E+00 -2.041514560E+03  2.041514560E+03  0.000000000E+00  0.00000E+00  9.000E+00
      25     1     1     2     0     0  2.974253848E+02 -2.022098460E+02 -1.121218138E+03  1.184105483E+03  1.250000000E+02  0.00000E+00  9.000E+00
      25     1     1     2     0     0 -2.306639252E+02  1.414914560E+02 -4.096288380E+02  5.066028656E+02  1.250000000E+02  0.00000E+00  9.000E+00
      21     1     1     2   512   501 -6.676145963E+01  6.071839002E+01 -4.260102215E+02  4.354635739E+02  5.394796609E-06  0.00000E+00  9.000E+00
#rwgt            1           1 -0.43768945958763888                9      273636           0
</event>
<event>
      5   9999  3.79277E-02  1.86653E+02 -1.00000E+00  1.12751E-01
       2    -1     0     0   502     0  0.000000000E+00  0.000000000E+00  2.355935979E+03  2.355935979E+03  0.000000000E+00  0.00000E+00  9.000E+00
      21    -1     0     0   501   502  0.000000000E+00  0.000000000E+00 -1.732598676E+02  1.732598676E+02  0.000000000E+00  0.00000E+00  9.000E+00
      25     1     1     2     0     0 -5.861218389E+01  5.438930122E+01 -9.329441829E+01  1.752781580E+02  1.250000000E+02  0.00000E+00  9.000E+00
      25     1     1     2     0     0 -1.276003168E+02 -4.157532845E+01  2.070537271E+02  2.765982550E+02  1.250000000E+02  0.00000E+00  9.000E+00
       2     1     1     2   501     0  1.862125006E+02 -1.281397278E+01  2.068916802E+03  2.077319433E+03  0.000000000E+00  0.00000E+00  9.000E+00
#rwgt            1           1   3.4913930516826577E-002           9      273691           0
</event>
<event>
      5   9999 -3.79277E-02  2.46951E+02 -1.00000E+00  1.08413E-01
      21    -1     0     0   511   501  0.000000000E+00  0.000000000E+00  8.850972275E+01  8.850972275E+01  0.000000000E+00  0.00000E+00  9.000E+00
      21    -1     0     0   501   502  0.000000000E+00  0.000000000E+00 -2.783472532E+03  2.783472532E+03  0.000000000E+00  0.00000E+00  9.000E+00
      25     1     1     2     0     0 -8.951393522E+01  5.540969947E+01 -1.926828289E+03  1.933746424E+03  1.250000000E+02  0.00000E+00  9.000E+00
      25     1     1     2     0     0 -1.351081718E+02  4.720394394E+01 -6.240196554E+02  6.523097123E+02  1.250000000E+02  0.00000E+00  9.000E+00
      21     1     1     2   511   502  2.246221070E+02 -1.026136434E+02 -1.441148654E+02  2.859261184E+02  6.877043296E-06  0.00000E+00  9.000E+00
#rwgt            1           1  -6.3071552432907310E-002           9      273762           0
</event>
<event>
      5   9999  3.79277E-02  4.25847E+01 -1.00000E+00  1.43174E-01
      21    -1     0     0   502   501  0.000000000E+00  0.000000000E+00  1.367326536E+02  1.367326536E+02  0.000000000E+00  0.00000E+00  9.000E+00
       2    -1     0     0   501     0  0.000000000E+00  0.000000000E+00 -1.561733393E+03  1.561733393E+03  0.000000000E+00  0.00000E+00  9.000E+00
      25     1     1     2     0     0  1.079697384E+02 -1.936790450E+02 -1.180609944E+02  2.805930065E+02  1.250000000E+02  0.00000E+00  9.000E+00
      25     1     1     2     0     0 -6.569763822E+01  1.988293282E+02 -2.150326456E+02  3.251358487E+02  1.250000000E+02  0.00000E+00  9.000E+00
       2     1     1     2   502     0 -4.227210021E+01 -5.150283127E+00 -1.091907099E+03  1.092737191E+03  1.525878906E-05  0.00000E+00  9.000E+00
#rwgt            1           1   3.5323477463252831E-002           9      273828           0
</event>
<event>
      5   9999  3.79277E-02  4.45213E+01 -1.00000E+00  1.42014E-01
      21    -1     0     0   502   501  0.000000000E+00  0.000000000E+00  6.454680585E+01  6.454680585E+01  0.000000000E+00  0.00000E+00  9.000E+00
       2    -1     0     0   501     0  0.000000000E+00  0.000000000E+00 -1.337405565E+03  1.337405565E+03  0.000000000E+00  0.00000E+00  9.000E+00
      25     1     1     2     0     0  5.812027512E+01 -1.330212665E+02 -6.057517761E+02  6.353210511E+02  1.250000000E+02  0.00000E+00  9.000E+00
      25     1     1     2     0     0 -1.599781795E+01  1.186045017E+02 -1.042779895E+02  2.020441959E+02  1.250000000E+02  0.00000E+00  9.000E+00
       2     1     1     2   502     0 -4.212245718E+01  1.441676483E+01 -5.628289934E+02  5.645871237E+02  7.629394531E-06  0.00000E+00  9.000E+00
#rwgt            1           1   4.9416531258315521E-002           9      273967           0
</event>
<event>
      5   9999  3.79277E-02  6.18468E+01 -1.00000E+00  1.34004E-01
      21    -1     0     0   502   501  0.000000000E+00  0.000000000E+00  1.722438774E+02  1.722438774E+02  0.000000000E+00  0.00000E+00  9.000E+00
      21    -1     0     0   501   511  0.000000000E+00  0.000000000E+00 -3.585703244E+02  3.585703244E+02  0.000000000E+00  0.00000E+00  9.000E+00
      25     1     1     2     0     0  1.227570918E+02 -3.465528831E+00 -8.026613775E+01  1.927406712E+02  1.250000000E+02  0.00000E+00  9.000E+00
      25     1     1     2     0     0 -1.839254349E+02 -5.669972789E+00 -8.567873181E+00  2.226187833E+02  1.250000000E+02  0.00000E+00  9.000E+00
      21     1     1     2   502   511  6.116834312E+01  9.135501620E+00 -9.749243606E+01  1.154547473E+02  1.348699152E-06  0.00000E+00  9.000E+00
#rwgt            1           1   2.6942562950957760E-002           9      274166           0
</event>
<event>
      5   9999  3.79277E-02  3.94597E+01 -1.00000E+00  1.45207E-01
      21    -1     0     0   502   501  0.000000000E+00  0.000000000E+00  4.563302679E+02  4.563302679E+02  0.000000000E+00  0.00000E+00  9.000E+00
      21    -1     0     0   501   512  0.000000000E+00  0.000000000E+00 -1.959225481E+02  1.959225481E+02  0.000000000E+00  0.00000E+00  9.000E+00
      25     1     1     2     0     0 -5.314083857E+01 -1.814551726E+02  1.943503793E+02  2.985749459E+02  1.250000000E+02  0.00000E+00  9.000E+00
      25     1     1     2     0     0  4.900926743E+01  1.422123985E+02  1.594184561E+02  2.523202701E+02  1.250000000E+02  0.00000E+00  9.000E+00
      21     1     1     2   502   512  4.131571143E+00  3.924277409E+01 -9.336111547E+01  1.013576000E+02  1.348699152E-06  0.00000E+00  9.000E+00
#rwgt            1           1   2.8541875861931642E-002           9      274280           0
</event>
<event>
      5   9999  3.79277E-02  1.01939E+02 -1.00000E+00  1.23454E-01
      21    -1     0     0   502   501  0.000000000E+00  0.000000000E+00  9.919579890E+02  9.919579890E+02  0.000000000E+00  0.00000E+00  9.000E+00
      21    -1     0     0   511   502  0.000000000E+00  0.000000000E+00 -3.931848026E+02  3.931848026E+02  0.000000000E+00  0.00000E+00  9.000E+00
      25     1     1     2     0     0 -5.423536119E+01 -2.986714065E+02  4.373871532E+02  5.468807962E+02  1.250000000E+02  0.00000E+00  9.000E+00
      25     1     1     2     0     0  5.530899926E+01  1.967375712E+02  4.622274147E+02  5.206188051E+02  1.250000000E+02  0.00000E+00  9.000E+00
      21     1     1     2   511   501 -1.073638073E+00  1.019338354E+02 -3.008413815E+02  3.176431903E+02  8.529922400E-06  0.00000E+00  9.000E+00
#rwgt            1           1   2.6847081616801851E-002           9      274427           0
</event>
<event>
      5   9999  3.79277E-02  1.78214E+01 -1.00000E+00  1.70611E-01
      21    -1     0     0   502   501  0.000000000E+00  0.000000000E+00  1.882704949E+02  1.882704949E+02  0.000000000E+00  0.00000E+00  9.000E+00
      21    -1     0     0   501   512  0.000000000E+00  0.000000000E+00 -8.342921825E+02  8.342921825E+02  0.000000000E+00  0.00000E+00  9.000E+00
      25     1     1     2     0     0  8.830681873E+01 -1.003391780E+02 -7.334669663E+02  7.559529321E+02  1.250000000E+02  0.00000E+00  9.000E+00
      25     1     1     2     0     0 -9.741173025E+01  8.501918707E+01  1.290486099E+02  2.213500646E+02  1.250000000E+02  0.00000E+00  9.000E+00
      21     1     1     2   502   512  9.104911518E+00  1.531999095E+01 -4.160333119E+01  4.525968076E+01  9.536743164E-07  0.00000E+00  9.000E+00
#rwgt            1           1   2.1377990495671878E-002           9      274478           0
</event>
<event>
      5   9999  3.79277E-02  1.16293E+02 -1.00000E+00  1.20950E-01
      21    -1     0     0   502   501  0.000000000E+00  0.000000000E+00  5.334558743E+02  5.334558743E+02  0.000000000E+00  0.00000E+00  9.000E+00
      21    -1     0     0   501   511  0.000000000E+00  0.000000000E+00 -1.195258273E+02  1.195258273E+02  0.000000000E+00  0.00000E+00  9.000E+00
      25     1     1     2     0     0 -5.241523155E+01  3.767395614E+00  3.042183718E+02  3.330696136E+02  1.250000000E+02  0.00000E+00  9.000E+00
      25     1     1     2     0     0  5.078983988E+01 -1.200493808E+02  4.228105602E+01  1.854835555E+02  1.250000000E+02  0.00000E+00  9.000E+00
      21     1     1     2   502   511  1.625391664E+00  1.162819852E+02  6.743061920E+01  1.344285326E+02  9.536743164E-07  0.00000E+00  9.000E+00
#rwgt            1           1   3.0333788537590761E-002           9      274721           0
</event>
<event>
      5   9999  3.79277E-02  2.39894E+02 -1.00000E+00  1.08846E-01
      21    -1     0     0   502   501  0.000000000E+00  0.000000000E+00  4.734625853E+02  4.734625853E+02  0.000000000E+00  0.00000E+00  9.000E+00
       2    -1     0     0   501     0  0.000000000E+00  0.000000000E+00 -8.657160131E+02  8.657160131E+02  0.000000000E+00  0.00000E+00  9.000E+00
      25     1     1     2     0     0  1.353126925E+02  2.826166811E+02  1.908594269E+02  3.876003535E+02  1.250000000E+02  0.00000E+00  9.000E+00
      25     1     1     2     0     0  3.272573008E+01 -1.114085846E+02  1.200537920E+02  2.086162964E+02  1.250000000E+02  0.00000E+00  9.000E+00
       2     1     1     2   502     0 -1.680384226E+02 -1.712080965E+02 -7.031666468E+02  7.429619485E+02  1.078959322E-05  0.00000E+00  9.000E+00
#rwgt            1           1   4.2298709573910534E-002           9      274791           0
</event>
<event>
      5   9999  3.79277E-02  2.13283E+01 -1.00000E+00  1.64097E-01
      21    -1     0     0   502   501  0.000000000E+00  0.000000000E+00  3.722816572E+02  3.722816572E+02  0.000000000E+00  0.00000E+00  9.000E+00
      21    -1     0     0   501   511  0.000000000E+00  0.000000000E+00 -8.412975778E+02  8.412975778E+02  0.000000000E+00  0.00000E+00  9.000E+00
      25     1     1     2     0     0  2.099597398E+02  1.073111445E+02  2.567320059E+02  3.703175623E+02  1.250000000E+02  0.00000E+00  9.000E+00
      25     1     1     2     0     0 -1.994310964E+02 -8.876269769E+01 -2.117119392E+02  3.287833997E+02  1.250000000E+02  0.00000E+00  9.000E+00
      21     1     1     2   502   511 -1.052864338E+01 -1.854844682E+01 -5.140359873E+02  5.144782731E+02  7.629394531E-06  0.00000E+00  9.000E+00
#rwgt            1           1   3.4283083583614801E-002           9      274866           0
</event>
<event>
      5   9999  3.79277E-02  7.55544E+01 -1.00000E+00  1.29563E-01
      21    -1     0     0   512   501  0.000000000E+00  0.000000000E+00  1.824681838E+02  1.824681838E+02  0.000000000E+00  0.00000E+00  9.000E+00
      21    -1     0     0   501   502  0.000000000E+00  0.000000000E+00 -4.424764571E+02  4.424764571E+02  0.000000000E+00  0.00000E+00  9.000E+00
      25     1     1     2     0     0  8.208896278E+01  7.149848911E+01 -2.681056082E+02  3.152082627E+02  1.250000000E+02  0.00000E+00  9.000E+00
      25     1     1     2     0     0 -1.475690194E+02 -1.091923397E+02 -3.169859862E+01  2.243421130E+02  1.250000000E+02  0.00000E+00  9.000E+00
      21     1     1     2   512   502  6.548005662E+01  3.769385057E+01  3.979593356E+01  8.539426511E+01  4.768371582E-07  0.00000E+00  9.000E+00
#rwgt            1           1   4.2114211592367071E-002           9      275203           0
</event>
<event>
      5   9999  3.79277E-02  2.80781E+01 -1.00000E+00  1.55064E-01
       2    -1     0     0   502     0  0.000000000E+00  0.000000000E+00  2.899584427E+02  2.899584427E+02  0.000000000E+00  0.00000E+00  9.000E+00
      21    -1     0     0   501   502  0.000000000E+00  0.000000000E+00 -1.061876473E+03  1.061876473E+03  0.000000000E+00  0.00000E+00  9.000E+00
      25     1     1     2     0     0  1.110276306E+02 -1.007573942E+02 -4.727820933E+02  5.114949609E+02  1.250000000E+02  0.00000E+00  9.000E+00
      25     1     1     2     0     0 -1.328782592E+02  8.312413898E+01 -5.512987297E+02  5.866187379E+02  1.250000000E+02  0.00000E+00  9.000E+00
       2     1     1     2   501     0  2.185062867E+01  1.763325527E+01  2.521627929E+02  2.537212167E+02  5.394796609E-06  0.00000E+00  9.000E+00
#rwgt            1           1   3.5033644035618865E-002           9      275313           0
</event>
<event>
      5   9999  3.79277E-02  6.27105E+01 -1.00000E+00  1.33686E-01
      21    -1     0     0   502   511  0.000000000E+00  0.000000000E+00  3.993088114E+01  3.993088114E+01  0.000000000E+00  0.00000E+00  9.000E+00
      21    -1     0     0   501   502  0.000000000E+00  0.000000000E+00 -8.881134492E+02  8.881134492E+02  0.000000000E+00  0.00000E+00  9.000E+00
      25     1     1     2     0     0 -3.038360403E+01 -5.391588807E+01 -4.236507889E+02  4.460213866E+02  1.250000000E+02  0.00000E+00  9.000E+00
      25     1     1     2     0     0  2.218366493E+01 -8.256223254E+00 -3.904409274E+02  4.106450998E+02  1.250000000E+02  0.00000E+00  9.000E+00
      21     1     1     2   501   511  8.199939096E+00  6.217211133E+01 -3.409085175E+01  7.137784391E+01  1.846782373E-06  0.00000E+00  9.000E+00
#rwgt            1           1   8.8721615081148609E-003           9      275452           0
</event>
<event>
      5   9999  3.79277E-02  1.94766E+01 -1.00000E+00  1.67325E-01
      21    -1     0     0   502   501  0.000000000E+00  0.000000000E+00  3.896792885E+01  3.896792885E+01  0.000000000E+00  0.00000E+00  9.000E+00
      21    -1     0     0   512   502  0.000000000E+00  0.000000000E+00 -1.456160366E+03  1.456160366E+03  0.000000000E+00  0.00000E+00  9.000E+00
      25     1     1     2     0     0  3.448547796E+01 -1.815832172E+02 -8.006145638E+02  8.311259789E+02  1.250000000E+02  0.00000E+00  9.000E+00
      25     1     1     2     0     0 -5.347784347E+01  1.772670118E+02 -5.281552425E+02  5.734600539E+02  1.250000000E+02  0.00000E+00  9.000E+00
      21     1     1     2   512   501  1.899236551E+01  4.316205378E+00 -8.842263070E+01  9.054226193E+01  0.000000000E+00  0.00000E+00  9.000E+00
#rwgt            1           1   1.8528413159257424E-002           9      275590           0
</event>
<event>
      5   9999  3.79277E-02  1.04242E+01 -1.00000E+00  1.93694E-01
      21    -1     0     0   502   511  0.000000000E+00  0.000000000E+00  5.337767477E+01  5.337767477E+01  0.000000000E+00  0.00000E+00  9.000E+00
      21    -1     0     0   501   502  0.000000000E+00  0.000000000E+00 -1.060774975E+03  1.060774975E+03  0.000000000E+00  0.00000E+00  9.000E+00
      25     1     1     2     0     0  1.690050586E+02 -5.800567068E+01 -6.512980169E+02  6.868343865E+02  1.250000000E+02  0.00000E+00  9.000E+00
      25     1     1     2     0     0 -1.761608804E+02  6.558585214E+01 -3.386594615E+02  4.070004799E+02  1.250000000E+02  0.00000E+00  9.000E+00
      21     1     1     2   501   511  7.155821758E+00 -7.580181460E+00 -1.743982214E+01  2.031778365E+01  2.384185791E-07  0.00000E+00  9.000E+00
#rwgt            1           1   4.3463653621036394E-002           9      275807           0
</event>
<event>
      5   9999  3.79277E-02  2.08455E+01 -1.00000E+00  1.64899E-01
      21    -1     0     0   502   501  0.000000000E+00  0.000000000E+00  3.640166500E+02  3.640166500E+02  0.000000000E+00  0.00000E+00  9.000E+00
      21    -1     0     0   512   502  0.000000000E+00  0.000000000E+00 -2.005870359E+02  2.005870359E+02  0.000000000E+00  0.00000E+00  9.000E+00
      25     1     1     2     0     0 -6.691335529E+01 -1.516809626E+02 -2.267241523E+01  2.088625145E+02  1.250000000E+02  0.00000E+00  9.000E+00
      25     1     1     2     0     0  6.088732540E+01  1.716364486E+02  2.226724530E+02  3.136468686E+02  1.250000000E+02  0.00000E+00  9.000E+00
      21     1     1     2   512   501  6.026029887E+00 -1.995548597E+01 -3.657042363E+01  4.209430295E+01  4.768371582E-07  0.00000E+00  9.000E+00
#rwgt            1           1   2.7738898539088515E-002           9      276073           0
</event>
<event>
      5   9999  3.79277E-02  3.15981E+01 -1.00000E+00  1.51491E-01
      21    -1     0     0   502   501  0.000000000E+00  0.000000000E+00  1.365166511E+02  1.365166511E+02  0.000000000E+00  0.00000E+00  9.000E+00
      21    -1     0     0   511   502  0.000000000E+00  0.000000000E+00 -3.465755029E+02  3.465755029E+02  0.000000000E+00  0.00000E+00  9.000E+00
      25     1     1     2     0     0 -3.666580394E+01 -1.306265379E+02 -7.242041182E+01  1.981852407E+02  1.250000000E+02  0.00000E+00  9.000E+00
      25     1     1     2     0     0  6.595256496E+01  1.424893188E+02 -7.408397008E+01  2.139307865E+02  1.250000000E+02  0.00000E+00  9.000E+00
      21     1     1     2   511   501 -2.928676103E+01 -1.186278082E+01 -6.355446983E+01  7.097612680E+01  6.743495762E-07  0.00000E+00  9.000E+00
#rwgt            1           1   3.8985377836838711E-002           9      276474           0
</event>
<event>
      5   9999  3.79277E-02  6.64782E+01 -1.00000E+00  1.32366E-01
      21    -1     0     0   502   501  0.000000000E+00  0.000000000E+00  3.856307708E+02  3.856307708E+02  0.000000000E+00  0.00000E+00  9.000E+00
      21    -1     0     0   512   502  0.000000000E+00  0.000000000E+00 -2.348842431E+02  2.348842431E+02  0.000000000E+00  0.00000E+00  9.000E+00
      25     1     1     2     0     0 -3.174393113E+01 -7.780092162E+01  3.223992657E+02  3.558468029E+02  1.250000000E+02  0.00000E+00  9.000E+00
      25     1     1     2     0     0  4.847453804E+01  1.346250405E+01 -1.208722147E+02  1.810141214E+02  1.250000000E+02  0.00000E+00  9.000E+00
      21     1     1     2   512   501 -1.673060692E+01  6.433841756E+01 -5.078052331E+01  8.365408974E+01  1.348699152E-06  0.00000E+00  9.000E+00
#rwgt            1           1   3.6801674588115070E-002           9      276643           0
</event>
<event>
      5   9999  3.79277E-02  4.45510E+01 -1.00000E+00  1.41996E-01
      21    -1     0     0   502   511  0.000000000E+00  0.000000000E+00  1.578847490E+03  1.578847490E+03  0.000000000E+00  0.00000E+00  9.000E+00
      21    -1     0     0   501   502  0.000000000E+00  0.000000000E+00 -4.986226269E+01  4.986226269E+01  0.000000000E+00  0.00000E+00  9.000E+00
      25     1     1     2     0     0  6.787966200E+01  1.797455382E+02  4.720347591E+02  5.247455772E+02  1.250000000E+02  0.00000E+00  9.000E+00
      25     1     1     2     0     0 -7.183493531E+01 -2.241206276E+02  8.010194466E+02  8.441844985E+02  1.250000000E+02  0.00000E+00  9.000E+00
      21     1     1     2   501   511  3.955273311E+00  4.437508939E+01  2.559310212E+02  2.597796766E+02  3.814697266E-06  0.00000E+00  9.000E+00
#rwgt            1           1   4.8759287884789115E-002           9      276773           0
</event>
<event>
      5   9999  3.79277E-02  5.23639E+01 -1.00000E+00  1.37940E-01
      21    -1     0     0   502   512  0.000000000E+00  0.000000000E+00  2.644027061E+02  2.644027061E+02  0.000000000E+00  0.00000E+00  9.000E+00
      21    -1     0     0   501   502  0.000000000E+00  0.000000000E+00 -2.125119233E+02  2.125119233E+02  0.000000000E+00  0.00000E+00  9.000E+00
      25     1     1     2     0     0 -8.280040638E+01  1.505943384E+02  6.089496761E+01  2.210605327E+02  1.250000000E+02  0.00000E+00  9.000E+00
      25     1     1     2     0     0  1.132206885E+02 -1.079729315E+02 -2.321494607E+01  2.015961606E+02  1.250000000E+02  0.00000E+00  9.000E+00
      21     1     1     2   501   512 -3.042028210E+01 -4.262140683E+01  1.421076128E+01  5.425793601E+01  9.830249847E-07  0.00000E+00  9.000E+00
#rwgt            1           1   1.5103366376820972E-002           9      276878           0
</event>
<event>
      5   9999  3.79277E-02  1.57716E+02 -1.00000E+00  1.15537E-01
      21    -1     0     0   502   511  0.000000000E+00  0.000000000E+00  1.476929419E+02  1.476929419E+02  0.000000000E+00  0.00000E+00  9.000E+00
      21    -1     0     0   501   502  0.000000000E+00  0.000000000E+00 -5.298338863E+02  5.298338863E+02  0.000000000E+00  0.00000E+00  9.000E+00
      25     1     1     2     0     0 -4.180142845E+01  1.592013523E+02 -2.505622998E+02  3.248059360E+02  1.250000000E+02  0.00000E+00  9.000E+00
      25     1     1     2     0     0  1.048875986E+02 -1.465173204E+01 -3.419911795E+01  1.673638589E+02  1.250000000E+02  0.00000E+00  9.000E+00
      21     1     1     2   501   511 -6.308617016E+01 -1.445496202E+02 -9.737952669E+01  1.853570333E+02  2.697398305E-06  0.00000E+00  9.000E+00
#rwgt            1           1  0.14331305260328303                9      277073           0
</event>
<event>
      5   9999  3.79277E-02  1.73833E+01 -1.00000E+00  1.71556E-01
      21    -1     0     0   502   501  0.000000000E+00  0.000000000E+00  5.766968388E+01  5.766968388E+01  0.000000000E+00  0.00000E+00  9.000E+00
       4    -1     0     0   501     0  0.000000000E+00  0.000000000E+00 -7.464385528E+02  7.464385528E+02  0.000000000E+00  0.00000E+00  9.000E+00
      25     1     1     2     0     0 -3.637880832E+01  4.249468093E+01 -3.360561573E+02  3.628883526E+02  1.250000000E+02  0.00000E+00  9.000E+00
      25     1     1     2     0     0  2.688837824E+01 -2.793070677E+01 -5.331405552E+01  1.413170116E+02  1.250000000E+02  0.00000E+00  9.000E+00
       4     1     1     2   502     0  9.490430078E+00 -1.456397416E+01 -2.993986561E+02  2.999028724E+02  6.607249480E-06  0.00000E+00  9.000E+00
#rwgt            1           1   6.1993912983826435E-002           9      277169           0
</event>
<event>
      5   9999 -3.79277E-02  5.61961E+01 -1.00000E+00  1.36241E-01
      21    -1     0     0   502   511  0.000000000E+00  0.000000000E+00  1.699546596E+03  1.699546596E+03  0.000000000E+00  0.00000E+00  9.000E+00
      21    -1     0     0   501   502  0.000000000E+00  0.000000000E+00 -6.329985987E+01  6.329985987E+01  0.000000000E+00  0.00000E+00  9.000E+00
      25     1     1     2     0     0 -1.959081444E+02  3.806295826E+01  2.579466431E+02  3.492710416E+02  1.250000000E+02  0.00000E+00  9.000E+00
      25     1     1     2     0     0  2.010684547E+02 -9.402165178E+01  1.047116821E+03  1.077658216E+03  1.250000000E+02  0.00000E+00  9.000E+00
      21     1     1     2   501   511 -5.160310362E+00  5.595869351E+01  3.311832722E+02  3.359171981E+02  5.394796609E-06  0.00000E+00  9.000E+00
#rwgt            1           1  -5.8174117081909164E-002           9      277356           0
</event>
<event>
      5   9999  3.79277E-02  1.87709E+01 -1.00000E+00  1.68674E-01
      21    -1     0     0   502   501  0.000000000E+00  0.000000000E+00  8.148774952E+02  8.148774952E+02  0.000000000E+00  0.00000E+00  9.000E+00
      21    -1     0     0   512   502  0.000000000E+00  0.000000000E+00 -6.836264668E+01  6.836264668E+01  0.000000000E+00  0.00000E+00  9.000E+00
      25     1     1     2     0     0 -3.993550873E-01 -1.897470999E+02  3.742500060E+02  4.378266648E+02  1.250000000E+02  0.00000E+00  9.000E+00
      25     1     1     2     0     0  1.284781271E+01  1.756978214E+02  3.671136390E+02  4.259486057E+02  1.250000000E+02  0.00000E+00  9.000E+00
      21     1     1     2   512   501 -1.244845762E+01  1.404927844E+01  5.151203556E+00  1.946487144E+01  3.998401125E-07  0.00000E+00  9.000E+00
#rwgt            1           1   3.8706019494946488E-002           9      277442           0
</event>
<event>
      5   9999  3.79277E-02  5.67102E+01 -1.00000E+00  1.36025E-01
      21    -1     0     0   502   501  0.000000000E+00  0.000000000E+00  7.664244957E+02  7.664244957E+02  0.000000000E+00  0.00000E+00  9.000E+00
      21    -1     0     0   501   511  0.000000000E+00  0.000000000E+00 -1.295771651E+02  1.295771651E+02  0.000000000E+00  0.00000E+00  9.000E+00
      25     1     1     2     0     0  1.001138232E+02 -9.575768205E+00  1.256456741E+02  2.037800490E+02  1.250000000E+02  0.00000E+00  9.000E+00
      25     1     1     2     0     0 -1.552538306E+02 -3.676590327E+00  5.739842305E+02  6.076184379E+02  1.250000000E+02  0.00000E+00  9.000E+00
      21     1     1     2   502   511  5.514000741E+01  1.325235853E+01 -6.278257409E+01  8.460317389E+01  1.907348633E-06  0.00000E+00  9.000E+00
#rwgt            1           1   3.7266696825011825E-002           9      277608           0
</event>
<event>
      5   9999  3.79277E-02  4.61951E+01 -1.00000E+00  1.41066E-01
      21    -1     0     0   502   501  0.000000000E+00  0.000000000E+00  5.096051792E+02  5.096051792E+02  0.000000000E+00  0.00000E+00  9.000E+00
      21    -1     0     0   501   512  0.000000000E+00  0.000000000E+00 -1.297983905E+02  1.297983905E+02  0.000000000E+00  0.00000E+00  9.000E+00
      25     1     1     2     0     0 -8.904646361E+01  4.900220801E+01 -1.230072339E+01  1.615759786E+02  1.250000000E+02  0.00000E+00  9.000E+00
      25     1     1     2     0     0  1.248606879E+02 -7.817969306E+01  3.854436671E+02  4.311543532E+02  1.250000000E+02  0.00000E+00  9.000E+00
      21     1     1     2   502   512 -3.581422427E+01  2.917748505E+01  6.663844995E+00  4.667323777E+01  9.000103993E-07  0.00000E+00  9.000E+00
#rwgt            1           1   4.5323481134951951E-002           9      277758           0
</event>
<event>
      5   9999  3.79277E-02  4.45404E+01 -1.00000E+00  1.42003E-01
      21    -1     0     0   502   511  0.000000000E+00  0.000000000E+00  2.119782582E+01  2.119782582E+01  0.000000000E+00  0.00000E+00  9.000E+00
      21    -1     0     0   501   502  0.000000000E+00  0.000000000E+00 -3.340933949E+03  3.340933949E+03  0.000000000E+00  0.00000E+00  9.000E+00
      25     1     1     2     0     0  1.293291219E+02 -1.193194653E+02 -1.041701211E+03  1.063827791E+03  1.250000000E+02  0.00000E+00  9.000E+00
      25     1     1     2     0     0 -1.737433078E+02  1.226699168E+02 -2.113424138E+03  2.127773774E+03  1.250000000E+02  0.00000E+00  9.000E+00
      21     1     1     2   501   511  4.441418590E+01 -3.350451434E+00 -1.646107738E+02  1.705302093E+02  1.907348633E-06  0.00000E+00  9.000E+00
#rwgt            1           1   2.4791344914471953E-002           9      277886           0
</event>
<event>
      5   9999  3.79277E-02  2.87718E+01 -1.00000E+00  1.54312E-01
      21    -1     0     0   512   501  0.000000000E+00  0.000000000E+00  3.408058329E+02  3.408058329E+02  0.000000000E+00  0.00000E+00  9.000E+00
      21    -1     0     0   501   502  0.000000000E+00  0.000000000E+00 -1.384353123E+02  1.384353123E+02  0.000000000E+00  0.00000E+00  9.000E+00
      25     1     1     2     0     0 -1.142553953E+02  2.807406471E+01  5.798807778E+01  1.811906886E+02  1.250000000E+02  0.00000E+00  9.000E+00
      25     1     1     2     0     0  1.403564800E+02 -4.017985818E+01  4.888888616E+01  1.983166298E+02  1.250000000E+02  0.00000E+00  9.000E+00
      21     1     1     2   512   502 -2.610108468E+01  1.210579347E+01  9.549355664E+01  9.973382684E+01  1.348699152E-06  0.00000E+00  9.000E+00
#rwgt            1           1   3.4678216121558463E-002           9      278100           0
</event>
<event>
      5   9999  3.79277E-02  2.20669E+01 -1.00000E+00  1.62920E-01
      21    -1     0     0   502   511  0.000000000E+00  0.000000000E+00  3.358184255E+02  3.358184255E+02  0.000000000E+00  0.00000E+00  9.000E+00
      21    -1     0     0   501   502  0.000000000E+00  0.000000000E+00 -2.079579147E+02  2.079579147E+02  0.000000000E+00  0.00000E+00  9.000E+00
      25     1     1     2     0     0  1.455688892E+01  1.324881759E+02  6.681537750E+01  1.945618525E+02  1.250000000E+02  0.00000E+00  9.000E+00
      25     1     1     2     0     0  2.536259119E+00 -1.464443176E+02 -7.849557976E+01  2.079397192E+02  1.250000000E+02  0.00000E+00  9.000E+00
      21     1     1     2   501   511 -1.709314804E+01  1.395614172E+01  1.395407131E+02  1.412747685E+02  0.000000000E+00  0.00000E+00  9.000E+00
#rwgt            1           1   4.0995713308633878E-002           9      278237           0
</event>
<event>
      5   9999  3.79277E-02  3.96665E+01 -1.00000E+00  1.45066E-01
       2    -1     0     0   502     0  0.000000000E+00  0.000000000E+00  4.884557683E+02  4.884557683E+02  0.000000000E+00  0.00000E+00  9.000E+00
      21    -1     0     0   501   502  0.000000000E+00  0.000000000E+00 -5.654529529E+02  5.654529529E+02  0.000000000E+00  0.00000E+00  9.000E+00
      25     1     1     2     0     0  1.284571515E+02  2.921609613E+01 -5.084244138E+02  5.398844363E+02  1.250000000E+02  0.00000E+00  9.000E+00
      25     1     1     2     0     0 -1.117982947E+02  6.782723710E+00  1.362127666E+02  2.161568454E+02  1.250000000E+02  0.00000E+00  9.000E+00
       2     1     1     2   501     0 -1.665885685E+01 -3.599881984E+01  2.952144626E+02  2.978674394E+02  5.394796609E-06  0.00000E+00  9.000E+00
#rwgt            1           1   5.2464823879829918E-002           9      278511           0
</event>
<event>
      5   9999  3.79277E-02  6.37165E+01 -1.00000E+00  1.33323E-01
      21    -1     0     0   511   501  0.000000000E+00  0.000000000E+00  1.091438042E+02  1.091438042E+02  0.000000000E+00  0.00000E+00  9.000E+00
      21    -1     0     0   501   502  0.000000000E+00  0.000000000E+00 -2.759252348E+02  2.759252348E+02  0.000000000E+00  0.00000E+00  9.000E+00
      25     1     1     2     0     0 -6.480651204E+01 -1.223665599E+01 -1.289670897E+02  1.913298983E+02  1.250000000E+02  0.00000E+00  9.000E+00
      25     1     1     2     0     0  2.242473837E+00  1.730201263E-01 -1.435702586E+01  1.258418961E+02  1.250000000E+02  0.00000E+00  9.000E+00
      21     1     1     2   511   502  6.256403820E+01  1.206363587E+01 -2.345731503E+01  6.789724453E+01  1.430511475E-06  0.00000E+00  9.000E+00
#rwgt            1           1   3.6349704589253809E-002           9      278630           0
</event>
<event>
      5   9999  3.79277E-02  3.38424E+01 -1.00000E+00  1.49491E-01
       2    -1     0     0   502     0  0.000000000E+00  0.000000000E+00  2.788052003E+03  2.788052003E+03  0.000000000E+00  0.00000E+00  9.000E+00
      21    -1     0     0   501   502  0.000000000E+00  0.000000000E+00 -2.113314480E+02  2.113314480E+02  0.000000000E+00  0.00000E+00  9.000E+00
      25     1     1     2     0     0  9.243703947E+01 -4.362034418E+01 -1.416900607E+02  2.148218192E+02  1.250000000E+02  0.00000E+00  9.000E+00
      25     1     1     2     0     0 -8.091127243E+01  7.543960664E+01  1.783570807E+02  2.442826569E+02  1.250000000E+02  0.00000E+00  9.000E+00
       2     1     1     2   501     0 -1.152576705E+01 -3.181926246E+01  2.540053535E+03  2.540278974E+03  4.315837288E-05  0.00000E+00  9.000E+00
#rwgt            1           1   4.6438485874680226E-002           9      278876           0
</event>
<event>
      5   9999  3.79277E-02  9.34286E+01 -1.00000E+00  1.25170E-01
      21    -1     0     0   502   501  0.000000000E+00  0.000000000E+00  2.621716632E+02  2.621716632E+02  0.000000000E+00  0.00000E+00  9.000E+00
      21    -1     0     0   501   511  0.000000000E+00  0.000000000E+00 -1.579303484E+02  1.579303484E+02  0.000000000E+00  0.00000E+00  9.000E+00
      25     1     1     2     0     0 -4.195355694E+01 -3.761050226E+01  9.009372049E+01  1.640625774E+02  1.250000000E+02  0.00000E+00  9.000E+00
      25     1     1     2     0     0 -4.420517713E+01  7.374318098E+01  4.398598875E+01  1.579617727E+02  1.250000000E+02  0.00000E+00  9.000E+00
      21     1     1     2   502   511  8.615873407E+01 -3.613267872E+01 -2.983839444E+01  9.807766163E+01  1.118282261E-06  0.00000E+00  9.000E+00
#rwgt            1           1   3.5620380737992959E-002           9      279027           0
</event>
<event>
      5   9999  3.79277E-02  3.23867E+01 -1.00000E+00  1.50766E-01
      21    -1     0     0   502   512  0.000000000E+00  0.000000000E+00  2.060807331E+02  2.060807331E+02  0.000000000E+00  0.00000E+00  9.000E+00
      21    -1     0     0   501   502  0.000000000E+00  0.000000000E+00 -6.158080202E+02  6.158080202E+02  0.000000000E+00  0.00000E+00  9.000E+00
      25     1     1     2     0     0  1.068206396E+02  1.518131575E+02 -1.692100221E+02  2.805617854E+02  1.250000000E+02  0.00000E+00  9.000E+00
      25     1     1     2     0     0 -1.339630462E+02 -1.341442258E+02 -3.555186486E+02  4.218522023E+02  1.250000000E+02  0.00000E+00  9.000E+00
      21     1     1     2   501   512  2.714240659E+01 -1.766893171E+01  1.150013836E+02  1.194747656E+02  2.697398305E-06  0.00000E+00  9.000E+00
#rwgt            1           1   4.3444746285396456E-002           9      279090           0
</event>
<event>
      5   9999  3.79277E-02  4.51205E+01 -1.00000E+00  1.41669E-01
      21    -1     0     0   502   501  0.000000000E+00  0.000000000E+00  1.073198562E+03  1.073198562E+03  0.000000000E+00  0.00000E+00  9.000E+00
      21    -1     0     0   501   511  0.000000000E+00  0.000000000E+00 -1.730468726E+03  1.730468726E+03  0.000000000E+00  0.00000E+00  9.000E+00
      25     1     1     2     0     0 -3.316029929E+02  4.018193901E+00  6.446182469E+02  7.356183624E+02  1.250000000E+02  0.00000E+00  9.000E+00
      25     1     1     2     0     0  3.677560938E+02 -3.101479864E+01  2.835902846E+02  4.819283264E+02  1.250000000E+02  0.00000E+00  9.000E+00
      21     1     1     2   502   511 -3.615310084E+01  2.699660474E+01 -1.585478695E+03  1.586120599E+03  0.000000000E+00  0.00000E+00  9.000E+00
#rwgt            1           1   5.1327518302044524E-002           9      279289           0
</event>
<event>
      5   9999  3.79277E-02  4.36892E+01 -1.00000E+00  1.42503E-01
      21    -1     0     0   502   512  0.000000000E+00  0.000000000E+00  2.813440708E+02  2.813440708E+02  0.000000000E+00  0.00000E+00  9.000E+00
      21    -1     0     0   501   502  0.000000000E+00  0.000000000E+00 -1.846702390E+02  1.846702390E+02  0.000000000E+00  0.00000E+00  9.000E+00
      25     1     1     2     0     0 -2.999966184E+01 -8.482228092E+01 -8.329807681E+01  1.750953130E+02  1.250000000E+02  0.00000E+00  9.000E+00
      25     1     1     2     0     0  3.856386452E+01  1.276638731E+02  1.286508542E+02  2.235201969E+02  1.250000000E+02  0.00000E+00  9.000E+00
      21     1     1     2   501   512 -8.564202681E+00 -4.284159216E+01  5.132105444E+01  6.739879980E+01  0.000000000E+00  0.00000E+00  9.000E+00
#rwgt            1           1   9.7779344073488181E-003           9      279469           0
</event>
<event>
      5   9999  3.79277E-02  1.93141E+01 -1.00000E+00  1.67629E-01
      21    -1     0     0   502   511  0.000000000E+00  0.000000000E+00  1.525310688E+02  1.525310688E+02  0.000000000E+00  0.00000E+00  9.000E+00
      21    -1     0     0   501   502  0.000000000E+00  0.000000000E+00 -3.800895751E+02  3.800895751E+02  0.000000000E+00  0.00000E+00  9.000E+00
      25     1     1     2     0     0 -2.866049048E+01 -1.390762154E+02 -2.244669902E+02  2.935541638E+02  1.250000000E+02  0.00000E+00  9.000E+00
      25     1     1     2     0     0  4.533515765E+01  1.488224428E+02 -3.417075455E+01  2.024747798E+02  1.250000000E+02  0.00000E+00  9.000E+00
      21     1     1     2   501   511 -1.667466717E+01 -9.746227408E+00  3.107923837E+01  3.659170031E+01  3.371747881E-07  0.00000E+00  9.000E+00
#rwgt            1           1   4.7705471907899602E-002           9      279598           0
</event>
<event>
      5   9999 -3.79277E-02  4.93743E+01 -1.00000E+00  1.39388E-01
      21    -1     0     0   502   501  0.000000000E+00  0.000000000E+00  5.512523087E+01  5.512523087E+01  0.000000000E+00  0.00000E+00  9.000E+00
      21    -1     0     0   512   502  0.000000000E+00  0.000000000E+00 -1.568243848E+03  1.568243848E+03  0.000000000E+00  0.00000E+00  9.000E+00
      25     1     1     2     0     0 -2.429941589E+02  1.893343185E+01 -8.892211393E+02  9.304535832E+02  1.250000000E+02  0.00000E+00  9.000E+00
      25     1     1     2     0     0  1.937921399E+02 -1.481289047E+01 -3.854713945E+02  4.494307635E+02  1.250000000E+02  0.00000E+00  9.000E+00
      21     1     1     2   512   501  4.920201894E+01 -4.120541384E+00 -2.384260831E+02  2.434847319E+02  2.697398305E-06  0.00000E+00  9.000E+00
#rwgt            1           1 -0.30016500999504298                9      279863           0
</event>
<event>
      5   9999  3.79277E-02  1.64196E+02 -1.00000E+00  1.14858E-01
      21    -1     0     0   511   501  0.000000000E+00  0.000000000E+00  4.877053770E+02  4.877053770E+02  0.000000000E+00  0.00000E+00  9.000E+00
      21    -1     0     0   501   502  0.000000000E+00  0.000000000E+00 -6.521432838E+02  6.521432838E+02  0.000000000E+00  0.00000E+00  9.000E+00
      25     1     1     2     0     0 -2.775460489E+02  3.046552275E+02 -4.129579542E+02  5.966622904E+02  1.250000000E+02  0.00000E+00  9.000E+00
      25     1     1     2     0     0  1.173802633E+02 -2.685007853E+02  1.717359699E+02  3.619240822E+02  1.250000000E+02  0.00000E+00  9.000E+00
      21     1     1     2   511   502  1.601657856E+02 -3.615444220E+01  7.678407756E+01  1.812622882E+02  3.693564745E-06  0.00000E+00  9.000E+00
#rwgt            1           1  0.11889982907936461                9      279992           0
</event>
<event>
      5   9999  3.79277E-02  3.88864E+01 -1.00000E+00  1.45605E-01
      21    -1     0     0   502   501  0.000000000E+00  0.000000000E+00  6.945514880E+02  6.945514880E+02  0.000000000E+00  0.00000E+00  9.000E+00
      21    -1     0     0   501   512  0.000000000E+00  0.000000000E+00 -3.836151723E+02  3.836151723E+02  0.000000000E+00  0.00000E+00  9.000E+00
      25     1     1     2     0     0 -2.643779130E+02 -6.607086887E+01 -1.884798667E+02  3.541337329E+02  1.250000000E+02  0.00000E+00  9.000E+00
      25     1     1     2     0     0  2.473482115E+02  3.111177190E+01  5.749840500E+02  6.390467415E+02  1.250000000E+02  0.00000E+00  9.000E+00
      21     1     1     2   502   512  1.702970147E+01  3.495909697E+01 -7.556786758E+01  8.498618596E+01  0.000000000E+00  0.00000E+00  9.000E+00
#rwgt            1           1  0.13117035339786653                9      280163           0
</event>
<event>
      5   9999  3.79277E-02  5.33907E+00 -1.00000E+00  2.33643E-01
      21    -1     0     0   502   501  0.000000000E+00  0.000000000E+00  1.583477091E+03  1.583477091E+03  0.000000000E+00  0.00000E+00  9.000E+00
      21    -1     0     0   501   511  0.000000000E+00  0.000000000E+00 -1.289071354E+02  1.289071354E+02  0.000000000E+00  0.00000E+00  9.000E+00
      25     1     1     2     0     0  1.431404576E+01  2.490415965E-01  1.344296243E+03  1.350171227E+03  1.250000000E+02  0.00000E+00  9.000E+00
      25     1     1     2     0     0 -1.143178253E+01 -4.743287750E+00  2.194765645E+02  2.528797082E+02  1.250000000E+02  0.00000E+00  9.000E+00
      21     1     1     2   502   511 -2.882263223E+00  4.494246154E+00 -1.092028518E+02  1.093332910E+02  4.264961200E-06  0.00000E+00  9.000E+00
#rwgt            1           1   3.8722636621302889E-002           9      280324           0
</event>
<event>
      5   9999  3.79277E-02  1.66503E+02 -1.00000E+00  1.14625E-01
      21    -1     0     0   502   501  0.000000000E+00  0.000000000E+00  2.332050883E+02  2.332050883E+02  0.000000000E+00  0.00000E+00  9.000E+00
       5    -1     0     0   501     0  0.000000000E+00  0.000000000E+00 -9.243456630E+02  9.243456630E+02  0.000000000E+00  0.00000E+00  9.000E+00
      25     1     1     2     0     0 -1.859588782E+02  3.166121976E+01  9.779352642E+01  2.465191900E+02  1.250000000E+02  0.00000E+00  9.000E+00
      25     1     1     2     0     0  4.313539384E+01 -1.172447463E+02 -1.016665523E+02  2.038825166E+02  1.250000000E+02  0.00000E+00  9.000E+00
       5     1     1     2   502     0  1.428234843E+02  8.558352653E+01 -6.872675488E+02  7.071490447E+02  1.525878906E-05  0.00000E+00  9.000E+00
#rwgt            1           1   3.5955552568326644E-002           9      280715           0
</event>
<event>
      5   9999  3.79277E-02  9.65496E+01 -1.00000E+00  1.24518E-01
      21    -1     0     0   502   511  0.000000000E+00  0.000000000E+00  3.803049560E+02  3.803049560E+02  0.000000000E+00  0.00000E+00  9.000E+00
      21    -1     0     0   501   502  0.000000000E+00  0.000000000E+00 -1.639231662E+02  1.639231662E+02  0.000000000E+00  0.00000E+00  9.000E+00
      25     1     1     2     0     0  1.252136395E+02  3.297681515E+01  6.133484247E+01  1.901391300E+02  1.250000000E+02  0.00000E+00  9.000E+00
      25     1     1     2     0     0 -1.005114175E+02 -1.263129206E+02  4.760469812E+01  2.096394673E+02  1.250000000E+02  0.00000E+00  9.000E+00
      21     1     1     2   501   511 -2.470222201E+01  9.333610541E+01  1.074422492E+02  1.444495250E+02  1.907348633E-06  0.00000E+00  9.000E+00
#rwgt            1           1   4.2137375137459389E-002           9      280761           0
</event>
<event>
      5   9999  3.79277E-02  4.70650E+01 -1.00000E+00  1.40591E-01
      21    -1     0     0   502   501  0.000000000E+00  0.000000000E+00  3.941453151E+02  3.941453151E+02  0.000000000E+00  0.00000E+00  9.000E+00
      21    -1     0     0   501   512  0.000000000E+00  0.000000000E+00 -1.816477723E+02  1.816477723E+02  0.000000000E+00  0.00000E+00  9.000E+00
      25     1     1     2     0     0  1.050798665E+02 -4.611140623E+00  3.210509742E+02  3.602246091E+02  1.250000000E+02  0.00000E+00  9.000E+00
      25     1     1     2     0     0 -5.924266385E+01  1.529134585E+01 -8.185293038E+01  1.614571791E+02  1.250000000E+02  0.00000E+00  9.000E+00
      21     1     1     2   502   512 -4.583720270E+01 -1.068020523E+01 -2.670050111E+01  5.411129914E+01  1.066240300E-06  0.00000E+00  9.000E+00
#rwgt            1           1   3.5458952198542490E-002           9      280908           0
</event>
<event>
      5   9999  3.79277E-02  5.36741E+01 -1.00000E+00  1.37341E-01
      21    -1     0     0   511   501  0.000000000E+00  0.000000000E+00  2.638120841E+02  2.638120841E+02  0.000000000E+00  0.00000E+00  9.000E+00
      21    -1     0     0   501   502  0.000000000E+00  0.000000000E+00 -3.223667362E+02  3.223667362E+02  0.000000000E+00  0.00000E+00  9.000E+00
      25     1     1     2     0     0  7.717693047E+01 -9.568108295E+01 -6.771112897E+01  1.879386741E+02  1.250000000E+02  0.00000E+00  9.000E+00
      25     1     1     2     0     0 -7.628264981E+01  4.201439820E+01 -1.599070908E+02  2.208608839E+02  1.250000000E+02  0.00000E+00  9.000E+00
      21     1     1     2   511   502 -8.942806629E-01  5.366668475E+01  1.690635677E+02  1.773792624E+02  1.907348633E-06  0.00000E+00  9.000E+00
#rwgt            1           1   4.6737324876381915E-002           9      281008           0
</event>
<event>
      5   9999  3.79277E-02  5.62483E+00 -1.00000E+00  2.29917E-01
      21    -1     0     0   502   501  0.000000000E+00  0.000000000E+00  3.611846698E+02  3.611846698E+02  0.000000000E+00  0.00000E+00  9.000E+00
      21    -1     0     0   512   502  0.000000000E+00  0.000000000E+00 -8.943266924E+01  8.943266924E+01  0.000000000E+00  0.00000E+00  9.000E+00
      25     1     1     2     0     0  9.374544859E+01 -3.938348556E+01  2.229096621E+02  2.750508780E+02  1.250000000E+02  0.00000E+00  9.000E+00
      25     1     1     2     0     0 -9.003282461E+01  4.360902324E+01  5.291740614E+01  1.686206046E+02  1.250000000E+02  0.00000E+00  9.000E+00
      21     1     1     2   512   501 -3.712623974E+00 -4.225537682E+00 -4.075067640E+00  6.945856445E+00  8.429369702E-08  0.00000E+00  9.000E+00
#rwgt            1           1   4.1910556007792088E-002           9      281125           0
</event>
<event>
      5   9999  3.79277E-02  4.37201E+01 -1.00000E+00  1.42485E-01
      21    -1     0     0   502   511  0.000000000E+00  0.000000000E+00  4.281248858E+01  4.281248858E+01  0.000000000E+00  0.00000E+00  9.000E+00
      21    -1     0     0   501   502  0.000000000E+00  0.000000000E+00 -1.614102080E+03  1.614102080E+03  0.000000000E+00  0.00000E+00  9.000E+00
      25     1     1     2     0     0  8.802059330E+01  6.499041333E+01 -3.426996475E+02  3.808404220E+02  1.250000000E+02  0.00000E+00  9.000E+00
      25     1     1     2     0     0 -1.236288078E+02 -9.035782429E+01 -1.213994308E+03  1.229982031E+03  1.250000000E+02  0.00000E+00  9.000E+00
      21     1     1     2   501   511  3.560821453E+01  2.536741096E+01 -1.459563629E+01  4.609211516E+01  1.914784718E-06  0.00000E+00  9.000E+00
#rwgt            1           1   2.0713042925231004E-002           9      281589           0
</event>
<event>
      5   9999  3.79277E-02  3.76518E+01 -1.00000E+00  1.46489E-01
      21    -1     0     0   512   501  0.000000000E+00  0.000000000E+00  1.295308704E+02  1.295308704E+02  0.000000000E+00  0.00000E+00  9.000E+00
      21    -1     0     0   501   502  0.000000000E+00  0.000000000E+00 -4.220165357E+02  4.220165357E+02  0.000000000E+00  0.00000E+00  9.000E+00
      25     1     1     2     0     0  6.467788832E+01 -4.102130721E+01 -2.995540742E+02  3.335020543E+02  1.250000000E+02  0.00000E+00  9.000E+00
      25     1     1     2     0     0 -7.997424119E+01  6.616618783E+00 -4.370192162E+01  1.548370655E+02  1.250000000E+02  0.00000E+00  9.000E+00
      21     1     1     2   512   502  1.529635287E+01  3.440468842E+01  5.077033048E+01  6.320828627E+01  1.168007728E-06  0.00000E+00  9.000E+00
#rwgt            1           1   4.7331692359203779E-002           9      281725           0
</event>
<event>
      5   9999 -3.79277E-02  1.78947E+01 -1.00000E+00  1.70456E-01
      21    -1     0     0   502   501  0.000000000E+00  0.000000000E+00  6.335431864E+02  6.335431864E+02  0.000000000E+00  0.00000E+00  9.000E+00
      21    -1     0     0   511   502  0.000000000E+00  0.000000000E+00 -6.895773531E+01  6.895773531E+01  0.000000000E+00  0.00000E+00  9.000E+00
      25     1     1     2     0     0 -1.133145365E+02  9.890786961E+01  3.317141683E+02  3.850743309E+02  1.250000000E+02  0.00000E+00  9.000E+00
      25     1     1     2     0     0  1.173717981E+02 -8.147915672E+01  2.316326747E+02  2.994890448E+02  1.250000000E+02  0.00000E+00  9.000E+00
      21     1     1     2   511   501 -4.057261618E+00 -1.742871289E+01  1.238607996E+00  1.793754594E+01  3.274867084E-07  0.00000E+00  9.000E+00
#rwgt            1           1 -0.20396013121001022                9      281806           0
</event>
<event>
      5   9999  3.79277E-02  2.59266E+01 -1.00000E+00  1.57576E-01
      21    -1     0     0   502   512  0.000000000E+00  0.000000000E+00  5.096255925E+01  5.096255925E+01  0.000000000E+00  0.00000E+00  9.000E+00
      21    -1     0     0   501   502  0.000000000E+00  0.000000000E+00 -1.154026303E+03  1.154026303E+03  0.000000000E+00  0.00000E+00  9.000E+00
      25     1     1     2     0     0  5.959469461E+00  1.526500030E+02 -2.577727223E+02  3.246680074E+02  1.250000000E+02  0.00000E+00  9.000E+00
      25     1     1     2     0     0 -1.916950644E+01 -1.749587976E+02 -7.943510151E+02  8.231625514E+02  1.250000000E+02  0.00000E+00  9.000E+00
      21     1     1     2   501   512  1.321003698E+01  2.230879468E+01 -5.094000592E+01  5.715830298E+01  6.743495762E-07  0.00000E+00  9.000E+00
#rwgt            1           1   4.1941037810767141E-002           9      281964           0
</event>
<event>
      5   9999 -3.79277E-02  1.55500E+01 -1.00000E+00  1.75923E-01
      21    -1     0     0   502   501  0.000000000E+00  0.000000000E+00  2.459131972E+02  2.459131972E+02  0.000000000E+00  0.00000E+00  9.000E+00
       2    -1     0     0   501     0  0.000000000E+00  0.000000000E+00 -2.636155970E+02  2.636155970E+02  0.000000000E+00  0.00000E+00  9.000E+00
      25     1     1     2     0     0  1.577726990E+02 -1.182508740E+02 -9.391226046E+01  2.516346686E+02  1.250000000E+02  0.00000E+00  9.000E+00
      25     1     1     2     0     0 -1.569437807E+02  1.027229495E+02  8.393939549E+01  2.405289521E+02  1.250000000E+02  0.00000E+00  9.000E+00
       2     1     1     2   502     0 -8.289183010E-01  1.552792447E+01 -7.729534791E+00  1.736517354E+01  2.665600750E-07  0.00000E+00  9.000E+00
#rwgt            1           1 -0.14357454330546443                9      282222           0
</event>
<event>
      5   9999  3.79277E-02  4.22323E+01 -1.00000E+00  1.43392E-01
      21    -1     0     0   502   501  0.000000000E+00  0.000000000E+00  7.895317891E+01  7.895317891E+01  0.000000000E+00  0.00000E+00  9.000E+00
      21    -1     0     0   511   502  0.000000000E+00  0.000000000E+00 -7.319700463E+02  7.319700463E+02  0.000000000E+00  0.00000E+00  9.000E+00
      25     1     1     2     0     0 -1.307764699E+02 -3.348197182E+01 -1.660046328E+02  2.478024730E+02  1.250000000E+02  0.00000E+00  9.000E+00
      25     1     1     2     0     0  9.035343241E+01  2.125304583E+01 -1.277823301E+02  2.014168776E+02  1.250000000E+02  0.00000E+00  9.000E+00
      21     1     1     2   511   501  4.042303751E+01  1.222892599E+01 -3.592299045E+02  3.617038746E+02  5.394796609E-06  0.00000E+00  9.000E+00
#rwgt            1           1   3.7894822322619835E-002           9      282493           0
</event>
<event>
      5   9999  3.79277E-02  2.60498E+00 -1.00000E+00  3.16807E-01
      21    -1     0     0   502   512  0.000000000E+00  0.000000000E+00  1.117911376E+03  1.117911376E+03  0.000000000E+00  0.00000E+00  9.000E+00
      21    -1     0     0   501   502  0.000000000E+00  0.000000000E+00 -4.455400914E+01  4.455400914E+01  0.000000000E+00  0.00000E+00  9.000E+00
      25     1     1     2     0     0 -5.626219458E+01 -3.548442843E+01  7.207088977E+02  7.344868239E+02  1.250000000E+02  0.00000E+00  9.000E+00
      25     1     1     2     0     0  5.366196100E+01  3.564161721E+01  9.361951872E+01  1.689365124E+02  1.250000000E+02  0.00000E+00  9.000E+00
      21     1     1     2   501   512  2.600233576E+00 -1.571887731E-01  2.590289505E+02  2.590420489E+02  3.814697266E-06  0.00000E+00  9.000E+00
#rwgt            1           1   3.0637469374858072E-002           9      282635           0
</event>
<event>
      5   9999  3.79277E-02  7.07129E+01 -1.00000E+00  1.30998E-01
      21    -1     0     0   511   501  0.000000000E+00  0.000000000E+00  1.674785581E+02  1.674785581E+02  0.000000000E+00  0.00000E+00  9.000E+00
      21    -1     0     0   501   502  0.000000000E+00  0.000000000E+00 -6.971533166E+02  6.971533166E+02  0.000000000E+00  0.00000E+00  9.000E+00
      25     1     1     2     0     0 -3.126864035E+01 -6.282476374E+01 -6.039975536E+02  6.207759045E+02  1.250000000E+02  0.00000E+00  9.000E+00
      25     1     1     2     0     0  9.463542789E+01  3.144063785E+01  6.467333529E+01  1.724877335E+02  1.250000000E+02  0.00000E+00  9.000E+00
      21     1     1     2   511   502 -6.336678755E+01  3.138412589E+01  9.649459814E+00  7.136823661E+01  1.046057270E-06  0.00000E+00  9.000E+00
#rwgt            1           1   5.0806511421397381E-002           9      283225           0
</event>
<event>
      5   9999  3.79277E-02  3.52082E+01 -1.00000E+00  1.48363E-01
      21    -1     0     0   502   512  0.000000000E+00  0.000000000E+00  1.037347424E+03  1.037347424E+03  0.000000000E+00  0.00000E+00  9.000E+00
      21    -1     0     0   501   502  0.000000000E+00  0.000000000E+00 -6.812552989E+01  6.812552989E+01  0.000000000E+00  0.00000E+00  9.000E+00
      25     1     1     2     0     0 -4.073278829E+01 -6.005564413E+01  3.083976300E+01  1.477901601E+02  1.250000000E+02  0.00000E+00  9.000E+00
      25     1     1     2     0     0  4.110602842E+01  2.484941731E+01  4.914983272E+02  5.094141780E+02  1.250000000E+02  0.00000E+00  9.000E+00
      21     1     1     2   501   512 -3.732401310E-01  3.520622682E+01  4.468838040E+02  4.482686158E+02  5.394796609E-06  0.00000E+00  9.000E+00
#rwgt            1           1   5.2615159615439284E-002           9      283289           0
</event>
<event>
      5   9999  3.79277E-02  1.79499E+01 -1.00000E+00  1.70340E-01
      21    -1     0     0   511   501  0.000000000E+00  0.000000000E+00  8.498823475E+02  8.498823475E+02  0.000000000E+00  0.00000E+00  9.000E+00
      21    -1     0     0   501   502  0.000000000E+00  0.000000000E+00 -5.478853878E+01  5.478853878E+01  0.000000000E+00  0.00000E+00  9.000E+00
      25     1     1     2     0     0 -1.526728769E+02 -4.181129820E+01  2.638329307E+02  3.320993938E+02  1.250000000E+02  0.00000E+00  9.000E+00
      25     1     1     2     0     0  1.400312721E+02  5.455449183E+01  4.810467766E+02  5.192455595E+02  1.250000000E+02  0.00000E+00  9.000E+00
      21     1     1     2   511   502  1.264160480E+01 -1.274319363E+01  5.021410139E+01  5.332593304E+01  0.000000000E+00  0.00000E+00  9.000E+00
#rwgt            1           1   3.3823991644262218E-002           9      283556           0
</event>
<event>
      5   9999  3.79277E-02  7.80208E+00 -1.00000E+00  2.09103E-01
      21    -1     0     0   512   501  0.000000000E+00  0.000000000E+00  1.216797106E+03  1.216797106E+03  0.000000000E+00  0.00000E+00  9.000E+00
      21    -1     0     0   501   502  0.000000000E+00  0.000000000E+00 -3.711957480E+01  3.711957480E+01  0.000000000E+00  0.00000E+00  9.000E+00
      25     1     1     2     0     0 -1.339947462E+01  2.666173406E+01  9.929089980E+01  1.624009753E+02  1.250000000E+02  0.00000E+00  9.000E+00
      25     1     1     2     0     0  1.878618612E+01 -2.101764104E+01  7.381131203E+02  7.491532823E+02  1.250000000E+02  0.00000E+00  9.000E+00
      21     1     1     2   512   502 -5.386711499E+00 -5.644093023E+00  3.422735114E+02  3.423624235E+02  6.607249480E-06  0.00000E+00  9.000E+00
#rwgt            1           1   4.4950258934739022E-002           9      283724           0
</event>
<event>
      5   9999  3.79277E-02  2.97312E+01 -1.00000E+00  1.53312E-01
      21    -1     0     0   502   501  0.000000000E+00  0.000000000E+00  3.423700929E+02  3.423700929E+02  0.000000000E+00  0.00000E+00  9.000E+00
      21    -1     0     0   501   511  0.000000000E+00  0.000000000E+00 -1.127172483E+02  1.127172483E+02  0.000000000E+00  0.00000E+00  9.000E+00
      25     1     1     2     0     0 -1.224122616E+01 -7.497950751E+01  1.848454546E+02  2.357214802E+02  1.250000000E+02  0.00000E+00  9.000E+00
      25     1     1     2     0     0  2.302358781E+00  1.030002218E+02  7.365027794E+01  1.779429965E+02  1.250000000E+02  0.00000E+00  9.000E+00
      21     1     1     2   502   511  9.938867384E+00 -2.802071431E+01 -2.884288797E+01  4.142286448E+01  4.768371582E-07  0.00000E+00  9.000E+00
#rwgt            1           1   3.2218415005020193E-002           9      284053           0
</event>
<event>
      5   9999  3.79277E-02  4.67834E+01 -1.00000E+00  1.40743E-01
      21    -1     0     0   502   512  0.000000000E+00  0.000000000E+00  2.386467431E+02  2.386467431E+02  0.000000000E+00  0.00000E+00  9.000E+00
      21    -1     0     0   501   502  0.000000000E+00  0.000000000E+00 -1.835578458E+03  1.835578458E+03  0.000000000E+00  0.00000E+00  9.000E+00
      25     1     1     2     0     0  2.670923918E+02  1.511840110E+02 -1.662829873E+03  1.695530341E+03  1.250000000E+02  0.00000E+00  9.000E+00
      25     1     1     2     0     0 -2.796864237E+02 -1.061276383E+02  4.450119659E+01  3.272505580E+02  1.250000000E+02  0.00000E+00  9.000E+00
      21     1     1     2   501   512  1.259403190E+01 -4.505637266E+01  2.139696076E+01  5.144430276E+01  1.563415176E-06  0.00000E+00  9.000E+00
#rwgt            1           1   2.4618514403581204E-002           9      284306           0
</event>
<event>
      5   9999 -3.79277E-02  6.87157E+01 -1.00000E+00  1.31629E-01
       2    -1     0     0   502     0  0.000000000E+00  0.000000000E+00  6.561801214E+02  6.561801214E+02  0.000000000E+00  0.00000E+00  9.000E+00
      21    -1     0     0   501   502  0.000000000E+00  0.000000000E+00 -8.982353378E+01  8.982353378E+01  0.000000000E+00  0.00000E+00  9.000E+00
      25     1     1     2     0     0  1.273766866E+02  2.711378560E+01  3.386959356E+02  3.837967098E+02  1.250000000E+02  0.00000E+00  9.000E+00
      25     1     1     2     0     0 -1.700346084E+02  2.675786609E+01  1.650947107E+02  2.692749802E+02  1.250000000E+02  0.00000E+00  9.000E+00
       2     1     1     2   501     0  4.265792177E+01 -5.387165169E+01  6.256594143E+01  9.293196529E+01  6.743495762E-07  0.00000E+00  9.000E+00
#rwgt            1           1  -6.9447940898522520E-002           9      284542           0
</event>
<event>
      5   9999  3.79277E-02  9.60302E+00 -1.00000E+00  1.97813E-01
      21    -1     0     0   511   501  0.000000000E+00  0.000000000E+00  1.767004057E+02  1.767004057E+02  0.000000000E+00  0.00000E+00  9.000E+00
      21    -1     0     0   501   502  0.000000000E+00  0.000000000E+00 -5.189007625E+02  5.189007625E+02  0.000000000E+00  0.00000E+00  9.000E+00
      25     1     1     2     0     0 -6.433373604E+01 -1.692120363E+02 -4.061846217E+02  4.619334257E+02  1.250000000E+02  0.00000E+00  9.000E+00
      25     1     1     2     0     0  5.523230180E+01  1.661490633E+02  6.099269335E+01  2.236095415E+02  1.250000000E+02  0.00000E+00  9.000E+00
      21     1     1     2   511   502  9.101434231E+00  3.062973000E+00  2.991571596E+00  1.005820110E+01  2.190014490E-07  0.00000E+00  9.000E+00
#rwgt            1           1   3.7738323874634702E-002           9      284677           0
</event>
<event>
      5   9999  3.79277E-02  2.14456E+01 -1.00000E+00  1.63907E-01
      21    -1     0     0   502   501  0.000000000E+00  0.000000000E+00  1.442146041E+03  1.442146041E+03  0.000000000E+00  0.00000E+00  9.000E+00
      21    -1     0     0   512   502  0.000000000E+00  0.000000000E+00 -1.926003984E+02  1.926003984E+02  0.000000000E+00  0.00000E+00  9.000E+00
      25     1     1     2     0     0  8.569088885E+01 -4.692022829E+01  2.343483255E+02  2.829992472E+02  1.250000000E+02  0.00000E+00  9.000E+00
      25     1     1     2     0     0 -1.064219584E+02  5.240979087E+01  1.176485373E+03  1.189039634E+03  1.250000000E+02  0.00000E+00  9.000E+00
      21     1     1     2   512   501  2.073106952E+01 -5.489562572E+00 -1.612880556E+02  1.627075580E+02  0.000000000E+00  0.00000E+00  9.000E+00
#rwgt            1           1   3.3093352059512339E-002           9      285048           0
</event>
<event>
      5   9999  3.79277E-02  1.21685E+02 -1.00000E+00  1.20112E-01
      21    -1     0     0   502   511  0.000000000E+00  0.000000000E+00  2.484116272E+01  2.484116272E+01  0.000000000E+00  0.00000E+00  9.000E+00
      21    -1     0     0   501   502  0.000000000E+00  0.000000000E+00 -2.857612944E+03  2.857612944E+03  0.000000000E+00  0.00000E+00  9.000E+00
      25     1     1     2     0     0 -8.784324375E+01  4.557666501E+01 -1.343086091E+03  1.352515772E+03  1.250000000E+02  0.00000E+00  9.000E+00
      25     1     1     2     0     0  8.366348790E+01 -1.671902179E+02 -8.847618662E+02  9.128968770E+02  1.250000000E+02  0.00000E+00  9.000E+00
      21     1     1     2   501   511  4.179755845E+00  1.216135529E+02 -6.049238243E+02  6.170414571E+02  1.078959322E-05  0.00000E+00  9.000E+00
#rwgt            1           1   7.6168250044929026E-002           9      285201           0
</event>
<event>
      5   9999  3.79277E-02  1.08769E+01 -1.00000E+00  1.91630E-01
      21    -1     0     0   502   501  0.000000000E+00  0.000000000E+00  7.820522495E+01  7.820522495E+01  0.000000000E+00  0.00000E+00  9.000E+00
      21    -1     0     0   512   502  0.000000000E+00  0.000000000E+00 -7.236398483E+02  7.236398483E+02  0.000000000E+00  0.00000E+00  9.000E+00
      25     1     1     2     0     0 -1.830095322E+01  1.660685916E+02 -3.876118327E+02  4.402063548E+02  1.250000000E+02  0.00000E+00  9.000E+00
      25     1     1     2     0     0  2.857409009E+01 -1.624952838E+02 -1.558946797E+02  2.591319105E+02  1.250000000E+02  0.00000E+00  9.000E+00
      21     1     1     2   512   501 -1.027313687E+01 -3.573307758E+00 -1.019281109E+02  1.025068079E+02  1.348699152E-06  0.00000E+00  9.000E+00
#rwgt            1           1   4.5122608274004522E-002           9      285253           0
</event>
<event>
      5   9999  3.79277E-02  8.11528E+01 -1.00000E+00  1.28049E-01
      21    -1     0     0   511   501  0.000000000E+00  0.000000000E+00  1.512199717E+03  1.512199717E+03  0.000000000E+00  0.00000E+00  9.000E+00
      21    -1     0     0   501   502  0.000000000E+00  0.000000000E+00 -6.396466061E+02  6.396466061E+02  0.000000000E+00  0.00000E+00  9.000E+00
      25     1     1     2     0     0 -7.746397831E+01  1.844110649E+02  1.225043325E+02  2.657826561E+02  1.250000000E+02  0.00000E+00  9.000E+00
      25     1     1     2     0     0  1.975248232E+01 -2.414650683E+02 -5.339414198E+02  5.995114507E+02  1.250000000E+02  0.00000E+00  9.000E+00
      21     1     1     2   511   502  5.771149599E+01  5.705400339E+01  1.283990198E+03  1.286552216E+03  1.525878906E-05  0.00000E+00  9.000E+00
#rwgt            1           1   2.7159329014126998E-002           9      285554           0
</event>
<event>
      5   9999  3.79277E-02  4.33733E+01 -1.00000E+00  1.42693E-01
       1    -1     0     0   502     0  0.000000000E+00  0.000000000E+00  1.441599460E+03  1.441599460E+03  0.000000000E+00  0.00000E+00  9.000E+00
      21    -1     0     0   501   502  0.000000000E+00  0.000000000E+00 -9.686733876E+01  9.686733876E+01  0.000000000E+00  0.00000E+00  9.000E+00
      25     1     1     2     0     0  1.257811339E+02  2.247721828E+01  6.075372919E+01  1.887912461E+02  1.250000000E+02  0.00000E+00  9.000E+00
      25     1     1     2     0     0 -1.201572792E+02 -6.548441640E+01  2.326407852E+02  2.974436342E+02  1.250000000E+02  0.00000E+00  9.000E+00
       1     1     1     2   501     0 -5.623854686E+00  4.300719812E+01  1.051337607E+03  1.052231918E+03  1.525878906E-05  0.00000E+00  9.000E+00
#rwgt            1           1  0.10579228226670342                9      285656           0
</event>
<event>
      5   9999  3.79277E-02  9.15761E+00 -1.00000E+00  2.00281E-01
       2    -1     0     0   502     0  0.000000000E+00  0.000000000E+00  7.842123595E+02  7.842123595E+02  0.000000000E+00  0.00000E+00  9.000E+00
      21    -1     0     0   501   502  0.000000000E+00  0.000000000E+00 -1.374121252E+02  1.374121252E+02  0.000000000E+00  0.00000E+00  9.000E+00
      25     1     1     2     0     0 -1.354290385E+02 -1.816754274E+02  1.534397191E+02  3.008583268E+02  1.250000000E+02  0.00000E+00  9.000E+00
      25     1     1     2     0     0  1.444561989E+02  1.832156271E+02  2.116438503E+02  3.389006917E+02  1.250000000E+02  0.00000E+00  9.000E+00
       2     1     1     2   501     0 -9.027160434E+00 -1.540199715E+00  2.817166649E+02  2.818654663E+02  5.394796609E-06  0.00000E+00  9.000E+00
#rwgt            2          18   4.8246437256718489E-005           9      285755           0
</event>
<event>
      5   9999  3.79277E-02  7.47536E+01 -1.00000E+00  1.29792E-01
      21    -1     0     0   502   501  0.000000000E+00  0.000000000E+00  9.978412112E+02  9.978412112E+02  0.000000000E+00  0.00000E+00  9.000E+00
      21    -1     0     0   511   502  0.000000000E+00  0.000000000E+00 -9.528764607E+01  9.528764607E+01  0.000000000E+00  0.00000E+00  9.000E+00
      25     1     1     2     0     0  1.866021011E+02 -4.018139410E+01  5.815757074E+02  6.247320962E+02  1.250000000E+02  0.00000E+00  9.000E+00
      25     1     1     2     0     0 -2.346002785E+02 -1.712721451E+01  2.505494619E+02  3.656920358E+02  1.250000000E+02  0.00000E+00  9.000E+00
      21     1     1     2   511   501  4.799817745E+01  5.730860860E+01  7.042839578E+01  1.027047253E+02  1.348699152E-06  0.00000E+00  9.000E+00
#rwgt            1           1   4.0297969384535476E-002           9      285789           0
</event>
<event>
      5   9999  3.79277E-02  3.92730E+01 -1.00000E+00  1.45336E-01
      21    -1     0     0   502   512  0.000000000E+00  0.000000000E+00  1.503517249E+03  1.503517249E+03  0.000000000E+00  0.00000E+00  9.000E+00
      21    -1     0     0   501   502  0.000000000E+00  0.000000000E+00 -5.388627240E+01  5.388627240E+01  0.000000000E+00  0.00000E+00  9.000E+00
      25     1     1     2     0     0 -8.748666708E+01 -1.112048444E+02  1.092711443E+03  1.108902039E+03  1.250000000E+02  0.00000E+00  9.000E+00
      25     1     1     2     0     0  1.184448568E+02  1.353700699E+02  2.388946185E+02  3.241139903E+02  1.250000000E+02  0.00000E+00  9.000E+00
      21     1     1     2   501   512 -3.095818976E+01 -2.416522545E+01  1.180249155E+02  1.243874926E+02  1.907348633E-06  0.00000E+00  9.000E+00
#rwgt            1           1   3.2145921427631230E-002           9      285973           0
</event>
<event>
      5   9999  3.79277E-02  9.21571E+00 -1.00000E+00  1.99949E-01
      21    -1     0     0   502   511  0.000000000E+00  0.000000000E+00  5.801944916E+01  5.801944916E+01  0.000000000E+00  0.00000E+00  9.000E+00
      21    -1     0     0   501   502  0.000000000E+00  0.000000000E+00 -5.002263573E+02  5.002263573E+02  0.000000000E+00  0.00000E+00  9.000E+00
      25     1     1     2     0     0  5.273984105E+01 -5.428144994E+01 -1.907345779E+02  2.402761866E+02  1.250000000E+02  0.00000E+00  9.000E+00
      25     1     1     2     0     0 -6.084544354E+01  4.989641628E+01 -2.639442831E+02  3.024622372E+02  1.250000000E+02  0.00000E+00  9.000E+00
      21     1     1     2   501   511  8.105602488E+00  4.385033659E+00  1.247195279E+01  1.550738270E+01  2.384185791E-07  0.00000E+00  9.000E+00
#rwgt            1           1   8.4900080946089154E-002           9      286182           0
</event>
<event>
      5   9999 -3.79277E-02  9.08428E+01 -1.00000E+00  1.25733E-01
      21    -1     0     0   502   501  0.000000000E+00  0.000000000E+00  1.938529099E+02  1.938529099E+02  0.000000000E+00  0.00000E+00  9.000E+00
      21    -1     0     0   501   512  0.000000000E+00  0.000000000E+00 -5.099944840E+02  5.099944840E+02  0.000000000E+00  0.00000E+00  9.000E+00
      25     1     1     2     0     0  1.893202573E+02  1.620309864E+01 -5.103522527E+01  2.330971781E+02  1.250000000E+02  0.00000E+00  9.000E+00
      25     1     1     2     0     0 -2.622305655E+02  3.798647493E+01 -1.677718727E+02  3.376096015E+02  1.250000000E+02  0.00000E+00  9.000E+00
      21     1     1     2   502   512  7.291030818E+01 -5.418957357E+01 -9.733447606E+01  1.331406142E+02  0.000000000E+00  0.00000E+00  9.000E+00
#rwgt            1           1  -8.7918888113212301E-002           9      286464           0
</event>
<event>
      5   9999  3.79277E-02  1.10705E+01 -1.00000E+00  1.90786E-01
      21    -1     0     0   511   501  0.000000000E+00  0.000000000E+00  7.548133381E+02  7.548133381E+02  0.000000000E+00  0.00000E+00  9.000E+00
      21    -1     0     0   501   502  0.000000000E+00  0.000000000E+00 -9.066214635E+01  9.066214635E+01  0.000000000E+00  0.00000E+00  9.000E+00
      25     1     1     2     0     0  3.408082675E+01 -2.707058426E+01  5.639207491E+02  5.792460018E+02  1.250000000E+02  0.00000E+00  9.000E+00
      25     1     1     2     0     0 -2.333656332E+01  2.440265251E+01 -3.212992139E+01  1.334069582E+02  1.250000000E+02  0.00000E+00  9.000E+00
      21     1     1     2   511   502 -1.074426343E+01  2.667931745E+00  1.323603640E+02  1.328225245E+02  2.697398305E-06  0.00000E+00  9.000E+00
#rwgt            1           1   5.2757274284013556E-002           9      286542           0
</event>
<event>
      5   9999 -3.79277E-02  3.99234E+01 -1.00000E+00  1.44892E-01
      21    -1     0     0   512   501  0.000000000E+00  0.000000000E+00  3.924577825E+02  3.924577825E+02  0.000000000E+00  0.00000E+00  9.000E+00
      21    -1     0     0   501   502  0.000000000E+00  0.000000000E+00 -3.511889039E+02  3.511889039E+02  0.000000000E+00  0.00000E+00  9.000E+00
      25     1     1     2     0     0  1.088577272E+02  9.770382364E+01 -1.049714168E+02  2.191803829E+02  1.250000000E+02  0.00000E+00  9.000E+00
      25     1     1     2     0     0 -8.314016305E+01 -6.716721806E+01 -1.517710252E+02  2.237926853E+02  1.250000000E+02  0.00000E+00  9.000E+00
      21     1     1     2   512   502 -2.571756410E+01 -3.053660558E+01  2.980113207E+02  3.006736181E+02  6.607249480E-06  0.00000E+00  9.000E+00
#rwgt            1           1  -5.7613542729570290E-002           9      286835           0
</event>
<event>
      5   9999  3.79277E-02  1.52948E+01 -1.00000E+00  1.76591E-01
      21    -1     0     0   502   501  0.000000000E+00  0.000000000E+00  2.993158967E+03  2.993158967E+03  0.000000000E+00  0.00000E+00  9.000E+00
       1    -1     0     0   501     0  0.000000000E+00  0.000000000E+00 -2.474273562E+01  2.474273562E+01  0.000000000E+00  0.00000E+00  9.000E+00
      25     1     1     2     0     0  1.597249289E+02  8.380770847E+01  6.507315887E+02  6.867404061E+02  1.250000000E+02  0.00000E+00  9.000E+00
      25     1     1     2     0     0 -1.448302592E+02 -8.033202308E+01  2.291209046E+03  2.300585345E+03  1.250000000E+02  0.00000E+00  9.000E+00
       1     1     1     2   502     0 -1.489466974E+01 -3.475685392E+00  2.647559641E+01  3.057595102E+01  8.920806376E-07  0.00000E+00  9.000E+00
#rwgt            1           1   3.9011630347216712E-002           9      287037           0
</event>
<event>
      5   9999  3.79277E-02  3.66354E+01 -1.00000E+00  1.47247E-01
      21    -1     0     0   502   511  0.000000000E+00  0.000000000E+00  5.582692115E+01  5.582692115E+01  0.000000000E+00  0.00000E+00  9.000E+00
      21    -1     0     0   501   502  0.000000000E+00  0.000000000E+00 -5.261794000E+02  5.261794000E+02  0.000000000E+00  0.00000E+00  9.000E+00
      25     1     1     2     0     0  4.672682848E+01  3.992106955E+01 -2.709892905E+02  3.046921132E+02  1.250000000E+02  0.00000E+00  9.000E+00
      25     1     1     2     0     0 -4.229862563E+01 -7.628790744E+01 -1.800263038E+02  2.358887208E+02  1.250000000E+02  0.00000E+00  9.000E+00
      21     1     1     2   501   511 -4.428202856E+00  3.636683789E+01 -1.933688459E+01  4.142548714E+01  4.768371582E-07  0.00000E+00  9.000E+00
#rwgt            1           1   7.9565266927687422E-002           9      287354           0
</event>
<event>
      5   9999  3.79277E-02  6.03478E+01 -1.00000E+00  1.34569E-01
      21    -1     0     0   502   512  0.000000000E+00  0.000000000E+00  8.861385804E+02  8.861385804E+02  0.000000000E+00  0.00000E+00  9.000E+00
      21    -1     0     0   501   502  0.000000000E+00  0.000000000E+00 -3.509536353E+02  3.509536353E+02  0.000000000E+00  0.00000E+00  9.000E+00
      25     1     1     2     0     0  1.229571642E+02 -3.808877530E+02  8.693293757E+01  4.282245675E+02  1.250000000E+02  0.00000E+00  9.000E+00
      25     1     1     2     0     0 -6.478921400E+01  3.969607892E+02  7.138062987E+01  4.271951601E+02  1.250000000E+02  0.00000E+00  9.000E+00
      21     1     1     2   501   512 -5.816795019E+01 -1.607303627E+01  3.768713777E+02  3.816724882E+02  0.000000000E+00  0.00000E+00  9.000E+00
#rwgt            1           1   3.0027885207679711E-002           9      287467           0
</event>
<event>
      5   9999  3.79277E-02  3.74131E+01 -1.00000E+00  1.46664E-01
      21    -1     0     0   502   501  0.000000000E+00  0.000000000E+00  1.498405007E+02  1.498405007E+02  0.000000000E+00  0.00000E+00  9.000E+00
      21    -1     0     0   501   511  0.000000000E+00  0.000000000E+00 -2.609668097E+02  2.609668097E+02  0.000000000E+00  0.00000E+00  9.000E+00
      25     1     1     2     0     0  1.150068190E+02  6.401238814E+01 -4.892902047E+01  1.879978811E+02  1.250000000E+02  0.00000E+00  9.000E+00
      25     1     1     2     0     0 -1.206240655E+02 -2.702341164E+01 -4.408500343E+01  1.812427032E+02  1.250000000E+02  0.00000E+00  9.000E+00
      21     1     1     2   502   511  5.617246449E+00 -3.698897650E+01 -1.811228512E+01  4.156672602E+01  4.768371582E-07  0.00000E+00  9.000E+00
#rwgt            1           1   5.4291180404872283E-002           9      287578           0
</event>
<event>
      5   9999 -3.79277E-02  4.65533E+01 -1.00000E+00  1.40869E-01
      21    -1     0     0   502   501  0.000000000E+00  0.000000000E+00  9.710237308E+02  9.710237308E+02  0.000000000E+00  0.00000E+00  9.000E+00
      21    -1     0     0   512   502  0.000000000E+00  0.000000000E+00 -5.811937504E+01  5.811937504E+01  0.000000000E+00  0.00000E+00  9.000E+00
      25     1     1     2     0     0  5.454346074E+01 -1.551475640E+02  4.391306681E+02  4.852901188E+02  1.250000000E+02  0.00000E+00  9.000E+00
      25     1     1     2     0     0 -8.687530918E+00  1.631754704E+02  4.418675875E+02  4.874152975E+02  1.250000000E+02  0.00000E+00  9.000E+00
      21     1     1     2   512   501 -4.585592982E+01 -8.027906396E+00  3.190610015E+01  5.643768960E+01  6.743495762E-07  0.00000E+00  9.000E+00
#rwgt            1           1 -0.11122550876060822                9      287720           0
</event>
<event>
      5   9999  3.79277E-02  7.18869E+01 -1.00000E+00  1.30638E-01
      21    -1     0     0   502   501  0.000000000E+00  0.000000000E+00  2.375302205E+03  2.375302205E+03  0.000000000E+00  0.00000E+00  9.000E+00
       1    -1     0     0   501     0  0.000000000E+00  0.000000000E+00 -8.745925483E+01  8.745925483E+01  0.000000000E+00  0.00000E+00  9.000E+00
      25     1     1     2     0     0  1.879186159E+02 -1.181553966E+02  1.549452462E+03  1.570255404E+03  1.250000000E+02  0.00000E+00  9.000E+00
      25     1     1     2     0     0 -1.754494135E+02  4.735820498E+01  7.792182993E+02  8.098342140E+02  1.250000000E+02  0.00000E+00  9.000E+00
       1     1     1     2   502     0 -1.246920240E+01  7.079719158E+01 -4.082781034E+01  8.267184188E+01  4.498472754E-06  0.00000E+00  9.000E+00
#rwgt            1           1   8.5280314338121860E-002           9      287806           0
</event>
<event>
      5   9999  3.79277E-02  5.82377E+01 -1.00000E+00  1.35399E-01
      21    -1     0     0   502   511  0.000000000E+00  0.000000000E+00  2.163864965E+03  2.163864965E+03  0.000000000E+00  0.00000E+00  9.000E+00
      21    -1     0     0   501   502  0.000000000E+00  0.000000000E+00 -3.043099895E+01  3.043099895E+01  0.000000000E+00  0.00000E+00  9.000E+00
      25     1     1     2     0     0  7.517738980E+01  8.768659001E+01  3.337714461E+02  3.746584528E+02  1.250000000E+02  0.00000E+00  9.000E+00
      25     1     1     2     0     0 -8.889324651E+01 -1.442860823E+02  1.394151133E+03  1.409965554E+03  1.250000000E+02  0.00000E+00  9.000E+00
      21     1     1     2   501   511  1.371585671E+01  5.659949230E+01  4.055113875E+02  4.096719574E+02  5.394796609E-06  0.00000E+00  9.000E+00
#rwgt            1           1   3.4984998162609054E-002           9      287905           0
</event>
<event>
      5   9999  3.79277E-02  3.21775E+01 -1.00000E+00  1.50956E-01
      21    -1     0     0   512   501  0.000000000E+00  0.000000000E+00  7.132013488E+02  7.132013488E+02  0.000000000E+00  0.00000E+00  9.000E+00
      21    -1     0     0   501   502  0.000000000E+00  0.000000000E+00 -1.873741452E+02  1.873741452E+02  0.000000000E+00  0.00000E+00  9.000E+00
      25     1     1     2     0     0 -1.012367903E+01 -7.741371884E+01 -1.217062145E+02  1.911354896E+02  1.250000000E+02  0.00000E+00  9.000E+00
      25     1     1     2     0     0  3.351117701E+01  5.531352071E+01  1.321641880E+02  1.930672348E+02  1.250000000E+02  0.00000E+00  9.000E+00
      21     1     1     2   512   502 -2.338749798E+01  2.210019813E+01  5.153692301E+02  5.163727696E+02  7.629394531E-06  0.00000E+00  9.000E+00
#rwgt            1           1   5.3804453520192030E-002           9      288055           0
</event>
<event>
      5   9999  3.79277E-02  1.91364E+02 -1.00000E+00  1.12350E-01
      21    -1     0     0   502   501  0.000000000E+00  0.000000000E+00  3.455257344E+02  3.455257344E+02  0.000000000E+00  0.00000E+00  9.000E+00
      21    -1     0     0   501   511  0.000000000E+00  0.000000000E+00 -4.766920852E+02  4.766920852E+02  0.000000000E+00  0.00000E+00  9.000E+00
      25     1     1     2     0     0 -1.914144414E+02 -3.094204036E-01 -2.560485543E+02  3.432571140E+02  1.250000000E+02  0.00000E+00  9.000E+00
      25     1     1     2     0     0  3.147242205E+01  1.053749254E+02  2.112811166E+02  2.689964656E+02  1.250000000E+02  0.00000E+00  9.000E+00
      21     1     1     2   502   511  1.599420194E+02 -1.050655050E+02 -8.639891310E+01  2.099642400E+02  4.046097457E-06  0.00000E+00  9.000E+00
#rwgt            2          11   2.2618964457563739E-003           9      288321           0
</event>
<event>
      5   9999  3.79277E-02  7.03113E+01 -1.00000E+00  1.31123E-01
      21    -1     0     0   502   512  0.000000000E+00  0.000000000E+00  3.986537472E+02  3.986537472E+02  0.000000000E+00  0.00000E+00  9.000E+00
      21    -1     0     0   501   502  0.000000000E+00  0.000000000E+00 -7.600423881E+02  7.600423881E+02  0.000000000E+00  0.00000E+00  9.000E+00
      25     1     1     2     0     0 -4.030736334E+02 -1.060945815E+02 -3.961650687E+02  5.884693500E+02  1.250000000E+02  0.00000E+00  9.000E+00
      25     1     1     2     0     0  3.689923859E+02  4.459538376E+01 -1.117138100E+02  4.077365626E+02  1.250000000E+02  0.00000E+00  9.000E+00
      21     1     1     2   501   512  3.408124748E+01  6.149919778E+01  1.464902377E+02  1.624902228E+02  1.907348633E-06  0.00000E+00  9.000E+00
#rwgt            1           1   6.4748887342988587E-002           9      288416           0
</event>
<event>
      5   9999  3.79277E-02  5.63116E+01 -1.00000E+00  1.36192E-01
      21    -1     0     0   502   501  0.000000000E+00  0.000000000E+00  1.521410013E+03  1.521410013E+03  0.000000000E+00  0.00000E+00  9.000E+00
      21    -1     0     0   501   511  0.000000000E+00  0.000000000E+00 -3.826906782E+01  3.826906782E+01  0.000000000E+00  0.00000E+00  9.000E+00
      25     1     1     2     0     0 -7.584257101E+01  5.627119763E+01  9.580745684E+02  9.707988576E+02  1.250000000E+02  0.00000E+00  9.000E+00
      25     1     1     2     0     0  8.340472040E+01 -4.696872034E-01  5.084156346E+02  5.301584909E+02  1.250000000E+02  0.00000E+00  9.000E+00
      21     1     1     2   502   511 -7.562149389E+00 -5.580151042E+01  1.665074261E+01  5.872173276E+01  1.488923549E-06  0.00000E+00  9.000E+00
#rwgt            1           1   7.2451089899379761E-002           9      288524           0
</event>
<event>
      5   9999  3.79277E-02  2.46020E+01 -1.00000E+00  1.59275E-01
      21    -1     0     0   502   501  0.000000000E+00  0.000000000E+00  1.174368272E+02  1.174368272E+02  0.000000000E+00  0.00000E+00  9.000E+00
      21    -1     0     0   512   502  0.000000000E+00  0.000000000E+00 -5.265529474E+02  5.265529474E+02  0.000000000E+00  0.00000E+00  9.000E+00
      25     1     1     2     0     0 -1.733943169E+02  1.019850849E+02 -1.927595980E+02  3.053650427E+02  1.250000000E+02  0.00000E+00  9.000E+00
      25     1     1     2     0     0  1.832519240E+02 -7.944431780E+01 -1.912099988E+02  3.034451036E+02  1.250000000E+02  0.00000E+00  9.000E+00
      21     1     1     2   512   501 -9.857607103E+00 -2.254076711E+01 -2.514652345E+01  3.517962821E+01  6.743495762E-07  0.00000E+00  9.000E+00
#rwgt            1           1   3.7478507719950059E-002           9      288598           0
</event>
<event>
      5   9999  3.79277E-02  7.84677E+01 -1.00000E+00  1.28757E-01
      21    -1     0     0   502   501  0.000000000E+00  0.000000000E+00  4.840859699E+02  4.840859699E+02  0.000000000E+00  0.00000E+00  9.000E+00
      21    -1     0     0   501   511  0.000000000E+00  0.000000000E+00 -1.430347875E+02  1.430347875E+02  0.000000000E+00  0.00000E+00  9.000E+00
      25     1     1     2     0     0 -1.189763759E+02 -4.621627314E+01  3.093403195E+02  3.572222770E+02  1.250000000E+02  0.00000E+00  9.000E+00
      25     1     1     2     0     0  7.382097872E+01  1.103892735E+02 -6.776902736E+00  1.825000137E+02  1.250000000E+02  0.00000E+00  9.000E+00
      21     1     1     2   502   511  4.515539717E+01 -6.417300033E+01  3.848776564E+01  8.739846663E+01  8.259061849E-07  0.00000E+00  9.000E+00
#rwgt            1           1   2.0697139756475608E-002           9      288979           0
</event>
<event>
      5   9999  3.79277E-02  4.97188E+01 -1.00000E+00  1.39215E-01
      21    -1     0     0   502   501  0.000000000E+00  0.000000000E+00  2.070779752E+01  2.070779752E+01  0.000000000E+00  0.00000E+00  9.000E+00
       2    -1     0     0   501     0  0.000000000E+00  0.000000000E+00 -4.094412368E+03  4.094412368E+03  0.000000000E+00  0.00000E+00  9.000E+00
      25     1     1     2     0     0  1.097534757E+02 -8.200752406E+01 -9.378355945E+02  9.559977310E+02  1.250000000E+02  0.00000E+00  9.000E+00
      25     1     1     2     0     0 -8.344799641E+01  1.241972921E+02 -8.252574772E+02  8.479760841E+02  1.250000000E+02  0.00000E+00  9.000E+00
       2     1     1     2   502     0 -2.630547927E+01 -4.218976804E+01 -2.310611499E+03  2.311146351E+03  3.051757812E-05  0.00000E+00  9.000E+00
#rwgt            1           1  0.14826193667809195                9      289109           0
</event>
<event>
      5   9999  3.79277E-02  1.72244E+02 -1.00000E+00  1.14062E-01
      21    -1     0     0   502   501  0.000000000E+00  0.000000000E+00  6.685301888E+02  6.685301888E+02  0.000000000E+00  0.00000E+00  9.000E+00
       1    -1     0     0   501     0  0.000000000E+00  0.000000000E+00 -2.150935896E+02  2.150935896E+02  0.000000000E+00  0.00000E+00  9.000E+00
      25     1     1     2     0     0 -6.008544235E+00 -1.580679365E+02  1.218596671E+02  2.355766406E+02  1.250000000E+02  0.00000E+00  9.000E+00
      25     1     1     2     0     0 -1.427085329E+02  7.116920094E+01  4.111071630E+02  4.583283539E+02  1.250000000E+02  0.00000E+00  9.000E+00
       1     1     1     2   502     0  1.487170772E+02  8.689873553E+01 -7.953023106E+01  1.897187838E+02  2.523185073E-06  0.00000E+00  9.000E+00
#rwgt            1           1   3.4848392615992138E-002           9      289223           0
</event>
<event>
      5   9999  3.79277E-02  7.61762E+01 -1.00000E+00  1.29388E-01
      21    -1     0     0   502   501  0.000000000E+00  0.000000000E+00  6.147334793E+01  6.147334793E+01  0.000000000E+00  0.00000E+00  9.000E+00
      21    -1     0     0   511   502  0.000000000E+00  0.000000000E+00 -1.632475868E+03  1.632475868E+03  0.000000000E+00  0.00000E+00  9.000E+00
      25     1     1     2     0     0  1.159890319E+02  2.635295293E+01 -1.217349201E+02  2.111689476E+02  1.250000000E+02  0.00000E+00  9.000E+00
      25     1     1     2     0     0 -1.859607299E+02  3.759809795E+00 -8.645798001E+02  8.931510286E+02  1.250000000E+02  0.00000E+00  9.000E+00
      21     1     1     2   511   501  6.997169793E+01 -3.011276273E+01 -5.846878000E+02  5.896292398E+02  1.078959322E-05  0.00000E+00  9.000E+00
#rwgt            1           1   2.8981296069351542E-002           9      289342           0
</event>
<event>
      5   9999  3.79277E-02  3.13955E+01 -1.00000E+00  1.51681E-01
      21    -1     0     0   502   512  0.000000000E+00  0.000000000E+00  5.920750169E+01  5.920750169E+01  0.000000000E+00  0.00000E+00  9.000E+00
      21    -1     0     0   501   502  0.000000000E+00  0.000000000E+00 -1.151996735E+03  1.151996735E+03  0.000000000E+00  0.00000E+00  9.000E+00
      25     1     1     2     0     0  2.853212922E+01  1.789890746E+02 -6.733539773E+02  7.084361298E+02  1.250000000E+02  0.00000E+00  9.000E+00
      25     1     1     2     0     0 -2.477343843E+01 -2.101587430E+02 -3.689223197E+02  4.432934677E+02  1.250000000E+02  0.00000E+00  9.000E+00
      21     1     1     2   501   512 -3.758690794E+00  3.116966840E+01 -5.051293653E+01  5.947463949E+01  1.348699152E-06  0.00000E+00  9.000E+00
#rwgt            1           1   3.4223205752964669E-002           9      289479           0
</event>
<event>
      5   9999  3.79277E-02  1.59538E+02 -1.00000E+00  1.15342E-01
      21    -1     0     0   502   501  0.000000000E+00  0.000000000E+00  5.920079779E+02  5.920079779E+02  0.000000000E+00  0.00000E+00  9.000E+00
      21    -1     0     0   501   511  0.000000000E+00  0.000000000E+00 -4.472653478E+02  4.472653478E+02  0.000000000E+00  0.00000E+00  9.000E+00
      25     1     1     2     0     0 -1.556201950E+02 -3.106089700E+02 -9.627079822E+01  3.815607997E+02  1.250000000E+02  0.00000E+00  9.000E+00
      25     1     1     2     0     0  3.109837922E+02  2.743522122E+02  2.459600335E+02  4.980977750E+02  1.250000000E+02  0.00000E+00  9.000E+00
      21     1     1     2   502   511 -1.553635972E+02  3.625675777E+01 -4.946605117E+00  1.596147510E+02  3.329867774E-06  0.00000E+00  9.000E+00
#rwgt            1           1   4.7376849770329452E-002           9      289713           0
</event>
<event>
      5   9999  3.79277E-02  1.94068E+01 -1.00000E+00  1.67455E-01
      21    -1     0     0   502   501  0.000000000E+00  0.000000000E+00  6.584411262E+01  6.584411262E+01  0.000000000E+00  0.00000E+00  9.000E+00
      21    -1     0     0   501   512  0.000000000E+00  0.000000000E+00 -8.934206092E+02  8.934206092E+02  0.000000000E+00  0.00000E+00  9.000E+00
      25     1     1     2     0     0  1.380307334E+02  1.359084838E+02 -4.412184864E+02  4.978175891E+02  1.250000000E+02  0.00000E+00  9.000E+00
      25     1     1     2     0     0 -1.527974031E+02 -1.233160384E+02 -3.523279146E+02  4.222722476E+02  1.250000000E+02  0.00000E+00  9.000E+00
      21     1     1     2   502   512  1.476666970E+01 -1.259244539E+01 -3.403009567E+01  3.917488515E+01  4.768371582E-07  0.00000E+00  9.000E+00
#rwgt            1           1   3.5859093179732848E-002           9      289777           0
</event>
<event>
      5   9999  3.79277E-02  1.09000E+01 -1.00000E+00  1.91528E-01
      21    -1     0     0   502   511  0.000000000E+00  0.000000000E+00  4.801688224E+02  4.801688224E+02  0.000000000E+00  0.00000E+00  9.000E+00
      21    -1     0     0   501   502  0.000000000E+00  0.000000000E+00 -3.220073378E+02  3.220073378E+02  0.000000000E+00  0.00000E+00  9.000E+00
      25     1     1     2     0     0 -2.673948162E+01  3.347835281E+01 -2.826403193E+02  3.120037662E+02  1.250000000E+02  0.00000E+00  9.000E+00
      25     1     1     2     0     0  1.744945141E+01 -3.917976773E+01  1.530321530E+02  2.021963833E+02  1.250000000E+02  0.00000E+00  9.000E+00
      21     1     1     2   501   511  9.290030217E+00  5.701414924E+00  2.877696509E+02  2.879760108E+02  5.394796609E-06  0.00000E+00  9.000E+00
#rwgt            1           1   3.5478751870482030E-002           9      289939           0
</event>
<event>
      5   9999  3.79277E-02  1.89196E+01 -1.00000E+00  1.68384E-01
      21    -1     0     0   502   512  0.000000000E+00  0.000000000E+00  7.202895895E+01  7.202895895E+01  0.000000000E+00  0.00000E+00  9.000E+00
      21    -1     0     0   501   502  0.000000000E+00  0.000000000E+00 -1.337459598E+03  1.337459598E+03  0.000000000E+00  0.00000E+00  9.000E+00
      25     1     1     2     0     0 -2.013229316E+02 -2.354536480E+01 -3.042368110E+02  3.863552046E+02  1.250000000E+02  0.00000E+00  9.000E+00
      25     1     1     2     0     0  2.047817152E+02  4.944578801E+00 -9.721098585E+02  1.001290456E+03  1.250000000E+02  0.00000E+00  9.000E+00
      21     1     1     2   501   512 -3.458783570E+00  1.860078600E+01  1.091603023E+01  2.184289678E+01  3.371747881E-07  0.00000E+00  9.000E+00
#rwgt            1           1   3.7158619981885709E-002           9      290276           0
</event>
<event>
      5   9999  3.79277E-02  3.31218E+01 -1.00000E+00  1.50113E-01
      21    -1     0     0   502   511  0.000000000E+00  0.000000000E+00  7.056065384E+02  7.056065384E+02  0.000000000E+00  0.00000E+00  9.000E+00
      21    -1     0     0   501   502  0.000000000E+00  0.000000000E+00 -2.377602274E+02  2.377602274E+02  0.000000000E+00  0.00000E+00  9.000E+00
      25     1     1     2     0     0 -3.227408786E+01 -7.740461838E+01 -1.867287559E+02  2.398452000E+02  1.250000000E+02  0.00000E+00  9.000E+00
      25     1     1     2     0     0  6.441839755E+01  6.941738468E+01  2.342779306E+02  2.819213578E+02  1.250000000E+02  0.00000E+00  9.000E+00
      21     1     1     2   501   511 -3.214430968E+01  7.987233696E+00  4.202971363E+02  4.216002080E+02  5.394796609E-06  0.00000E+00  9.000E+00
#rwgt            1           1   5.1103583721392849E-002           9      290424           0
</event>
<event>
      5   9999  3.79277E-02  1.17619E+02 -1.00000E+00  1.20739E-01
      21    -1     0     0   512   501  0.000000000E+00  0.000000000E+00  1.291530735E+03  1.291530735E+03  0.000000000E+00  0.00000E+00  9.000E+00
      21    -1     0     0   501   502  0.000000000E+00  0.000000000E+00 -1.276234165E+02  1.276234165E+02  0.000000000E+00  0.00000E+00  9.000E+00
      25     1     1     2     0     0  9.781971833E+01  9.959023261E+01  2.414568317E+02  3.056359163E+02  1.250000000E+02  0.00000E+00  9.000E+00
      25     1     1     2     0     0 -1.935173457E+02 -3.120801312E+01  5.601401984E+01  2.391348439E+02  1.250000000E+02  0.00000E+00  9.000E+00
      21     1     1     2   512   502  9.569762734E+01 -6.838221950E+01  8.664364665E+02  8.743833909E+02  0.000000000E+00  0.00000E+00  9.000E+00
#rwgt            1           1   4.4838156883084103E-002           9      290537           0
</event>
<event>
      5   9999  3.79277E-02  5.60782E+01 -1.00000E+00  1.36291E-01
      21    -1     0     0   502   501  0.000000000E+00  0.000000000E+00  8.938496523E+01  8.938496523E+01  0.000000000E+00  0.00000E+00  9.000E+00
       2    -1     0     0   501     0  0.000000000E+00  0.000000000E+00 -1.545926544E+03  1.545926544E+03  0.000000000E+00  0.00000E+00  9.000E+00
      25     1     1     2     0     0 -1.711577197E+02 -1.501847932E+02 -6.709173402E+02  7.194480624E+02  1.250000000E+02  0.00000E+00  9.000E+00
      25     1     1     2     0     0  2.223874573E+02  1.729945204E+02 -3.107570168E+02  4.376964802E+02  1.250000000E+02  0.00000E+00  9.000E+00
       2     1     1     2   502     0 -5.122973762E+01 -2.280972717E+01 -4.748672220E+02  4.781669668E+02  0.000000000E+00  0.00000E+00  9.000E+00
#rwgt            1           1   3.5719808405848263E-002           9      290613           0
</event>
<event>
      5   9999  3.79277E-02  3.43977E+02 -1.00000E+00  1.03697E-01
       3    -1     0     0   502     0  0.000000000E+00  0.000000000E+00  1.757718153E+03  1.757718153E+03  0.000000000E+00  0.00000E+00  9.000E+00
      21    -1     0     0   501   502  0.000000000E+00  0.000000000E+00 -2.862692279E+02  2.862692279E+02  0.000000000E+00  0.00000E+00  9.000E+00
      25     1     1     2     0     0  3.320249634E+02 -2.369696870E+02  2.162830257E+02  4.783289204E+02  1.250000000E+02  0.00000E+00  9.000E+00
      25     1     1     2     0     0 -4.860910819E+01  4.318951447E+02  2.807200435E+02  5.322828235E+02  1.250000000E+02  0.00000E+00  9.000E+00
       3     1     1     2   501     0 -2.834158552E+02 -1.949254577E+02  9.744458562E+02  1.033375637E+03  0.000000000E+00  0.00000E+00  9.000E+00
#rwgt            1           1   3.7238684333587208E-002           9      290798           0
</event>
<event>
      5   9999  3.79277E-02  1.42934E+02 -1.00000E+00  1.17230E-01
      21    -1     0     0   502   501  0.000000000E+00  0.000000000E+00  7.128549896E+01  7.128549896E+01  0.000000000E+00  0.00000E+00  9.000E+00
       2    -1     0     0   501     0  0.000000000E+00  0.000000000E+00 -1.893970476E+03  1.893970476E+03  0.000000000E+00  0.00000E+00  9.000E+00
      25     1     1     2     0     0  1.343394648E+01  3.829809578E+01 -5.367788326E+01  1.419631298E+02  1.250000000E+02  0.00000E+00  9.000E+00
      25     1     1     2     0     0  1.289172940E+02 -5.118706312E+01 -3.463684874E+02  3.934919480E+02  1.250000000E+02  0.00000E+00  9.000E+00
       2     1     1     2   502     0 -1.423512404E+02  1.288896734E+01 -1.422638607E+03  1.429800897E+03  0.000000000E+00  0.00000E+00  9.000E+00
#rwgt            1           1   3.0308521968585269E-002           9      290845           0
</event>
<event>
      5   9999  3.79277E-02  8.36951E+00 -1.00000E+00  2.05139E-01
      21    -1     0     0   502   511  0.000000000E+00  0.000000000E+00  6.210932084E+01  6.210932084E+01  0.000000000E+00  0.00000E+00  9.000E+00
      21    -1     0     0   501   502  0.000000000E+00  0.000000000E+00 -7.034099587E+02  7.034099587E+02  0.000000000E+00  0.00000E+00  9.000E+00
      25     1     1     2     0     0  1.499546330E+02  3.421305709E+01 -3.757748345E+02  4.248395596E+02  1.250000000E+02  0.00000E+00  9.000E+00
      25     1     1     2     0     0 -1.580752534E+02 -3.218718369E+01 -2.604840126E+02  3.309089321E+02  1.250000000E+02  0.00000E+00  9.000E+00
      21     1     1     2   501   511  8.120620403E+00 -2.025873401E+00 -5.041790718E+00  9.770787707E+00  8.429369702E-08  0.00000E+00  9.000E+00
#rwgt            1           1   3.6904706881059221E-002           9      290924           0
</event>
<event>
      5   9999  3.79277E-02  1.96007E+01 -1.00000E+00  1.67095E-01
      21    -1     0     0   502   512  0.000000000E+00  0.000000000E+00  5.647917669E+02  5.647917669E+02  0.000000000E+00  0.00000E+00  9.000E+00
      21    -1     0     0   501   502  0.000000000E+00  0.000000000E+00 -9.272215939E+01  9.272215939E+01  0.000000000E+00  0.00000E+00  9.000E+00
      25     1     1     2     0     0  1.204033410E+01  4.606419579E+01  3.872394307E+02  4.096904398E+02  1.250000000E+02  0.00000E+00  9.000E+00
      25     1     1     2     0     0 -2.528228472E+01 -6.051540831E+01 -1.875421168E+01  1.424009446E+02  1.250000000E+02  0.00000E+00  9.000E+00
      21     1     1     2   501   512  1.324195062E+01  1.445121251E+01  1.035843884E+02  1.054225418E+02  0.000000000E+00  0.00000E+00  9.000E+00
#rwgt            1           1   4.2835939643930350E-002           9      291240           0
</event>
<event>
      5   9999  3.79277E-02  5.42556E+01 -1.00000E+00  1.37081E-01
      21    -1     0     0   502   501  0.000000000E+00  0.000000000E+00  9.495599780E+01  9.495599780E+01  0.000000000E+00  0.00000E+00  9.000E+00
      21    -1     0     0   511   502  0.000000000E+00  0.000000000E+00 -4.871091225E+02  4.871091225E+02  0.000000000E+00  0.00000E+00  9.000E+00
      25     1     1     2     0     0  3.288558951E+01 -1.404141611E+02 -2.298118885E+02  2.987241248E+02  1.250000000E+02  0.00000E+00  9.000E+00
      25     1     1     2     0     0 -7.067956433E+01  1.014874243E+02 -1.069873650E+02  2.058314709E+02  1.250000000E+02  0.00000E+00  9.000E+00
      21     1     1     2   511   501  3.779397482E+01  3.892673670E+01 -5.535387115E+01  7.750952467E+01  6.743495762E-07  0.00000E+00  9.000E+00
#rwgt            1           1   4.1302513469773108E-002           9      291458           0
</event>
<event>
      5   9999  3.79277E-02  2.26798E+01 -1.00000E+00  1.61986E-01
      21    -1     0     0   512   501  0.000000000E+00  0.000000000E+00  2.726064442E+02  2.726064442E+02  0.000000000E+00  0.00000E+00  9.000E+00
      21    -1     0     0   501   502  0.000000000E+00  0.000000000E+00 -2.229243228E+02  2.229243228E+02  0.000000000E+00  0.00000E+00  9.000E+00
      25     1     1     2     0     0 -1.186911920E+02  1.656669545E+02  6.553696584E+01  2.478976256E+02  1.250000000E+02  0.00000E+00  9.000E+00
      25     1     1     2     0     0  1.014562239E+02 -1.509248539E+02 -2.707798675E+01  2.223283478E+02  1.250000000E+02  0.00000E+00  9.000E+00
      21     1     1     2   512   502  1.723496802E+01 -1.474210066E+01  1.122314228E+01  2.530479356E+01  5.057621821E-07  0.00000E+00  9.000E+00
#rwgt            1           1   2.9112993146792568E-002           9      291522           0
</event>
<event>
      5   9999  3.79277E-02  9.74722E+00 -1.00000E+00  1.97051E-01
      21    -1     0     0   502   501  0.000000000E+00  0.000000000E+00  1.648974614E+02  1.648974614E+02  0.000000000E+00  0.00000E+00  9.000E+00
       3    -1     0     0   501     0  0.000000000E+00  0.000000000E+00 -5.040323247E+02  5.040323247E+02  0.000000000E+00  0.00000E+00  9.000E+00
      25     1     1     2     0     0  6.648303316E+00 -6.285839110E+01  7.291197840E+01  1.579130579E+02  1.250000000E+02  0.00000E+00  9.000E+00
      25     1     1     2     0     0 -1.091684638E+01  7.162125541E+01 -5.617940647E+01  1.550158297E+02  1.250000000E+02  0.00000E+00  9.000E+00
       3     1     1     2   502     0  4.268543064E+00 -8.762864308E+00 -3.558674352E+02  3.560008985E+02  0.000000000E+00  0.00000E+00  9.000E+00
#rwgt            1           1   3.0736200133768741E-002           9      291775           0
</event>
<event>
      5   9999  3.79277E-02  7.15274E+01 -1.00000E+00  1.30748E-01
      21    -1     0     0   502   501  0.000000000E+00  0.000000000E+00  1.666184326E+03  1.666184326E+03  0.000000000E+00  0.00000E+00  9.000E+00
      21    -1     0     0   511   502  0.000000000E+00  0.000000000E+00 -7.681525621E+01  7.681525621E+01  0.000000000E+00  0.00000E+00  9.000E+00
      25     1     1     2     0     0 -1.031094789E+02  3.071727375E+02  7.357799046E+02  8.136238217E+02  1.250000000E+02  0.00000E+00  9.000E+00
      25     1     1     2     0     0  4.737168026E+01 -2.623457036E+02  7.191860109E+02  7.771247407E+02  1.250000000E+02  0.00000E+00  9.000E+00
      21     1     1     2   511   501  5.573779865E+01 -4.482703387E+01  1.344031547E+02  1.522510202E+02  2.697398305E-06  0.00000E+00  9.000E+00
#rwgt            1           1   3.0547434009049249E-002           9      292109           0
</event>
<event>
      5   9999  3.79277E-02  1.51804E+01 -1.00000E+00  1.76896E-01
      21    -1     0     0   502   512  0.000000000E+00  0.000000000E+00  1.190849698E+02  1.190849698E+02  0.000000000E+00  0.00000E+00  9.000E+00
      21    -1     0     0   501   502  0.000000000E+00  0.000000000E+00 -3.604726135E+02  3.604726135E+02  0.000000000E+00  0.00000E+00  9.000E+00
      25     1     1     2     0     0 -9.598859323E+01 -4.220225797E+01 -4.382699900E+00  1.632147318E+02  1.250000000E+02  0.00000E+00  9.000E+00
      25     1     1     2     0     0  1.020032125E+02  2.826419431E+01 -2.482742123E+02  2.974367236E+02  1.250000000E+02  0.00000E+00  9.000E+00
      21     1     1     2   501   512 -6.014619261E+00  1.393806366E+01  1.126926841E+01  1.890612795E+01  2.665600750E-07  0.00000E+00  9.000E+00
#rwgt            1           1   2.4311095392442965E-002           9      292168           0
</event>
<event>
      5   9999  3.79277E-02  4.99609E+01 -1.00000E+00  1.39095E-01
      21    -1     0     0   511   501  0.000000000E+00  0.000000000E+00  4.478616687E+02  4.478616687E+02  0.000000000E+00  0.00000E+00  9.000E+00
      21    -1     0     0   501   502  0.000000000E+00  0.000000000E+00 -3.212341383E+02  3.212341383E+02  0.000000000E+00  0.00000E+00  9.000E+00
      25     1     1     2     0     0 -4.017429030E+01  8.034714423E+01 -2.184944567E+02  2.672722671E+02  1.250000000E+02  0.00000E+00  9.000E+00
      25     1     1     2     0     0  8.422259819E+01 -5.677097188E+01  8.258060843E+00  1.612748736E+02  1.250000000E+02  0.00000E+00  9.000E+00
      21     1     1     2   511   502 -4.404830789E+01 -2.357617235E+01  3.368639262E+02  3.405486663E+02  3.814697266E-06  0.00000E+00  9.000E+00
#rwgt            1           1   2.8388270807823832E-002           9      292538           0
</event>
<event>
      5   9999  3.79277E-02  2.46931E+01 -1.00000E+00  1.59154E-01
      21    -1     0     0   502   501  0.000000000E+00  0.000000000E+00  7.119087372E+01  7.119087372E+01  0.000000000E+00  0.00000E+00  9.000E+00
       1    -1     0     0   501     0  0.000000000E+00  0.000000000E+00 -7.051576893E+02  7.051576893E+02  0.000000000E+00  0.00000E+00  9.000E+00
      25     1     1     2     0     0  2.673818944E+01 -2.297670796E+01 -4.674852561E+01  1.380336355E+02  1.250000000E+02  0.00000E+00  9.000E+00
      25     1     1     2     0     0 -4.053316357E+01  2.496303346E+00 -1.461474617E+02  1.965534264E+02  1.250000000E+02  0.00000E+00  9.000E+00
       1     1     1     2   502     0  1.379497413E+01  2.048040462E+01 -4.410708283E+02  4.417615011E+02  5.394796609E-06  0.00000E+00  9.000E+00
#rwgt            1           1   2.8161984086787308E-002           9      292663           0
</event>
<event>
      5   9999  3.79277E-02  4.94662E+01 -1.00000E+00  1.39342E-01
      21    -1     0     0   502   501  0.000000000E+00  0.000000000E+00  8.498426862E+01  8.498426862E+01  0.000000000E+00  0.00000E+00  9.000E+00
      21    -1     0     0   511   502  0.000000000E+00  0.000000000E+00 -1.718522994E+03  1.718522994E+03  0.000000000E+00  0.00000E+00  9.000E+00
      25     1     1     2     0     0 -2.676462012E+02  2.596089161E+01 -3.044462785E+02  4.249952863E+02  1.250000000E+02  0.00000E+00  9.000E+00
      25     1     1     2     0     0  2.674087013E+02 -7.542648371E+01 -9.896674853E+02  1.035501472E+03  1.250000000E+02  0.00000E+00  9.000E+00
      21     1     1     2   511   501  2.374999269E-01  4.946559210E+01 -3.394249619E+02  3.430105042E+02  7.629394531E-06  0.00000E+00  9.000E+00
#rwgt            1           1  0.12990039337224130                9      292791           0
</event>
<event>
      5   9999  3.79277E-02  5.30997E+01 -1.00000E+00  1.37601E-01
      21    -1     0     0   512   501  0.000000000E+00  0.000000000E+00  2.561731219E+02  2.561731219E+02  0.000000000E+00  0.00000E+00  9.000E+00
      21    -1     0     0   501   502  0.000000000E+00  0.000000000E+00 -4.560385439E+02  4.560385439E+02  0.000000000E+00  0.00000E+00  9.000E+00
      25     1     1     2     0     0  1.372956447E+02  1.448361129E+02 -2.785759572E+02  3.647700064E+02  1.250000000E+02  0.00000E+00  9.000E+00
      25     1     1     2     0     0 -1.412906265E+02 -9.188686152E+01 -4.340724025E+01  2.142788486E+02  1.250000000E+02  0.00000E+00  9.000E+00
      21     1     1     2   512   502  3.994981799E+00 -5.294925133E+01  1.221177755E+02  1.331628108E+02  1.348699152E-06  0.00000E+00  9.000E+00
#rwgt            1           1   2.7857054052865721E-002           9      293038           0
</event>
<event>
      5   9999  3.79277E-02  1.01408E+02 -1.00000E+00  1.23555E-01
      21    -1     0     0   511   501  0.000000000E+00  0.000000000E+00  5.505532804E+01  5.505532804E+01  0.000000000E+00  0.00000E+00  9.000E+00
      21    -1     0     0   501   502  0.000000000E+00  0.000000000E+00 -1.861882349E+03  1.861882349E+03  0.000000000E+00  0.00000E+00  9.000E+00
      25     1     1     2     0     0 -1.342153614E+01 -9.287932148E+01 -1.553400665E+03  1.561244802E+03  1.250000000E+02  0.00000E+00  9.000E+00
      25     1     1     2     0     0  3.279195351E+01 -6.661683136E+00 -2.071024730E+02  2.442050871E+02  1.250000000E+02  0.00000E+00  9.000E+00
      21     1     1     2   511   502 -1.937041738E+01  9.954100461E+01 -4.632388260E+01  1.114877875E+02  1.507891493E-06  0.00000E+00  9.000E+00
#rwgt            1           1   3.3770698407384461E-002           9      293181           0
</event>
<event>
      5   9999  3.79277E-02  4.32339E+01 -1.00000E+00  1.42777E-01
      21    -1     0     0   502   501  0.000000000E+00  0.000000000E+00  5.812629608E+02  5.812629608E+02  0.000000000E+00  0.00000E+00  9.000E+00
      21    -1     0     0   501   512  0.000000000E+00  0.000000000E+00 -6.967250040E+01  6.967250040E+01  0.000000000E+00  0.00000E+00  9.000E+00
      25     1     1     2     0     0  3.734291144E+01 -1.139390150E+02  1.376570918E+02  2.212488805E+02  1.250000000E+02  0.00000E+00  9.000E+00
      25     1     1     2     0     0 -9.102037387E-01  9.066188799E+01  3.440935940E+02  3.771548857E+02  1.250000000E+02  0.00000E+00  9.000E+00
      21     1     1     2   502   512 -3.643270770E+01  2.327712702E+01  2.983977459E+01  5.253169501E+01  7.539457465E-07  0.00000E+00  9.000E+00
#rwgt            1           1   3.0043784025341819E-002           9      293247           0
</event>
<event>
      5   9999  3.79277E-02  1.43308E+01 -1.00000E+00  1.79271E-01
      21    -1     0     0   502   501  0.000000000E+00  0.000000000E+00  2.007523907E+02  2.007523907E+02  0.000000000E+00  0.00000E+00  9.000E+00
      21    -1     0     0   501   511  0.000000000E+00  0.000000000E+00 -2.215064572E+02  2.215064572E+02  0.000000000E+00  0.00000E+00  9.000E+00
      25     1     1     2     0     0 -8.547350337E+01  2.044332284E+01  1.153401100E+02  1.914470950E+02  1.250000000E+02  0.00000E+00  9.000E+00
      25     1     1     2     0     0  8.986528469E+01 -6.802025301E+00 -8.141445202E+01  1.742852545E+02  1.250000000E+02  0.00000E+00  9.000E+00
      21     1     1     2   502   511 -4.391781326E+00 -1.364129754E+01 -5.467972451E+01  5.652649834E+01  9.536743164E-07  0.00000E+00  9.000E+00
#rwgt            1           1   1.9913330948321796E-002           9      293379           0
</event>
<event>
      5   9999  3.79277E-02  3.60441E+01 -1.00000E+00  1.47702E-01
      21    -1     0     0   502   501  0.000000000E+00  0.000000000E+00  9.386791308E+02  9.386791308E+02  0.000000000E+00  0.00000E+00  9.000E+00
      21    -1     0     0   512   502  0.000000000E+00  0.000000000E+00 -7.033173266E+01  7.033173266E+01  0.000000000E+00  0.00000E+00  9.000E+00
      25     1     1     2     0     0 -6.423054412E+01  1.293916730E+02  3.936008330E+02  4.375092954E+02  1.250000000E+02  0.00000E+00  9.000E+00
      25     1     1     2     0     0  6.829806889E+01 -1.652055192E+02  4.868462532E+02  5.334808001E+02  1.250000000E+02  0.00000E+00  9.000E+00
      21     1     1     2   512   501 -4.067524770E+00  3.581384627E+01 -1.209968809E+01  3.802076793E+01  7.348554138E-07  0.00000E+00  9.000E+00
#rwgt            1           1   3.8911068648227125E-002           9      293597           0
</event>
<event>
      5   9999  3.79277E-02  2.27949E+01 -1.00000E+00  1.61814E-01
      21    -1     0     0   502   501  0.000000000E+00  0.000000000E+00  1.920279077E+02  1.920279077E+02  0.000000000E+00  0.00000E+00  9.000E+00
       2    -1     0     0   501     0  0.000000000E+00  0.000000000E+00 -1.784118868E+03  1.784118868E+03  0.000000000E+00  0.00000E+00  9.000E+00
      25     1     1     2     0     0  2.340264924E+02 -2.485612581E+02 -1.036705042E+02  3.780524721E+02  1.250000000E+02  0.00000E+00  9.000E+00
      25     1     1     2     0     0 -2.192610361E+02  2.659275928E+02 -5.596771102E+02  6.690712625E+02  1.250000000E+02  0.00000E+00  9.000E+00
       2     1     1     2   502     0 -1.476545633E+01 -1.736633469E+01 -9.287433464E+02  9.290230415E+02  0.000000000E+00  0.00000E+00  9.000E+00
#rwgt            1           1   4.3144284492508983E-002           9      293748           0
</event>
<event>
      5   9999  3.79277E-02  4.51280E+01 -1.00000E+00  1.41664E-01
      21    -1     0     0   502   501  0.000000000E+00  0.000000000E+00  1.277119580E+02  1.277119580E+02  0.000000000E+00  0.00000E+00  9.000E+00
      21    -1     0     0   511   502  0.000000000E+00  0.000000000E+00 -8.244119195E+02  8.244119195E+02  0.000000000E+00  0.00000E+00  9.000E+00
      25     1     1     2     0     0 -1.620378806E+02 -1.792856718E+02 -3.807918883E+02  4.680033003E+02  1.250000000E+02  0.00000E+00  9.000E+00
      25     1     1     2     0     0  2.013012535E+02  2.015326164E+02 -2.292532322E+02  3.864189884E+02  1.250000000E+02  0.00000E+00  9.000E+00
      21     1     1     2   511   501 -3.926337287E+01 -2.224694460E+01 -8.665484087E+01  9.770158873E+01  1.651812370E-06  0.00000E+00  9.000E+00
#rwgt            1           1   2.8877958791412469E-002           9      294037           0
</event>
<event>
      5   9999  3.79277E-02  7.62197E+01 -1.00000E+00  1.29375E-01
      -1    -1     0     0     0   501  0.000000000E+00  0.000000000E+00  8.643869071E+02  8.643869071E+02  0.000000000E+00  0.00000E+00  9.000E+00
      21    -1     0     0   501   502  0.000000000E+00  0.000000000E+00 -5.699558863E+01  5.699558863E+01  0.000000000E+00  0.00000E+00  9.000E+00
      25     1     1     2     0     0  6.721278853E+01  9.665622221E+01  2.933858762E+02  3.399415487E+02  1.250000000E+02  0.00000E+00  9.000E+00
      25     1     1     2     0     0 -4.141713726E+00 -1.394520734E+02  4.237559120E+02  4.633121060E+02  1.250000000E+02  0.00000E+00  9.000E+00
      -1     1     1     2     0   502 -6.307107480E+01  4.279585123E+01  9.024953033E+01  1.181288410E+02  0.000000000E+00  0.00000E+00  9.000E+00
#rwgt            1           1   2.9749389379447509E-002           9      294182           0
</event>
<event>
      5   9999  3.79277E-02  1.94449E+01 -1.00000E+00  1.67384E-01
      21    -1     0     0   502   511  0.000000000E+00  0.000000000E+00  2.850738951E+02  2.850738951E+02  0.000000000E+00  0.00000E+00  9.000E+00
      21    -1     0     0   501   502  0.000000000E+00  0.000000000E+00 -1.451519016E+02  1.451519016E+02  0.000000000E+00  0.00000E+00  9.000E+00
      25     1     1     2     0     0 -7.575686920E+01 -2.774343640E+01 -6.669780542E+01  1.630410953E+02  1.250000000E+02  0.00000E+00  9.000E+00
      25     1     1     2     0     0  8.017436535E+01  8.806934544E+00  1.714092318E+02  2.269617054E+02  1.250000000E+02  0.00000E+00  9.000E+00
      21     1     1     2   501   511 -4.417496148E+00  1.893650186E+01  3.521056710E+01  4.022299604E+01  4.768371582E-07  0.00000E+00  9.000E+00
#rwgt            1           1   4.4922765044579940E-002           9      294236           0
</event>
<event>
      5   9999  3.79277E-02  1.97267E+01 -1.00000E+00  1.66864E-01
      21    -1     0     0   502   501  0.000000000E+00  0.000000000E+00  9.610673146E+02  9.610673146E+02  0.000000000E+00  0.00000E+00  9.000E+00
      21    -1     0     0   501   512  0.000000000E+00  0.000000000E+00 -3.353442813E+01  3.353442813E+01  0.000000000E+00  0.00000E+00  9.000E+00
      25     1     1     2     0     0 -5.809613766E+01 -4.943015781E+01  3.527716326E+02  3.819572312E+02  1.250000000E+02  0.00000E+00  9.000E+00
      25     1     1     2     0     0  3.869390135E+01  5.299317734E+01  5.758354003E+02  5.928886093E+02  1.250000000E+02  0.00000E+00  9.000E+00
      21     1     1     2   502   512  1.940223631E+01 -3.563019531E+00 -1.074146395E+00  1.975590222E+01  5.734527530E-07  0.00000E+00  9.000E+00
#rwgt            1           1  0.14626646235985227                9      294495           0
</event>
<event>
      5   9999  3.79277E-02  8.60982E+01 -1.00000E+00  1.26824E-01
      21    -1     0     0   502   501  0.000000000E+00  0.000000000E+00  1.162705828E+02  1.162705828E+02  0.000000000E+00  0.00000E+00  9.000E+00
      21    -1     0     0   511   502  0.000000000E+00  0.000000000E+00 -6.333223526E+02  6.333223526E+02  0.000000000E+00  0.00000E+00  9.000E+00
      25     1     1     2     0     0 -1.079166010E+02 -5.542100690E+01 -1.807404541E+02  2.510171160E+02  1.250000000E+02  0.00000E+00  9.000E+00
      25     1     1     2     0     0  1.885292094E+02  2.518005115E+01 -1.028810872E+02  2.497735292E+02  1.250000000E+02  0.00000E+00  9.000E+00
      21     1     1     2   511   501 -8.061260840E+01  3.024095575E+01 -2.334302285E+02  2.488022902E+02  2.697398305E-06  0.00000E+00  9.000E+00
#rwgt            1           1   5.1557430870120460E-003           9      294644           0
</event>
<event>
      5   9999 -3.79277E-02  8.81525E+00 -1.00000E+00  2.02309E-01
      21    -1     0     0   502   501  0.000000000E+00  0.000000000E+00  2.167286623E+02  2.167286623E+02  0.000000000E+00  0.00000E+00  9.000E+00
      21    -1     0     0   501   512  0.000000000E+00  0.000000000E+00 -3.474161085E+02  3.474161085E+02  0.000000000E+00  0.00000E+00  9.000E+00
      25     1     1     2     0     0  2.277028822E+00  2.321805263E+02 -8.398474706E+01  2.767515481E+02  1.250000000E+02  0.00000E+00  9.000E+00
      25     1     1     2     0     0 -5.217172673E+00 -2.404910095E+02 -3.590546544E+01  2.734544697E+02  1.250000000E+02  0.00000E+00  9.000E+00
      21     1     1     2   502   512  2.940143851E+00  8.310483228E+00 -1.079723371E+01  1.393875293E+01  0.000000000E+00  0.00000E+00  9.000E+00
#rwgt            1           1  -9.3414286236133237E-002           9      294835           0
</event>
<event>
      5   9999  3.79277E-02  1.00351E+01 -1.00000E+00  1.95581E-01
      21    -1     0     0   502   501  0.000000000E+00  0.000000000E+00  1.000682322E+02  1.000682322E+02  0.000000000E+00  0.00000E+00  9.000E+00
      21    -1     0     0   511   502  0.000000000E+00  0.000000000E+00 -3.907642027E+02  3.907642027E+02  0.000000000E+00  0.00000E+00  9.000E+00
      25     1     1     2     0     0  2.041911521E+01  3.650140744E+01 -1.778968645E+02  2.214081919E+02  1.250000000E+02  0.00000E+00  9.000E+00
      25     1     1     2     0     0 -1.414043227E+01 -4.432968637E+01  2.119667170E+01  1.350532184E+02  1.250000000E+02  0.00000E+00  9.000E+00
      21     1     1     2   511   501 -6.278682946E+00  7.828278923E+00 -1.339957777E+02  1.343710246E+02  1.907348633E-06  0.00000E+00  9.000E+00
#rwgt            1           1   5.6045507666829412E-002           9      295103           0
</event>
<event>
      5   9999  3.79277E-02  5.13661E+01 -1.00000E+00  1.38411E-01
      21    -1     0     0   512   501  0.000000000E+00  0.000000000E+00  1.176116257E+02  1.176116257E+02  0.000000000E+00  0.00000E+00  9.000E+00
      21    -1     0     0   501   502  0.000000000E+00  0.000000000E+00 -6.838724713E+02  6.838724713E+02  0.000000000E+00  0.00000E+00  9.000E+00
      25     1     1     2     0     0 -1.761622723E+02 -4.000357648E+01 -3.740615834E+02  4.337977646E+02  1.250000000E+02  0.00000E+00  9.000E+00
      25     1     1     2     0     0  2.265070871E+02  2.981166869E+01 -1.739545941E+02  3.131763032E+02  1.250000000E+02  0.00000E+00  9.000E+00
      21     1     1     2   512   502 -5.034481481E+01  1.019190779E+01 -1.824466813E+01  5.451002915E+01  4.129530925E-07  0.00000E+00  9.000E+00
#rwgt            2          11   2.6105822737259076E-003           9      295365           0
</event>
<event>
      5   9999  3.79277E-02  9.79067E+00 -1.00000E+00  1.96825E-01
      21    -1     0     0   502   511  0.000000000E+00  0.000000000E+00  1.883540979E+02  1.883540979E+02  0.000000000E+00  0.00000E+00  9.000E+00
      21    -1     0     0   501   502  0.000000000E+00  0.000000000E+00 -2.233099197E+02  2.233099197E+02  0.000000000E+00  0.00000E+00  9.000E+00
      25     1     1     2     0     0  1.347000443E+01  5.234239168E+01 -1.614006112E+02  2.111784182E+02  1.250000000E+02  0.00000E+00  9.000E+00
      25     1     1     2     0     0 -1.370318766E+01 -4.255449812E+01  8.439073758E+01  1.573068951E+02  1.250000000E+02  0.00000E+00  9.000E+00
      21     1     1     2   501   511  2.331832304E-01 -9.787893562E+00  4.205405184E+01  4.317870437E+01  6.743495762E-07  0.00000E+00  9.000E+00
#rwgt            1           1   3.1135603769742483E-002           9      295475           0
</event>
<event>
      5   9999  3.79277E-02  5.04108E+01 -1.00000E+00  1.38873E-01
      21    -1     0     0   502   501  0.000000000E+00  0.000000000E+00  6.945377157E+01  6.945377157E+01  0.000000000E+00  0.00000E+00  9.000E+00
      21    -1     0     0   501   512  0.000000000E+00  0.000000000E+00 -1.131614931E+03  1.131614931E+03  0.000000000E+00  0.00000E+00  9.000E+00
      25     1     1     2     0     0  1.407045210E+02 -1.685814575E+02 -3.199358286E+02  4.076780648E+02  1.250000000E+02  0.00000E+00  9.000E+00
      25     1     1     2     0     0 -1.260272128E+02  1.203546132E+02 -4.710900629E+02  5.176088665E+02  1.250000000E+02  0.00000E+00  9.000E+00
      21     1     1     2   502   512 -1.467730820E+01  4.822684436E+01 -2.711352677E+02  2.757817711E+02  3.814697266E-06  0.00000E+00  9.000E+00
#rwgt            1           1  0.12208091677411022                9      295839           0
</event>
<event>
      5   9999  3.79277E-02  1.08154E+01 -1.00000E+00  1.91902E-01
      21    -1     0     0   502   511  0.000000000E+00  0.000000000E+00  6.446218917E+02  6.446218917E+02  0.000000000E+00  0.00000E+00  9.000E+00
      21    -1     0     0   501   502  0.000000000E+00  0.000000000E+00 -5.622614210E+01  5.622614210E+01  0.000000000E+00  0.00000E+00  9.000E+00
      25     1     1     2     0     0  7.895730388E+00  2.083773624E+01  3.679462013E+01  1.321945456E+02  1.250000000E+02  0.00000E+00  9.000E+00
      25     1     1     2     0     0  2.552613114E+00 -2.363162159E+01  5.005238716E+02  5.164437195E+02  1.250000000E+02  0.00000E+00  9.000E+00
      21     1     1     2   501   511 -1.044834350E+01  2.793885347E+00  5.107725784E+01  5.220976868E+01  0.000000000E+00  0.00000E+00  9.000E+00
#rwgt            1           1   3.8982003760366576E-002           9      296007           0
</event>
<event>
      5   9999  3.79277E-02  1.39952E+01 -1.00000E+00  1.80268E-01
       2    -1     0     0   502     0  0.000000000E+00  0.000000000E+00  5.553469563E+02  5.553469563E+02  0.000000000E+00  0.00000E+00  9.000E+00
      21    -1     0     0   501   502  0.000000000E+00  0.000000000E+00 -1.143376079E+02  1.143376079E+02  0.000000000E+00  0.00000E+00  9.000E+00
      25     1     1     2     0     0  1.622638706E+02 -2.189218188E+01  7.515397817E+01  2.192759717E+02  1.250000000E+02  0.00000E+00  9.000E+00
      25     1     1     2     0     0 -1.752723149E+02  2.705412748E+01  3.753131505E+02  4.335173251E+02  1.250000000E+02  0.00000E+00  9.000E+00
       2     1     1     2   501     0  1.300844434E+01 -5.161945602E+00 -9.457780286E+00  1.689126741E+01  2.384185791E-07  0.00000E+00  9.000E+00
#rwgt            1           1   4.7788783374981575E-002           9      296165           0
</event>
<event>
      5   9999  3.79277E-02  2.45242E+01 -1.00000E+00  1.59378E-01
      21    -1     0     0   502   501  0.000000000E+00  0.000000000E+00  6.534793723E+01  6.534793723E+01  0.000000000E+00  0.00000E+00  9.000E+00
      21    -1     0     0   501   511  0.000000000E+00  0.000000000E+00 -8.819080200E+02  8.819080200E+02  0.000000000E+00  0.00000E+00  9.000E+00
      25     1     1     2     0     0  1.358747050E+02  1.287661904E+02 -3.218384554E+02  3.927437569E+02  1.250000000E+02  0.00000E+00  9.000E+00
      25     1     1     2     0     0 -1.260251254E+02 -1.063067995E+02 -3.411026514E+02  3.989479748E+02  1.250000000E+02  0.00000E+00  9.000E+00
      21     1     1     2   502   511 -9.849579593E+00 -2.245939092E+01 -1.536189760E+02  1.555642254E+02  0.000000000E+00  0.00000E+00  9.000E+00
#rwgt            1           1   6.6932281949808312E-002           9      296390           0
</event>
<event>
      5   9999  3.79277E-02  7.48169E+01 -1.00000E+00  1.29773E-01
      21    -1     0     0   502   512  0.000000000E+00  0.000000000E+00  1.123760839E+02  1.123760839E+02  0.000000000E+00  0.00000E+00  9.000E+00
      21    -1     0     0   501   502  0.000000000E+00  0.000000000E+00 -6.406120338E+02  6.406120338E+02  0.000000000E+00  0.00000E+00  9.000E+00
      25     1     1     2     0     0 -3.147465773E+01 -1.106808912E+02 -2.360894859E+02  2.908679410E+02  1.250000000E+02  0.00000E+00  9.000E+00
      25     1     1     2     0     0 -1.631091858E+01  1.682492115E+02 -3.194959434E+02  3.824611105E+02  1.250000000E+02  0.00000E+00  9.000E+00
      21     1     1     2   501   512  4.778557631E+01 -5.756832032E+01  2.734947928E+01  7.965906618E+01  1.846782373E-06  0.00000E+00  9.000E+00
#rwgt            1           1   3.8971286695144616E-002           9      296588           0
</event>
<event>
      5   9999  3.79277E-02  6.46331E+00 -1.00000E+00  2.20569E-01
      21    -1     0     0   502   501  0.000000000E+00  0.000000000E+00  7.296471987E+02  7.296471987E+02  0.000000000E+00  0.00000E+00  9.000E+00
      21    -1     0     0   501   511  0.000000000E+00  0.000000000E+00 -5.772965808E+01  5.772965808E+01  0.000000000E+00  0.00000E+00  9.000E+00
      25     1     1     2     0     0  2.871899811E+01 -4.749015310E+01  5.918678514E+02  6.074641134E+02  1.250000000E+02  0.00000E+00  9.000E+00
      25     1     1     2     0     0 -2.872386264E+01  5.395346414E+01  9.166248266E+01  1.666224694E+02  1.250000000E+02  0.00000E+00  9.000E+00
      21     1     1     2   502   511  4.864532341E-03 -6.463311034E+00 -1.161279343E+01  1.329027405E+01  5.331201500E-07  0.00000E+00  9.000E+00
#rwgt            1           1   4.5875511129403530E-002           9      296684           0
</event>
<event>
      5   9999 -3.79277E-02  1.00268E+01 -1.00000E+00  1.95623E-01
      21    -1     0     0   502   501  0.000000000E+00  0.000000000E+00  2.670541927E+01  2.670541927E+01  0.000000000E+00  0.00000E+00  9.000E+00
       2    -1     0     0   501     0  0.000000000E+00  0.000000000E+00 -3.723353589E+03  3.723353589E+03  0.000000000E+00  0.00000E+00  9.000E+00
      25     1     1     2     0     0  6.314580503E+01  9.983175917E+01 -2.827766518E+02  3.309704030E+02  1.250000000E+02  0.00000E+00  9.000E+00
      25     1     1     2     0     0 -7.069280625E+01 -1.064331800E+02 -3.217570856E+03  3.222532034E+03  1.250000000E+02  0.00000E+00  9.000E+00
       2     1     1     2   502     0  7.547001220E+00  6.601420869E+00 -1.963006623E+02  1.965565720E+02  0.000000000E+00  0.00000E+00  9.000E+00
#rwgt            1           1  -7.3546451716886549E-002           9      296924           0
</event>
<event>
      5   9999  3.79277E-02  6.90209E+01 -1.00000E+00  1.31531E-01
      21    -1     0     0   511   501  0.000000000E+00  0.000000000E+00  2.140804750E+02  2.140804750E+02  0.000000000E+00  0.00000E+00  9.000E+00
      21    -1     0     0   501   502  0.000000000E+00  0.000000000E+00 -1.301806930E+03  1.301806930E+03  0.000000000E+00  0.00000E+00  9.000E+00
      25     1     1     2     0     0 -2.871426332E+02 -1.661298938E+02 -6.954586282E+02  7.806008820E+02  1.250000000E+02  0.00000E+00  9.000E+00
      25     1     1     2     0     0  2.569035190E+02  1.040857135E+02 -5.129263859E+02  5.962815871E+02  1.250000000E+02  0.00000E+00  9.000E+00
      21     1     1     2   511   502  3.023911417E+01  6.204418031E+01  1.206585591E+02  1.390049360E+02  4.473129043E-06  0.00000E+00  9.000E+00
#rwgt            1           1   3.5507334718057768E-002           9      297173           0
</event>
<event>
      5   9999  3.79277E-02  4.78854E+01 -1.00000E+00  1.40155E-01
       2    -1     0     0   502     0  0.000000000E+00  0.000000000E+00  2.002887673E+02  2.002887673E+02  0.000000000E+00  0.00000E+00  9.000E+00
      21    -1     0     0   501   502  0.000000000E+00  0.000000000E+00 -7.628814996E+02  7.628814996E+02  0.000000000E+00  0.00000E+00  9.000E+00
      25     1     1     2     0     0 -1.535636000E+02 -1.743003292E+02 -4.598564732E+02  5.301465457E+02  1.250000000E+02  0.00000E+00  9.000E+00
      25     1     1     2     0     0  1.580648571E+02  1.266269216E+02 -2.088268910E+02  3.166268257E+02  1.250000000E+02  0.00000E+00  9.000E+00
       2     1     1     2   501     0 -4.501257092E+00  4.767340763E+01  1.060906319E+02  1.163968956E+02  0.000000000E+00  0.00000E+00  9.000E+00
#rwgt            1           1   3.5216172614621503E-002           9      297235           0
</event>
<event>
      5   9999  3.79277E-02  1.65962E+01 -1.00000E+00  1.73344E-01
      21    -1     0     0   502   501  0.000000000E+00  0.000000000E+00  1.247049560E+02  1.247049560E+02  0.000000000E+00  0.00000E+00  9.000E+00
      21    -1     0     0   511   502  0.000000000E+00  0.000000000E+00 -5.763572518E+02  5.763572518E+02  0.000000000E+00  0.00000E+00  9.000E+00
      25     1     1     2     0     0  1.599961339E+02  5.939601809E+00 -1.524528604E+02  2.539703061E+02  1.250000000E+02  0.00000E+00  9.000E+00
      25     1     1     2     0     0 -1.586335820E+02  1.060061845E+01 -6.518226302E+01  2.124869734E+02  1.250000000E+02  0.00000E+00  9.000E+00
      21     1     1     2   511   501 -1.362551918E+00 -1.654022026E+01 -2.340171723E+02  2.346049283E+02  2.697398305E-06  0.00000E+00  9.000E+00
#rwgt            1           1   4.5482229721885065E-002           9      297366           0
</event>
<event>
      5   9999  3.79277E-02  8.35450E+01 -1.00000E+00  1.27445E-01
      21    -1     0     0   502   512  0.000000000E+00  0.000000000E+00  1.459019195E+02  1.459019195E+02  0.000000000E+00  0.00000E+00  9.000E+00
      21    -1     0     0   501   502  0.000000000E+00  0.000000000E+00 -8.264865707E+02  8.264865707E+02  0.000000000E+00  0.00000E+00  9.000E+00
      25     1     1     2     0     0  1.948898476E+02  1.232036431E+02 -1.477102792E+02  3.010058420E+02  1.250000000E+02  0.00000E+00  9.000E+00
      25     1     1     2     0     0 -2.736247203E+02 -9.526462392E+01 -4.730130754E+02  5.686054921E+02  1.250000000E+02  0.00000E+00  9.000E+00
      21     1     1     2   501   512  7.873487271E+01 -2.793901915E+01 -5.986129666E+01  1.027771561E+02  1.784161275E-06  0.00000E+00  9.000E+00
#rwgt            1           1   8.1247458949743695E-002           9      297489           0
</event>
<event>
      5   9999  3.79277E-02  1.49106E+02 -1.00000E+00  1.16497E-01
      21    -1     0     0   502   501  0.000000000E+00  0.000000000E+00  1.448895174E+02  1.448895174E+02  0.000000000E+00  0.00000E+00  9.000E+00
      21    -1     0     0   501   511  0.000000000E+00  0.000000000E+00 -8.554067796E+02  8.554067796E+02  0.000000000E+00  0.00000E+00  9.000E+00
      25     1     1     2     0     0 -2.016071342E+02 -1.276083145E+02 -6.115023699E+01  2.762130880E+02  1.250000000E+02  0.00000E+00  9.000E+00
      25     1     1     2     0     0  5.635394193E+01  9.393245399E+01 -2.779201623E+02  3.238266346E+02  1.250000000E+02  0.00000E+00  9.000E+00
      21     1     1     2   502   511  1.452531922E+02  3.367586052E+01 -3.714468629E+02  4.002565744E+02  0.000000000E+00  0.00000E+00  9.000E+00
#rwgt            1           1   4.4075327350676485E-002           9      297630           0
</event>
<event>
      5   9999 -3.79277E-02  2.36070E+01 -1.00000E+00  1.60639E-01
      21    -1     0     0   502   501  0.000000000E+00  0.000000000E+00  7.384996038E+02  7.384996038E+02  0.000000000E+00  0.00000E+00  9.000E+00
      21    -1     0     0   512   502  0.000000000E+00  0.000000000E+00 -6.314222591E+01  6.314222591E+01  0.000000000E+00  0.00000E+00  9.000E+00
      25     1     1     2     0     0 -1.077424971E+01 -1.368427459E+02  2.335352917E+02  2.983383214E+02  1.250000000E+02  0.00000E+00  9.000E+00
      25     1     1     2     0     0  1.565023374E+01  1.599406853E+02  4.323096510E+02  4.778520556E+02  1.250000000E+02  0.00000E+00  9.000E+00
      21     1     1     2   512   501 -4.875984032E+00 -2.309793938E+01  9.512435198E+00  2.545145275E+01  5.057621821E-07  0.00000E+00  9.000E+00
#rwgt            1           1  -2.1238326587749129E-002           9      297740           0
</event>
<event>
      5   9999  3.79277E-02  5.50636E+01 -1.00000E+00  1.36727E-01
      21    -1     0     0   502   501  0.000000000E+00  0.000000000E+00  6.611232410E+02  6.611232410E+02  0.000000000E+00  0.00000E+00  9.000E+00
      21    -1     0     0   511   502  0.000000000E+00  0.000000000E+00 -7.757722961E+01  7.757722961E+01  0.000000000E+00  0.00000E+00  9.000E+00
      25     1     1     2     0     0 -1.213894165E+01  9.927842704E+01  1.398298827E+02  2.125581240E+02  1.250000000E+02  0.00000E+00  9.000E+00
      25     1     1     2     0     0  6.585452032E+01 -1.113877496E+02  4.345487969E+02  4.703208538E+02  1.250000000E+02  0.00000E+00  9.000E+00
      21     1     1     2   511   501 -5.371557867E+01  1.210932259E+01  9.167331751E+00  5.582149279E+01  7.725644944E-07  0.00000E+00  9.000E+00
#rwgt            1           1   3.4287407399119334E-002           9      297881           0
</event>
<event>
      5   9999  3.79277E-02  5.44655E+01 -1.00000E+00  1.36988E-01
      21    -1     0     0   502   512  0.000000000E+00  0.000000000E+00  8.910340890E+01  8.910340890E+01  0.000000000E+00  0.00000E+00  9.000E+00
      21    -1     0     0   501   502  0.000000000E+00  0.000000000E+00 -1.058664193E+03  1.058664193E+03  0.000000000E+00  0.00000E+00  9.000E+00
      25     1     1     2     0     0 -7.341514597E+01  5.180618516E+01 -8.600656531E+02  8.737342801E+02  1.250000000E+02  0.00000E+00  9.000E+00
      25     1     1     2     0     0  1.901466962E+01 -4.914493044E+01 -1.528897332E+02  2.043943550E+02  1.250000000E+02  0.00000E+00  9.000E+00
      21     1     1     2   501   512  5.440047635E+01 -2.661254719E+00  4.339460262E+01  6.963896640E+01  1.348699152E-06  0.00000E+00  9.000E+00
#rwgt            1           1   3.8182143987010086E-002           9      298051           0
</event>
<event>
      5   9999  3.79277E-02  3.82410E+00 -1.00000E+00  2.68159E-01
      21    -1     0     0   502   511  0.000000000E+00  0.000000000E+00  1.476193079E+02  1.476193079E+02  0.000000000E+00  0.00000E+00  9.000E+00
      21    -1     0     0   501   502  0.000000000E+00  0.000000000E+00 -3.189511213E+02  3.189511213E+02  0.000000000E+00  0.00000E+00  9.000E+00
      25     1     1     2     0     0  3.199697751E+01  1.111282614E+02 -5.410071471E+01  1.786761998E+02  1.250000000E+02  0.00000E+00  9.000E+00
      25     1     1     2     0     0 -2.913117907E+01 -1.136602457E+02 -1.661992269E+02  2.387770091E+02  1.250000000E+02  0.00000E+00  9.000E+00
      21     1     1     2   501   511 -2.865798434E+00  2.531984315E+00  4.896812825E+01  4.911722029E+01  1.348699152E-06  0.00000E+00  9.000E+00
#rwgt            1           1   4.4066176187437328E-002           9      298206           0
</event>
<event>
      5   9999  3.79277E-02  3.29271E+01 -1.00000E+00  1.50284E-01
       1    -1     0     0   502     0  0.000000000E+00  0.000000000E+00  2.880601843E+02  2.880601843E+02  0.000000000E+00  0.00000E+00  9.000E+00
      21    -1     0     0   501   502  0.000000000E+00  0.000000000E+00 -1.952677785E+03  1.952677785E+03  0.000000000E+00  0.00000E+00  9.000E+00
      25     1     1     2     0     0  1.643987152E+02 -3.320569788E+01 -1.517429323E+03  1.531778805E+03  1.250000000E+02  0.00000E+00  9.000E+00
      25     1     1     2     0     0 -1.494389892E+02  6.253831393E+01 -4.025045137E+02  4.515284440E+02  1.250000000E+02  0.00000E+00  9.000E+00
       1     1     1     2   501     0 -1.495972606E+01 -2.933261605E+01  2.553162358E+02  2.574307208E+02  7.136645101E-06  0.00000E+00  9.000E+00
#rwgt            1           1   9.4782668933508646E-002           9      298738           0
</event>
<event>
      5   9999  3.79277E-02  8.12849E+01 -1.00000E+00  1.28015E-01
      21    -1     0     0   502   501  0.000000000E+00  0.000000000E+00  1.456907559E+03  1.456907559E+03  0.000000000E+00  0.00000E+00  9.000E+00
      21    -1     0     0   511   502  0.000000000E+00  0.000000000E+00 -1.360384508E+02  1.360384508E+02  0.000000000E+00  0.00000E+00  9.000E+00
      25     1     1     2     0     0 -6.843524221E+01 -6.341193626E+01  1.185835032E+03  1.196049405E+03  1.250000000E+02  0.00000E+00  9.000E+00
      25     1     1     2     0     0  4.769087922E+01 -1.518131233E+01  2.333006839E+02  2.693679664E+02  1.250000000E+02  0.00000E+00  9.000E+00
      21     1     1     2   511   501  2.074436299E+01  7.859324859E+01 -9.826660797E+01  1.275286382E+02  3.814697266E-06  0.00000E+00  9.000E+00
#rwgt            1           1   5.9929382435689356E-002           9      298960           0
</event>
<event>
      5   9999  3.79277E-02  7.45601E+01 -1.00000E+00  1.29847E-01
      21    -1     0     0   502   501  0.000000000E+00  0.000000000E+00  3.996149038E+02  3.996149038E+02  0.000000000E+00  0.00000E+00  9.000E+00
      21    -1     0     0   501   512  0.000000000E+00  0.000000000E+00 -1.648518580E+02  1.648518580E+02  0.000000000E+00  0.00000E+00  9.000E+00
      25     1     1     2     0     0  1.523099494E+02  1.451872299E+02  1.150556843E+02  2.704449350E+02  1.250000000E+02  0.00000E+00  9.000E+00
      25     1     1     2     0     0 -9.608410809E+01 -9.621918234E+01  1.185069741E+02  2.194520216E+02  1.250000000E+02  0.00000E+00  9.000E+00
      21     1     1     2   502   512 -5.622584127E+01 -4.896804756E+01  1.200387447E+00  7.456980514E+01  3.513641990E-07  0.00000E+00  9.000E+00
#rwgt            1           1   3.2510546362750407E-002           9      299017           0
</event>
<event>
      5   9999  3.79277E-02  2.76042E+01 -1.00000E+00  1.55594E-01
      21    -1     0     0   511   501  0.000000000E+00  0.000000000E+00  2.103852012E+02  2.103852012E+02  0.000000000E+00  0.00000E+00  9.000E+00
      21    -1     0     0   501   502  0.000000000E+00  0.000000000E+00 -6.220242139E+02  6.220242139E+02  0.000000000E+00  0.00000E+00  9.000E+00
      25     1     1     2     0     0 -9.633989914E+01 -7.546247678E+01 -1.599685706E+02  2.370462089E+02  1.250000000E+02  0.00000E+00  9.000E+00
      25     1     1     2     0     0  1.216756840E+02  8.642097392E+01 -3.998029089E+02  4.446806976E+02  1.250000000E+02  0.00000E+00  9.000E+00
      21     1     1     2   511   502 -2.533578490E+01 -1.095849714E+01  1.481324669E+02  1.506825086E+02  3.303624740E-06  0.00000E+00  9.000E+00
#rwgt            1           1   3.9162464836564409E-002           9      299073           0
</event>
<event>
      5   9999 -3.79277E-02  1.46807E+02 -1.00000E+00  1.16765E-01
      21    -1     0     0   512   501  0.000000000E+00  0.000000000E+00  6.129385383E+02  6.129385383E+02  0.000000000E+00  0.00000E+00  9.000E+00
      21    -1     0     0   501   502  0.000000000E+00  0.000000000E+00 -5.708951509E+02  5.708951509E+02  0.000000000E+00  0.00000E+00  9.000E+00
      25     1     1     2     0     0 -1.342426948E+02  9.448740214E+01 -2.814453959E+02  3.489777660E+02  1.250000000E+02  0.00000E+00  9.000E+00
      25     1     1     2     0     0  7.028329466E+01  3.765398425E+01 -2.236680154E+02  2.683466884E+02  1.250000000E+02  0.00000E+00  9.000E+00
      21     1     1     2   512   502  6.395940018E+01 -1.321413864E+02  5.471567987E+02  5.665092349E+02  0.000000000E+00  0.00000E+00  9.000E+00
#rwgt            1           1  -9.9309347952561411E-002           9      299260           0
</event>
<event>
      5   9999  3.79277E-02  3.10704E+01 -1.00000E+00  1.51990E-01
      21    -1     0     0   511   501  0.000000000E+00  0.000000000E+00  1.461873228E+02  1.461873228E+02  0.000000000E+00  0.00000E+00  9.000E+00
      21    -1     0     0   501   502  0.000000000E+00  0.000000000E+00 -7.282887800E+02  7.282887800E+02  0.000000000E+00  0.00000E+00  9.000E+00
      25     1     1     2     0     0  1.843660759E+02  1.139380909E+01 -3.101460719E+02  3.820160399E+02  1.250000000E+02  0.00000E+00  9.000E+00
      25     1     1     2     0     0 -1.978153403E+02 -3.940252831E+01 -3.417542133E+02  4.160581815E+02  1.250000000E+02  0.00000E+00  9.000E+00
      21     1     1     2   511   502  1.344926439E+01  2.800871922E+01  6.979882807E+01  7.640188129E+01  2.132480600E-06  0.00000E+00  9.000E+00
#rwgt            1           1   2.9568889562544942E-002           9      299306           0
</event>
<event>
      5   9999  3.79277E-02  7.48581E+01 -1.00000E+00  1.29762E-01
      21    -1     0     0   502   512  0.000000000E+00  0.000000000E+00  4.163713846E+02  4.163713846E+02  0.000000000E+00  0.00000E+00  9.000E+00
      21    -1     0     0   501   502  0.000000000E+00  0.000000000E+00 -1.969642537E+02  1.969642537E+02  0.000000000E+00  0.00000E+00  9.000E+00
      25     1     1     2     0     0  7.859166143E+01  4.038864561E+01  5.058881348E+00  1.531616278E+02  1.250000000E+02  0.00000E+00  9.000E+00
      25     1     1     2     0     0 -1.503764736E+02 -1.915937949E+01 -3.522616321E+01  1.996147495E+02  1.250000000E+02  0.00000E+00  9.000E+00
      21     1     1     2   501   512  7.178481221E+01 -2.122926612E+01  2.495744128E+02  2.605592611E+02  0.000000000E+00  0.00000E+00  9.000E+00
#rwgt            1           1   2.6951257755224823E-002           9      299471           0
</event>
<event>
      5   9999  3.79277E-02  3.49025E+01 -1.00000E+00  1.48610E-01
      21    -1     0     0   502   501  0.000000000E+00  0.000000000E+00  4.645790747E+02  4.645790747E+02  0.000000000E+00  0.00000E+00  9.000E+00
      21    -1     0     0   501   511  0.000000000E+00  0.000000000E+00 -2.241887272E+02  2.241887272E+02  0.000000000E+00  0.00000E+00  9.000E+00
      25     1     1     2     0     0 -1.160760933E+02  1.333517442E+01  3.792962095E+02  4.161034737E+02  1.250000000E+02  0.00000E+00  9.000E+00
      25     1     1     2     0     0  1.507884804E+02 -9.697357772E+00 -9.908810905E+01  2.197149470E+02  1.250000000E+02  0.00000E+00  9.000E+00
      21     1     1     2   502   511 -3.471238713E+01 -3.637816650E+00 -3.981775285E+01  5.294938123E+01  1.261592536E-06  0.00000E+00  9.000E+00
#rwgt            2          11   1.5966513146716517E-003           9      299550           0
</event>
<event>
      5   9999  3.79277E-02  2.50129E+01 -1.00000E+00  1.58734E-01
      21    -1     0     0   502   512  0.000000000E+00  0.000000000E+00  4.648402861E+02  4.648402861E+02  0.000000000E+00  0.00000E+00  9.000E+00
      21    -1     0     0   501   502  0.000000000E+00  0.000000000E+00 -1.053343802E+02  1.053343802E+02  0.000000000E+00  0.00000E+00  9.000E+00
      25     1     1     2     0     0 -1.299251027E+02  2.214253936E+01  3.107818347E+02  3.599738507E+02  1.250000000E+02  0.00000E+00  9.000E+00
      25     1     1     2     0     0  1.130361181E+02 -3.692386353E+00  1.645274007E+01  1.693708663E+02  1.250000000E+02  0.00000E+00  9.000E+00
      21     1     1     2   501   512  1.688898464E+01 -1.845015301E+01  3.227133112E+01  4.082994931E+01  4.768371582E-07  0.00000E+00  9.000E+00
#rwgt            1           1   4.3234159132818646E-002           9      299645           0
</event>
<event>
      5   9999  3.79277E-02  3.04885E+01 -1.00000E+00  1.52554E-01
      21    -1     0     0   502   511  0.000000000E+00  0.000000000E+00  3.912416693E+02  3.912416693E+02  0.000000000E+00  0.00000E+00  9.000E+00
      21    -1     0     0   501   502  0.000000000E+00  0.000000000E+00 -2.445476399E+02  2.445476399E+02  0.000000000E+00  0.00000E+00  9.000E+00
      25     1     1     2     0     0 -1.338448508E+02 -8.152265208E+01  2.365650756E+02  3.100780900E+02  1.250000000E+02  0.00000E+00  9.000E+00
      25     1     1     2     0     0  1.537455933E+02  5.842479468E+01 -1.520188878E+02  2.564876338E+02  1.250000000E+02  0.00000E+00  9.000E+00
      21     1     1     2   501   511 -1.990074249E+01  2.309785740E+01  6.214784155E+01  6.922358541E+01  1.168007728E-06  0.00000E+00  9.000E+00
#rwgt            1           1   4.7838310200823304E-002           9      299842           0
</event>
<event>
      5   9999  3.79277E-02  6.32014E+01 -1.00000E+00  1.33508E-01
      21    -1     0     0   502   501  0.000000000E+00  0.000000000E+00  3.127014045E+02  3.127014045E+02  0.000000000E+00  0.00000E+00  9.000E+00
      21    -1     0     0   512   502  0.000000000E+00  0.000000000E+00 -4.717432659E+02  4.717432659E+02  0.000000000E+00  0.00000E+00  9.000E+00
      25     1     1     2     0     0 -1.092811852E+02  5.237771048E+01  1.222022644E+02  2.127068297E+02  1.250000000E+02  0.00000E+00  9.000E+00
      25     1     1     2     0     0  1.384681812E+02  3.680646247E+00  8.144651875E+01  2.035817275E+02  1.250000000E+02  0.00000E+00  9.000E+00
      21     1     1     2   512   501 -2.918699604E+01 -5.605835673E+01 -3.626906445E+02  3.681561132E+02  5.394796609E-06  0.00000E+00  9.000E+00
#rwgt            1           1   3.3880418728478238E-002           9      300155           0
</event>
<event>
      5   9999  3.79277E-02  5.71016E+01 -1.00000E+00  1.35863E-01
      21    -1     0     0   502   501  0.000000000E+00  0.000000000E+00  1.892282870E+03  1.892282870E+03  0.000000000E+00  0.00000E+00  9.000E+00
      21    -1     0     0   511   502  0.000000000E+00  0.000000000E+00 -5.077416689E+01  5.077416689E+01  0.000000000E+00  0.00000E+00  9.000E+00
      25     1     1     2     0     0  1.488985153E+02 -4.104219640E+01  1.347996623E+03  1.362561972E+03  1.250000000E+02  0.00000E+00  9.000E+00
      25     1     1     2     0     0 -2.047409297E+02  5.296752973E+01  3.662375381E+02  4.409981199E+02  1.250000000E+02  0.00000E+00  9.000E+00
      21     1     1     2   511   501  5.584241440E+01 -1.192533333E+01  1.272745418E+02  1.394969455E+02  1.348699152E-06  0.00000E+00  9.000E+00
#rwgt            1           1   4.2553017558113908E-002           9      300265           0
</event>
<event>
      5   9999  3.79277E-02  3.66428E+01 -1.00000E+00  1.47241E-01
      21    -1     0     0   512   501  0.000000000E+00  0.000000000E+00  4.604548945E+01  4.604548945E+01  0.000000000E+00  0.00000E+00  9.000E+00
      21    -1     0     0   501   502  0.000000000E+00  0.000000000E+00 -1.221471316E+03  1.221471316E+03  0.000000000E+00  0.00000E+00  9.000E+00
      25     1     1     2     0     0  2.608668947E+01 -1.144304117E+02 -2.194015090E+02  2.784544068E+02  1.250000000E+02  0.00000E+00  9.000E+00
      25     1     1     2     0     0 -4.058979240E+01  8.077991087E+01 -9.332603498E+02  9.459243129E+02  1.250000000E+02  0.00000E+00  9.000E+00
      21     1     1     2   512   502  1.450310293E+01  3.365050085E+01 -2.276396739E+01  4.313808542E+01  9.536743164E-07  0.00000E+00  9.000E+00
#rwgt            1           1   4.1600302891615683E-002           9      300352           0
</event>
<event>
      5   9999  3.79277E-02  1.18293E+02 -1.00000E+00  1.20633E-01
      21    -1     0     0   502   501  0.000000000E+00  0.000000000E+00  2.150110923E+02  2.150110923E+02  0.000000000E+00  0.00000E+00  9.000E+00
      21    -1     0     0   501   511  0.000000000E+00  0.000000000E+00 -7.100093280E+02  7.100093280E+02  0.000000000E+00  0.00000E+00  9.000E+00
      25     1     1     2     0     0 -3.066324587E+02 -4.801184084E+01 -1.038528700E+02  3.503412910E+02  1.250000000E+02  0.00000E+00  9.000E+00
      25     1     1     2     0     0  1.931890152E+02  8.153395437E+01 -1.063240176E+02  2.662697468E+02  1.250000000E+02  0.00000E+00  9.000E+00
      21     1     1     2   502   511  1.134434434E+02 -3.352211352E+01 -2.848213480E+02  3.084093826E+02  3.814697266E-06  0.00000E+00  9.000E+00
#rwgt            1           1   1.2073863463916234E-002           9      300472           0
</event>
<event>
      5   9999  3.79277E-02  4.95715E+01 -1.00000E+00  1.39289E-01
      21    -1     0     0   502   512  0.000000000E+00  0.000000000E+00  9.062113546E+01  9.062113546E+01  0.000000000E+00  0.00000E+00  9.000E+00
      21    -1     0     0   501   502  0.000000000E+00  0.000000000E+00 -1.084334942E+03  1.084334942E+03  0.000000000E+00  0.00000E+00  9.000E+00
      25     1     1     2     0     0 -2.331943203E+01  1.423494110E+02 -9.358184174E+02  9.550854732E+02  1.250000000E+02  0.00000E+00  9.000E+00
      25     1     1     2     0     0  1.189953910E+01 -9.411125065E+01 -6.489303353E+01  1.698076333E+02  1.250000000E+02  0.00000E+00  9.000E+00
      21     1     1     2   501   512  1.141989293E+01 -4.823816033E+01  6.997644125E+00  5.006297124E+01  7.102713160E-07  0.00000E+00  9.000E+00
#rwgt            1           1   5.0520180210525269E-002           9      300537           0
</event>
<event>
      5   9999  3.79277E-02  4.99599E+01 -1.00000E+00  1.39095E-01
      21    -1     0     0   502   501  0.000000000E+00  0.000000000E+00  1.737924777E+02  1.737924777E+02  0.000000000E+00  0.00000E+00  9.000E+00
      21    -1     0     0   501   511  0.000000000E+00  0.000000000E+00 -4.589114285E+02  4.589114285E+02  0.000000000E+00  0.00000E+00  9.000E+00
      25     1     1     2     0     0  1.319249209E+02  1.432714528E+02 -1.793493285E+02  2.927833254E+02  1.250000000E+02  0.00000E+00  9.000E+00
      25     1     1     2     0     0 -1.796732688E+02 -1.579714453E+02 -7.118826920E+01  2.791598659E+02  1.250000000E+02  0.00000E+00  9.000E+00
      21     1     1     2   502   511  4.774834786E+01  1.469999247E+01 -3.458135303E+01  6.076071493E+01  6.743495762E-07  0.00000E+00  9.000E+00
#rwgt            1           1   3.4552496655182958E-002           9      300667           0
</event>
<event>
      5   9999  3.79277E-02  2.87446E+01 -1.00000E+00  1.54341E-01
       4    -1     0     0   502     0  0.000000000E+00  0.000000000E+00  5.736632414E+02  5.736632414E+02  0.000000000E+00  0.00000E+00  9.000E+00
      21    -1     0     0   501   502  0.000000000E+00  0.000000000E+00 -2.345538002E+02  2.345538002E+02  0.000000000E+00  0.00000E+00  9.000E+00
      25     1     1     2     0     0  8.802888384E+01  7.639505875E+01 -1.672159955E+02  2.391055804E+02  1.250000000E+02  0.00000E+00  9.000E+00
      25     1     1     2     0     0 -6.016548025E+01 -8.345788221E+01  1.822863769E+02  2.437999720E+02  1.250000000E+02  0.00000E+00  9.000E+00
       4     1     1     2   501     0 -2.786340360E+01  7.062823456E+00  3.240390598E+02  3.253114892E+02  3.814697266E-06  0.00000E+00  9.000E+00
#rwgt            1           1   1.9197101408756707E-002           9      300967           0
</event>
<event>
      5   9999  3.79277E-02  3.67294E+01 -1.00000E+00  1.47176E-01
      21    -1     0     0   502   501  0.000000000E+00  0.000000000E+00  5.251574516E+02  5.251574516E+02  0.000000000E+00  0.00000E+00  9.000E+00
      21    -1     0     0   501   511  0.000000000E+00  0.000000000E+00 -3.988023443E+02  3.988023443E+02  0.000000000E+00  0.00000E+00  9.000E+00
      25     1     1     2     0     0  2.775383689E+02  6.621044636E+01  3.472446989E+01  3.134360513E+02  1.250000000E+02  0.00000E+00  9.000E+00
      25     1     1     2     0     0 -3.140812562E+02 -6.251322976E+01  2.645278416E+02  4.337682773E+02  1.250000000E+02  0.00000E+00  9.000E+00
      21     1     1     2   502   511  3.654288723E+01 -3.697216600E+00 -1.728972042E+02  1.767554674E+02  2.697398305E-06  0.00000E+00  9.000E+00
#rwgt            1           1   3.8905947845666707E-002           9      301167           0
</event>
<event>
      5   9999  3.79277E-02  2.38430E+01 -1.00000E+00  1.60308E-01
      21    -1     0     0   512   501  0.000000000E+00  0.000000000E+00  7.059853097E+01  7.059853097E+01  0.000000000E+00  0.00000E+00  9.000E+00
      21    -1     0     0   501   502  0.000000000E+00  0.000000000E+00 -5.878610578E+02  5.878610578E+02  0.000000000E+00  0.00000E+00  9.000E+00
      25     1     1     2     0     0  9.608650011E+01 -3.677501168E+01 -3.256818686E+02  3.637013837E+02  1.250000000E+02  0.00000E+00  9.000E+00
      25     1     1     2     0     0 -1.087752565E+02  5.696122101E+01 -2.031344181E+02  2.682633574E+02  1.250000000E+02  0.00000E+00  9.000E+00
      21     1     1     2   512   502  1.268875638E+01 -2.018620933E+01  1.155375983E+01  2.649484765E+01  6.078504936E-07  0.00000E+00  9.000E+00
#rwgt            1           1   4.8549790944456661E-002           9      301347           0
</event>
<event>
      5   9999  3.79277E-02  3.63476E+01 -1.00000E+00  1.47467E-01
      21    -1     0     0   502   501  0.000000000E+00  0.000000000E+00  2.380424381E+01  2.380424381E+01  0.000000000E+00  0.00000E+00  9.000E+00
       2    -1     0     0   501     0  0.000000000E+00  0.000000000E+00 -1.625634368E+03  1.625634368E+03  0.000000000E+00  0.00000E+00  9.000E+00
      25     1     1     2     0     0  5.544744368E+01 -6.561101526E+01 -3.792159273E+02  4.084225066E+02  1.250000000E+02  0.00000E+00  9.000E+00
      25     1     1     2     0     0 -8.602470689E+01  8.526248284E+01 -9.294045594E+02  9.455621483E+02  1.250000000E+02  0.00000E+00  9.000E+00
       2     1     1     2   502     0  3.057726321E+01 -1.965146758E+01 -2.932096377E+02  2.954539572E+02  6.607249480E-06  0.00000E+00  9.000E+00
#rwgt            1           1   5.0773429943493174E-002           9      301568           0
</event>
<event>
      5   9999  3.79277E-02  3.30123E+01 -1.00000E+00  1.50209E-01
      21    -1     0     0   502   501  0.000000000E+00  0.000000000E+00  4.997011367E+01  4.997011367E+01  0.000000000E+00  0.00000E+00  9.000E+00
      21    -1     0     0   511   502  0.000000000E+00  0.000000000E+00 -5.124133391E+02  5.124133391E+02  0.000000000E+00  0.00000E+00  9.000E+00
      25     1     1     2     0     0 -4.664654785E+01  1.828997256E+01 -2.663018410E+02  2.984159749E+02  1.250000000E+02  0.00000E+00  9.000E+00
      25     1     1     2     0     0  4.421627255E+01 -5.121268559E+01 -1.446050062E+02  2.027644588E+02  1.250000000E+02  0.00000E+00  9.000E+00
      21     1     1     2   511   501  2.430275299E+00  3.292271303E+01 -5.153637822E+01  6.120301913E+01  9.536743164E-07  0.00000E+00  9.000E+00
#rwgt            1           1   5.6682544333755934E-002           9      301767           0
</event>
<event>
      5   9999  3.79277E-02  1.43453E+01 -1.00000E+00  1.79229E-01
      21    -1     0     0   512   501  0.000000000E+00  0.000000000E+00  6.578891642E+02  6.578891642E+02  0.000000000E+00  0.00000E+00  9.000E+00
      21    -1     0     0   501   502  0.000000000E+00  0.000000000E+00 -6.210074922E+01  6.210074922E+01  0.000000000E+00  0.00000E+00  9.000E+00
      25     1     1     2     0     0  9.931167636E+01 -1.000978127E+02  2.973274774E+02  3.520099572E+02  1.250000000E+02  0.00000E+00  9.000E+00
      25     1     1     2     0     0 -1.133895629E+02  1.028548597E+02  2.576601267E+02  3.247307439E+02  1.250000000E+02  0.00000E+00  9.000E+00
      21     1     1     2   512   502  1.407788651E+01 -2.757046959E+00  4.080081088E+01  4.324921230E+01  9.536743164E-07  0.00000E+00  9.000E+00
#rwgt            1           1   3.8704443289112371E-002           9      301929           0
</event>
<event>
      5   9999  3.79277E-02  1.51198E+01 -1.00000E+00  1.77059E-01
      21    -1     0     0   502   501  0.000000000E+00  0.000000000E+00  6.423869996E+02  6.423869996E+02  0.000000000E+00  0.00000E+00  9.000E+00
      21    -1     0     0   501   511  0.000000000E+00  0.000000000E+00 -7.338267769E+01  7.338267769E+01  0.000000000E+00  0.00000E+00  9.000E+00
      25     1     1     2     0     0  1.061920985E+02 -1.144148849E+02  2.239948681E+02  3.002769199E+02  1.250000000E+02  0.00000E+00  9.000E+00
      25     1     1     2     0     0 -1.213118432E+02  1.144667351E+02  3.413197971E+02  3.999292445E+02  1.250000000E+02  0.00000E+00  9.000E+00
      21     1     1     2   502   511  1.511974470E+01 -5.185019394E-02  3.689656808E+00  1.556351296E+01  1.737759082E-07  0.00000E+00  9.000E+00
#rwgt            1           1   2.2935258335864833E-002           9      302175           0
</event>
<event>
      5   9999  3.79277E-02  2.72457E+01 -1.00000E+00  1.56003E-01
      21    -1     0     0   502   501  0.000000000E+00  0.000000000E+00  9.321188817E+01  9.321188817E+01  0.000000000E+00  0.00000E+00  9.000E+00
      21    -1     0     0   501   512  0.000000000E+00  0.000000000E+00 -5.310355548E+02  5.310355548E+02  0.000000000E+00  0.00000E+00  9.000E+00
      25     1     1     2     0     0  1.365542042E+02  7.142773941E+01 -1.417721895E+02  2.438715366E+02  1.250000000E+02  0.00000E+00  9.000E+00
      25     1     1     2     0     0 -1.178950268E+02 -5.157415175E+01 -1.561254119E+02  2.378219391E+02  1.250000000E+02  0.00000E+00  9.000E+00
      21     1     1     2   502   512 -1.865917742E+01 -1.985358767E+01 -1.399260652E+02  1.425539672E+02  2.697398305E-06  0.00000E+00  9.000E+00
#rwgt            1           1   1.5521443329674995E-002           9      302339           0
</event>
<event>
      5   9999  3.79277E-02  1.56908E+01 -1.00000E+00  1.75561E-01
      21    -1     0     0   502   501  0.000000000E+00  0.000000000E+00  1.020522883E+02  1.020522883E+02  0.000000000E+00  0.00000E+00  9.000E+00
      21    -1     0     0   511   502  0.000000000E+00  0.000000000E+00 -6.353664136E+02  6.353664136E+02  0.000000000E+00  0.00000E+00  9.000E+00
      25     1     1     2     0     0 -2.765073589E+01 -1.116277290E+02 -1.753107355E+02  2.440986831E+02  1.250000000E+02  0.00000E+00  9.000E+00
      25     1     1     2     0     0  4.077495919E+01  1.202275433E+02 -5.017777117E+01  1.850947546E+02  1.250000000E+02  0.00000E+00  9.000E+00
      21     1     1     2   511   501 -1.312422330E+01 -8.599814232E+00 -3.078256186E+02  3.082252643E+02  3.814697266E-06  0.00000E+00  9.000E+00
#rwgt            1           1   4.3226740248072777E-002           9      302532           0
</event>
<event>
      5   9999 -3.79277E-02  1.38274E+01 -1.00000E+00  1.80780E-01
      21    -1     0     0   502   501  0.000000000E+00  0.000000000E+00  9.650677524E+02  9.650677524E+02  0.000000000E+00  0.00000E+00  9.000E+00
       1    -1     0     0   501     0  0.000000000E+00  0.000000000E+00 -1.049792238E+03  1.049792238E+03  0.000000000E+00  0.00000E+00  9.000E+00
      25     1     1     2     0     0 -4.145022193E+01 -1.076461007E+02  7.964005641E+02  8.143615059E+02  1.250000000E+02  0.00000E+00  9.000E+00
      25     1     1     2     0     0  4.649640557E+01  9.477234038E+01  1.177181329E+02  2.015595968E+02  1.250000000E+02  0.00000E+00  9.000E+00
       1     1     1     2   502     0 -5.046183639E+00  1.287376029E+01 -9.988431830E+02  9.989388880E+02  1.078959322E-05  0.00000E+00  9.000E+00
#rwgt            1           1  -5.5784375789225044E-002           9      302703           0
</event>
<event>
      5   9999  3.79277E-02  5.34258E+01 -1.00000E+00  1.37453E-01
      21    -1     0     0   502   511  0.000000000E+00  0.000000000E+00  1.230030085E+03  1.230030085E+03  0.000000000E+00  0.00000E+00  9.000E+00
      21    -1     0     0   501   502  0.000000000E+00  0.000000000E+00 -6.266797737E+01  6.266797737E+01  0.000000000E+00  0.00000E+00  9.000E+00
      25     1     1     2     0     0  8.561786844E+01  8.734359993E+01  4.261136436E+02  4.606052118E+02  1.250000000E+02  0.00000E+00  9.000E+00
      25     1     1     2     0     0 -7.700257427E+01 -3.461703093E+01  8.395201654E+01  1.726287240E+02  1.250000000E+02  0.00000E+00  9.000E+00
      21     1     1     2   501   511 -8.615294166E+00 -5.272656900E+01  6.572964477E+02  6.594641268E+02  0.000000000E+00  0.00000E+00  9.000E+00
#rwgt            1           1   3.0821375544192758E-002           9      302875           0
</event>
<event>
      5   9999  3.79277E-02  3.06549E+02 -1.00000E+00  1.05288E-01
      21    -1     0     0   502   501  0.000000000E+00  0.000000000E+00  1.736242022E+03  1.736242022E+03  0.000000000E+00  0.00000E+00  9.000E+00
      21    -1     0     0   501   512  0.000000000E+00  0.000000000E+00 -1.102805092E+02  1.102805092E+02  0.000000000E+00  0.00000E+00  9.000E+00
      25     1     1     2     0     0 -5.265944458E+01  7.044170832E+01  9.475087723E+02  9.597567009E+02  1.250000000E+02  0.00000E+00  9.000E+00
      25     1     1     2     0     0  7.110781399E+00  2.327042971E+02  3.262714578E+02  4.198570200E+02  1.250000000E+02  0.00000E+00  9.000E+00
      21     1     1     2   502   512  4.554866318E+01 -3.031460054E+02  3.521812832E+02  4.669088108E+02  0.000000000E+00  0.00000E+00  9.000E+00
#rwgt            2          11   7.9891538770451983E-004           9      303106           0
</event>
<event>
      5   9999  3.79277E-02  1.35116E+02 -1.00000E+00  1.18221E-01
      21    -1     0     0   502   501  0.000000000E+00  0.000000000E+00  1.989473580E+02  1.989473580E+02  0.000000000E+00  0.00000E+00  9.000E+00
      21    -1     0     0   511   502  0.000000000E+00  0.000000000E+00 -5.582970581E+02  5.582970581E+02  0.000000000E+00  0.00000E+00  9.000E+00
      25     1     1     2     0     0 -1.073862690E+02 -3.666425740E+01 -2.399515923E+02  2.933902609E+02  1.250000000E+02  0.00000E+00  9.000E+00
      25     1     1     2     0     0  7.278012221E+01  1.672736704E+02  6.932345573E+01  2.317502288E+02  1.250000000E+02  0.00000E+00  9.000E+00
      21     1     1     2   511   501  3.460614677E+01 -1.306094130E+02 -1.887215635E+02  2.321039265E+02  0.000000000E+00  0.00000E+00  9.000E+00
#rwgt            2          11   2.0374599591372810E-003           9      303126           0
</event>
<event>
      5   9999  3.79277E-02  1.41367E+02 -1.00000E+00  1.17423E-01
      21    -1     0     0   502   501  0.000000000E+00  0.000000000E+00  6.092088277E+02  6.092088277E+02  0.000000000E+00  0.00000E+00  9.000E+00
      21    -1     0     0   501   512  0.000000000E+00  0.000000000E+00 -1.347800148E+03  1.347800148E+03  0.000000000E+00  0.00000E+00  9.000E+00
      25     1     1     2     0     0  2.044520485E+02 -3.587334392E+02  2.861140600E+02  5.176645399E+02  1.250000000E+02  0.00000E+00  9.000E+00
      25     1     1     2     0     0 -3.423373777E+02  3.275537503E+02 -9.522917390E+01  4.991792615E+02  1.250000000E+02  0.00000E+00  9.000E+00
      21     1     1     2   502   512  1.378853292E+02  3.117968885E+01 -9.294762068E+02  9.401651749E+02  1.078959322E-05  0.00000E+00  9.000E+00
#rwgt            2          11   8.0510472041739143E-003           9      303386           0
</event>
<event>
      5   9999  3.79277E-02  2.28596E+01 -1.00000E+00  1.61719E-01
      21    -1     0     0   511   501  0.000000000E+00  0.000000000E+00  2.594456803E+02  2.594456803E+02  0.000000000E+00  0.00000E+00  9.000E+00
      21    -1     0     0   501   502  0.000000000E+00  0.000000000E+00 -3.642956344E+02  3.642956344E+02  0.000000000E+00  0.00000E+00  9.000E+00
      25     1     1     2     0     0 -1.497822747E+02  7.094115513E+01 -2.267290950E+02  3.074060179E+02  1.250000000E+02  0.00000E+00  9.000E+00
      25     1     1     2     0     0  1.269253365E+02 -7.128875612E+01 -4.603302573E-01  1.918784503E+02  1.250000000E+02  0.00000E+00  9.000E+00
      21     1     1     2   511   502  2.285693820E+01  3.476009890E-01  1.223394712E+02  1.244568466E+02  1.907348633E-06  0.00000E+00  9.000E+00
#rwgt            1           1   3.7142897358782158E-002           9      303421           0
</event>
<event>
      5   9999  3.79277E-02  2.52997E+01 -1.00000E+00  1.58364E-01
       2    -1     0     0   502     0  0.000000000E+00  0.000000000E+00  7.195020264E+02  7.195020264E+02  0.000000000E+00  0.00000E+00  9.000E+00
      21    -1     0     0   501   502  0.000000000E+00  0.000000000E+00 -1.347139725E+02  1.347139725E+02  0.000000000E+00  0.00000E+00  9.000E+00
      25     1     1     2     0     0 -1.722563027E+02  1.616091459E+02  1.792084842E+02  3.217614500E+02  1.250000000E+02  0.00000E+00  9.000E+00
      25     1     1     2     0     0  1.954373148E+02 -1.717440255E+02  2.723756778E+02  3.968693289E+02  1.250000000E+02  0.00000E+00  9.000E+00
       2     1     1     2   501     0 -2.318101216E+01  1.013487959E+01  1.332038918E+02  1.355852201E+02  0.000000000E+00  0.00000E+00  9.000E+00
#rwgt            1           1   4.5304783898540056E-002           9      303642           0
</event>
<event>
      5   9999  3.79277E-02  4.63151E+01 -1.00000E+00  1.40999E-01
      21    -1     0     0   502   511  0.000000000E+00  0.000000000E+00  6.450091908E+02  6.450091908E+02  0.000000000E+00  0.00000E+00  9.000E+00
      21    -1     0     0   501   502  0.000000000E+00  0.000000000E+00 -1.205667321E+02  1.205667321E+02  0.000000000E+00  0.00000E+00  9.000E+00
      25     1     1     2     0     0  1.863935037E+02  1.267321832E+01  4.338629537E+02  4.886360724E+02  1.250000000E+02  0.00000E+00  9.000E+00
      25     1     1     2     0     0 -1.560680038E+02 -4.767970110E+01  4.197766989E+01  2.098039572E+02  1.250000000E+02  0.00000E+00  9.000E+00
      21     1     1     2   501   511 -3.032549991E+01  3.500648278E+01  4.860183518E+01  6.713589327E+01  0.000000000E+00  0.00000E+00  9.000E+00
#rwgt            1           1   3.5305103932203777E-002           9      303820           0
</event>
<event>
      5   9999  3.79277E-02  3.93000E+01 -1.00000E+00  1.45317E-01
      21    -1     0     0   502   501  0.000000000E+00  0.000000000E+00  1.179784697E+02  1.179784697E+02  0.000000000E+00  0.00000E+00  9.000E+00
      21    -1     0     0   512   502  0.000000000E+00  0.000000000E+00 -5.814660200E+02  5.814660200E+02  0.000000000E+00  0.00000E+00  9.000E+00
      25     1     1     2     0     0 -1.083819009E+02 -1.527207208E+02 -2.124346982E+02  3.095541245E+02  1.250000000E+02  0.00000E+00  9.000E+00
      25     1     1     2     0     0  1.015723182E+02  1.914262438E+02 -1.783224745E+02  3.072211705E+02  1.250000000E+02  0.00000E+00  9.000E+00
      21     1     1     2   512   501  6.809582670E+00 -3.870552299E+01 -7.273037758E+01  8.266919468E+01  9.536743164E-07  0.00000E+00  9.000E+00
#rwgt            1           1   3.3683065432462557E-002           9      303914           0
</event>
<event>
      5   9999  3.79277E-02  5.47491E+01 -1.00000E+00  1.36864E-01
      21    -1     0     0   511   501  0.000000000E+00  0.000000000E+00  4.289674298E+01  4.289674298E+01  0.000000000E+00  0.00000E+00  9.000E+00
      21    -1     0     0   501   502  0.000000000E+00  0.000000000E+00 -3.576872081E+03  3.576872081E+03  0.000000000E+00  0.00000E+00  9.000E+00
      25     1     1     2     0     0 -1.498928164E+02 -6.201088308E+01 -2.580545840E+03  2.588658927E+03  1.250000000E+02  0.00000E+00  9.000E+00
      25     1     1     2     0     0  1.917912523E+02  2.676910422E+01 -9.485408059E+02  9.761429864E+02  1.250000000E+02  0.00000E+00  9.000E+00
      21     1     1     2   511   502 -4.189843598E+01  3.524177886E+01 -4.888691354E+00  5.496691020E+01  1.377370359E-06  0.00000E+00  9.000E+00
#rwgt            1           1   1.5654276793762960E-002           9      304177           0
</event>
<event>
      5   9999  3.79277E-02  6.60773E+01 -1.00000E+00  1.32502E-01
      21    -1     0     0   502   512  0.000000000E+00  0.000000000E+00  4.488109882E+02  4.488109882E+02  0.000000000E+00  0.00000E+00  9.000E+00
      21    -1     0     0   501   502  0.000000000E+00  0.000000000E+00 -1.126129228E+02  1.126129228E+02  0.000000000E+00  0.00000E+00  9.000E+00
      25     1     1     2     0     0  1.294216505E+02  5.261754880E+01  6.454802391E+01  1.982675401E+02  1.250000000E+02  0.00000E+00  9.000E+00
      25     1     1     2     0     0 -1.216477387E+02  1.300082504E+01  1.944792987E+02  2.615614486E+02  1.250000000E+02  0.00000E+00  9.000E+00
      21     1     1     2   501   512 -7.773911805E+00 -6.561837383E+01  7.717074276E+01  1.015949222E+02  1.907348633E-06  0.00000E+00  9.000E+00
#rwgt            1           1   2.8822312179775777E-002           9      304299           0
</event>
<event>
      5   9999  3.79277E-02  1.85388E+01 -1.00000E+00  1.69134E-01
      21    -1     0     0   502   511  0.000000000E+00  0.000000000E+00  2.069200309E+01  2.069200309E+01  0.000000000E+00  0.00000E+00  9.000E+00
      21    -1     0     0   501   502  0.000000000E+00  0.000000000E+00 -2.098306563E+03  2.098306563E+03  0.000000000E+00  0.00000E+00  9.000E+00
      25     1     1     2     0     0  1.342243607E+02 -1.738437559E+01 -6.283799968E+02  6.548318989E+02  1.250000000E+02  0.00000E+00  9.000E+00
      25     1     1     2     0     0 -1.234865226E+02  3.249687133E+01 -1.403317136E+03  1.414647996E+03  1.250000000E+02  0.00000E+00  9.000E+00
      21     1     1     2   501   511 -1.073783814E+01 -1.511249575E+01 -4.591742741E+01  4.951867158E+01  9.536743164E-07  0.00000E+00  9.000E+00
#rwgt            1           1  0.11310878960556411                9      304377           0
</event>
<event>
      5   9999  3.79277E-02  7.16279E+00 -1.00000E+00  2.14152E-01
      21    -1     0     0   502   512  0.000000000E+00  0.000000000E+00  1.905424354E+02  1.905424354E+02  0.000000000E+00  0.00000E+00  9.000E+00
      21    -1     0     0   501   502  0.000000000E+00  0.000000000E+00 -4.343646515E+02  4.343646515E+02  0.000000000E+00  0.00000E+00  9.000E+00
      25     1     1     2     0     0 -7.001266972E+00  4.079110365E+01  1.411247649E+02  1.930132926E+02  1.250000000E+02  0.00000E+00  9.000E+00
      25     1     1     2     0     0  1.220459221E+01 -4.571360573E+01 -3.964330639E+02  4.183573353E+02  1.250000000E+02  0.00000E+00  9.000E+00
      21     1     1     2   501   512 -5.203325234E+00  4.922502080E+00  1.148608295E+01  1.353645898E+01  2.384185791E-07  0.00000E+00  9.000E+00
#rwgt            1           1   4.9159709497154105E-002           9      304682           0
</event>
<event>
      5   9999  3.79277E-02  1.79314E+01 -1.00000E+00  1.70379E-01
      21    -1     0     0   502   511  0.000000000E+00  0.000000000E+00  9.414922505E+01  9.414922505E+01  0.000000000E+00  0.00000E+00  9.000E+00
      21    -1     0     0   501   502  0.000000000E+00  0.000000000E+00 -7.475438964E+02  7.475438964E+02  0.000000000E+00  0.00000E+00  9.000E+00
      25     1     1     2     0     0 -6.383451883E+01 -1.689691459E+02 -5.103183709E+02  5.555855089E+02  1.250000000E+02  0.00000E+00  9.000E+00
      25     1     1     2     0     0  8.171895846E+01  1.676722444E+02 -1.461538758E+02  2.679140256E+02  1.250000000E+02  0.00000E+00  9.000E+00
      21     1     1     2   501   511 -1.788443963E+01  1.296901450E+00  3.077575352E+00  1.819358690E+01  3.424026159E-07  0.00000E+00  9.000E+00
#rwgt            1           1   3.2021377825724028E-002           9      304999           0
</event>
<event>
      5   9999  3.79277E-02  7.41756E+01 -1.00000E+00  1.29959E-01
      21    -1     0     0   502   501  0.000000000E+00  0.000000000E+00  2.613704749E+02  2.613704749E+02  0.000000000E+00  0.00000E+00  9.000E+00
      21    -1     0     0   512   502  0.000000000E+00  0.000000000E+00 -2.493395898E+02  2.493395898E+02  0.000000000E+00  0.00000E+00  9.000E+00
      25     1     1     2     0     0 -2.724557020E+01  8.767534453E+01  1.702772530E+02  2.303228821E+02  1.250000000E+02  0.00000E+00  9.000E+00
      25     1     1     2     0     0  8.429602025E+01 -4.026999579E+01 -9.343821466E+01  1.818878543E+02  1.250000000E+02  0.00000E+00  9.000E+00
      21     1     1     2   512   501 -5.705045004E+01 -4.740534874E+01 -6.480815320E+01  9.849932822E+01  0.000000000E+00  0.00000E+00  9.000E+00
#rwgt            1           1   4.2856622251128761E-002           9      305167           0
</event>
<event>
      5   9999 -3.79277E-02  3.60200E+01 -1.00000E+00  1.47721E-01
      21    -1     0     0   502   501  0.000000000E+00  0.000000000E+00  2.802597838E+02  2.802597838E+02  0.000000000E+00  0.00000E+00  9.000E+00
      21    -1     0     0   511   502  0.000000000E+00  0.000000000E+00 -2.603124522E+03  2.603124522E+03  0.000000000E+00  0.00000E+00  9.000E+00
      25     1     1     2     0     0  1.266396888E+02  1.634943244E+02  4.295928456E+01  2.454353377E+02  1.250000000E+02  0.00000E+00  9.000E+00
      25     1     1     2     0     0 -9.073167062E+01 -1.663328258E+02  4.116440956E+01  2.306910349E+02  1.250000000E+02  0.00000E+00  9.000E+00
      21     1     1     2   511   501 -3.590801820E+01  2.838501379E+00 -2.406988432E+03  2.407257933E+03  3.051757812E-05  0.00000E+00  9.000E+00
#rwgt            1           1 -0.13269856517456274                9      305246           0
</event>
<event>
      5   9999  3.79277E-02  7.36637E+00 -1.00000E+00  2.12469E-01
      21    -1     0     0   502   512  0.000000000E+00  0.000000000E+00  8.142266237E+01  8.142266237E+01  0.000000000E+00  0.00000E+00  9.000E+00
      21    -1     0     0   501   502  0.000000000E+00  0.000000000E+00 -1.270633153E+03  1.270633153E+03  0.000000000E+00  0.00000E+00  9.000E+00
      25     1     1     2     0     0  4.968604166E+00 -5.967174191E+01 -2.828137989E+02  3.149508670E+02  1.250000000E+02  0.00000E+00  9.000E+00
      25     1     1     2     0     0 -1.036334342E+01  6.468773018E+01 -9.664004213E+02  9.766507439E+02  1.250000000E+02  0.00000E+00  9.000E+00
      21     1     1     2   501   512  5.394739258E+00 -5.015988272E+00  6.000372922E+01  6.045420473E+01  3.371747881E-06  0.00000E+00  9.000E+00
#rwgt            1           1   4.1180511841111905E-002           9      305397           0
</event>
<event>
      5   9999  3.79277E-02  5.74092E+01 -1.00000E+00  1.35736E-01
      21    -1     0     0   511   501  0.000000000E+00  0.000000000E+00  3.143460460E+02  3.143460460E+02  0.000000000E+00  0.00000E+00  9.000E+00
      21    -1     0     0   501   502  0.000000000E+00  0.000000000E+00 -1.955008582E+02  1.955008582E+02  0.000000000E+00  0.00000E+00  9.000E+00
      25     1     1     2     0     0 -8.763539214E+01  5.678917737E+01  1.508434264E+02  2.219993512E+02  1.250000000E+02  0.00000E+00  9.000E+00
      25     1     1     2     0     0  1.205071784E+02 -9.722604223E+00 -9.860745184E+01  1.999123274E+02  1.250000000E+02  0.00000E+00  9.000E+00
      21     1     1     2   511   502 -3.287178628E+01 -4.706657314E+01  6.660921320E+01  8.793522572E+01  1.348699152E-06  0.00000E+00  9.000E+00
#rwgt            1           1   4.3052237514632372E-002           9      305659           0
</event>
<event>
      5   9999  3.79277E-02  2.36344E+01 -1.00000E+00  1.60600E-01
      21    -1     0     0   502   501  0.000000000E+00  0.000000000E+00  6.108541933E+02  6.108541933E+02  0.000000000E+00  0.00000E+00  9.000E+00
       2    -1     0     0   501     0  0.000000000E+00  0.000000000E+00 -4.685545399E+02  4.685545399E+02  0.000000000E+00  0.00000E+00  9.000E+00
      25     1     1     2     0     0 -6.014190168E+01  8.052539141E+01  5.270214067E+02  5.508883282E+02  1.250000000E+02  0.00000E+00  9.000E+00
      25     1     1     2     0     0  3.651205715E+01 -8.006342964E+01 -1.014969318E+01  1.532034574E+02  1.250000000E+02  0.00000E+00  9.000E+00
       2     1     1     2   502     0  2.362984453E+01 -4.619617787E-01 -3.745720602E+02  3.753169477E+02  7.629394531E-06  0.00000E+00  9.000E+00
#rwgt            1           1   4.0384402536158742E-002           9      305743           0
</event>
<event>
      5   9999  3.79277E-02  1.06720E+01 -1.00000E+00  1.92547E-01
      21    -1     0     0   511   501  0.000000000E+00  0.000000000E+00  2.216757971E+02  2.216757971E+02  0.000000000E+00  0.00000E+00  9.000E+00
      21    -1     0     0   501   502  0.000000000E+00  0.000000000E+00 -1.833957217E+02  1.833957217E+02  0.000000000E+00  0.00000E+00  9.000E+00
      25     1     1     2     0     0 -4.250847814E+01  8.986200371E+01 -9.096468155E+01  1.837980514E+02  1.250000000E+02  0.00000E+00  9.000E+00
      25     1     1     2     0     0  3.245349592E+01 -8.628573998E+01  8.767275311E+01  1.783534972E+02  1.250000000E+02  0.00000E+00  9.000E+00
      21     1     1     2   511   502  1.005498222E+01 -3.576263732E+00  4.157200383E+01  4.291997009E+01  4.768371582E-07  0.00000E+00  9.000E+00
#rwgt            1           1   4.3495331983178828E-002           9      305872           0
</event>
<event>
      5   9999  3.79277E-02  1.53772E+02 -1.00000E+00  1.15968E-01
      21    -1     0     0   502   501  0.000000000E+00  0.000000000E+00  4.764448728E+02  4.764448728E+02  0.000000000E+00  0.00000E+00  9.000E+00
      21    -1     0     0   512   502  0.000000000E+00  0.000000000E+00 -1.880360859E+02  1.880360859E+02  0.000000000E+00  0.00000E+00  9.000E+00
      25     1     1     2     0     0  1.656216351E+02  1.363249460E+01  1.472805011E+01  2.084665114E+02  1.250000000E+02  0.00000E+00  9.000E+00
      25     1     1     2     0     0 -2.179212224E+01 -6.802773069E+01  2.655025849E+02  3.020253157E+02  1.250000000E+02  0.00000E+00  9.000E+00
      21     1     1     2   512   501 -1.438295129E+02  5.439523609E+01  8.178151932E+00  1.539891316E+02  1.374788594E-06  0.00000E+00  9.000E+00
#rwgt            1           1   4.5529832657978761E-002           9      306164           0
</event>
<event>
      5   9999  3.79277E-02  1.74204E+02 -1.00000E+00  1.13876E-01
      21    -1     0     0   502   511  0.000000000E+00  0.000000000E+00  4.713949926E+01  4.713949926E+01  0.000000000E+00  0.00000E+00  9.000E+00
      21    -1     0     0   501   502  0.000000000E+00  0.000000000E+00 -3.249178442E+03  3.249178442E+03  0.000000000E+00  0.00000E+00  9.000E+00
      25     1     1     2     0     0 -1.773079100E+02  1.996247110E+02 -1.934008796E+03  1.956349443E+03  1.250000000E+02  0.00000E+00  9.000E+00
      25     1     1     2     0     0  2.246578790E+01 -1.198070742E+02 -1.031716164E+03  1.046385058E+03  1.250000000E+02  0.00000E+00  9.000E+00
      21     1     1     2   501   511  1.548421221E+02 -7.981763673E+01 -2.363139827E+02  2.935834402E+02  2.697398305E-06  0.00000E+00  9.000E+00
#rwgt            1           1   3.3879231171994886E-002           9      306216           0
</event>
<event>
      5   9999  3.79277E-02  8.69099E+01 -1.00000E+00  1.26632E-01
      21    -1     0     0   502   501  0.000000000E+00  0.000000000E+00  4.019331006E+01  4.019331006E+01  0.000000000E+00  0.00000E+00  9.000E+00
      21    -1     0     0   512   502  0.000000000E+00  0.000000000E+00 -1.462776295E+03  1.462776295E+03  0.000000000E+00  0.00000E+00  9.000E+00
      25     1     1     2     0     0  5.574522946E+01  4.575620358E+01 -2.421749784E+02  2.819128960E+02  1.250000000E+02  0.00000E+00  9.000E+00
      25     1     1     2     0     0 -1.425015789E+02 -5.091996668E+01 -5.358554863E+02  5.706712234E+02  1.250000000E+02  0.00000E+00  9.000E+00
      21     1     1     2   512   501  8.675634942E+01  5.163763107E+00 -6.445525204E+02  6.503854859E+02  7.629394531E-06  0.00000E+00  9.000E+00
#rwgt            1           1   5.5106990860424088E-002           9      306312           0
</event>
<event>
      5   9999  3.79277E-02  8.67804E+01 -1.00000E+00  1.26662E-01
      21    -1     0     0   502   501  0.000000000E+00  0.000000000E+00  6.442846821E+02  6.442846821E+02  0.000000000E+00  0.00000E+00  9.000E+00
      21    -1     0     0   501   511  0.000000000E+00  0.000000000E+00 -1.549077424E+02  1.549077424E+02  0.000000000E+00  0.00000E+00  9.000E+00
      25     1     1     2     0     0  7.254847413E+01  1.871377782E+02  1.849510523E+02  3.001928062E+02  1.250000000E+02  0.00000E+00  9.000E+00
      25     1     1     2     0     0 -5.307844001E+01 -2.717058719E+02  2.672746523E+02  4.046012128E+02  1.250000000E+02  0.00000E+00  9.000E+00
      21     1     1     2   502   511 -1.947003411E+01  8.456809364E+01  3.715123514E+01  9.439840551E+01  1.066240300E-06  0.00000E+00  9.000E+00
#rwgt            1           1   3.1084321620277553E-002           9      306552           0
</event>
<event>
      5   9999 -3.79277E-02  4.35266E+01 -1.00000E+00  1.42601E-01
      21    -1     0     0   502   501  0.000000000E+00  0.000000000E+00  1.579450879E+03  1.579450879E+03  0.000000000E+00  0.00000E+00  9.000E+00
      21    -1     0     0   512   502  0.000000000E+00  0.000000000E+00 -1.576489135E+02  1.576489135E+02  0.000000000E+00  0.00000E+00  9.000E+00
      25     1     1     2     0     0 -2.960306395E+02 -2.599707243E+01  5.513344218E+02  6.386741203E+02  1.250000000E+02  0.00000E+00  9.000E+00
      25     1     1     2     0     0  2.808217742E+02  6.678013525E+01  9.538434925E+02  1.004371875E+03  1.250000000E+02  0.00000E+00  9.000E+00
      21     1     1     2   512   501  1.520886529E+01 -4.078306281E+01 -8.337594912E+01  9.405379677E+01  3.814697266E-06  0.00000E+00  9.000E+00
#rwgt            1           1  -6.4319495211823688E-002           9      306631           0
</event>
<event>
      5   9999  3.79277E-02  7.33649E+01 -1.00000E+00  1.30196E-01
      21    -1     0     0   502   511  0.000000000E+00  0.000000000E+00  1.503466094E+03  1.503466094E+03  0.000000000E+00  0.00000E+00  9.000E+00
      21    -1     0     0   501   502  0.000000000E+00  0.000000000E+00 -2.208625716E+02  2.208625716E+02  0.000000000E+00  0.00000E+00  9.000E+00
      25     1     1     2     0     0  5.447226321E+01  1.780677632E+02  4.485473554E+01  2.287188297E+02  1.250000000E+02  0.00000E+00  9.000E+00
      25     1     1     2     0     0 -8.107696202E+01 -1.096967214E+02 -6.098143300E+01  1.948090851E+02  1.250000000E+02  0.00000E+00  9.000E+00
      21     1     1     2   501   511  2.660469881E+01 -6.837104186E+01  1.298730220E+03  1.300800751E+03  2.157918644E-05  0.00000E+00  9.000E+00
#rwgt            1           1   4.2157421274208448E-002           9      306824           0
</event>
<event>
      5   9999  3.79277E-02  3.10711E+01 -1.00000E+00  1.51989E-01
      -2    -1     0     0     0   501  0.000000000E+00  0.000000000E+00  8.958953810E+02  8.958953810E+02  0.000000000E+00  0.00000E+00  9.000E+00
      21    -1     0     0   501   502  0.000000000E+00  0.000000000E+00 -7.896231491E+01  7.896231491E+01  0.000000000E+00  0.00000E+00  9.000E+00
      25     1     1     2     0     0 -4.615941795E+01 -1.425915980E+02  1.590435633E+02  2.517596288E+02  1.250000000E+02  0.00000E+00  9.000E+00
      25     1     1     2     0     0  7.002914514E+01  1.624825823E+02  3.364497373E+02  4.001600885E+02  1.250000000E+02  0.00000E+00  9.000E+00
      -2     1     1     2     0   502 -2.386972719E+01 -1.989098437E+01  3.214397656E+02  3.229379786E+02  3.814697266E-06  0.00000E+00  9.000E+00
#rwgt            1           1   7.3866291509136900E-002           9      306974           0
</event>
<event>
      5   9999  3.79277E-02  2.92494E+01 -1.00000E+00  1.53808E-01
      21    -1     0     0   502   501  0.000000000E+00  0.000000000E+00  6.422828208E+02  6.422828208E+02  0.000000000E+00  0.00000E+00  9.000E+00
      21    -1     0     0   501   511  0.000000000E+00  0.000000000E+00 -8.335533282E+01  8.335533282E+01  0.000000000E+00  0.00000E+00  9.000E+00
      25     1     1     2     0     0  4.750438967E+01 -5.162584190E+01  4.463892629E+02  4.688392780E+02  1.250000000E+02  0.00000E+00  9.000E+00
      25     1     1     2     0     0 -5.872213612E+01  7.863856022E+01  1.435578558E+02  2.141638868E+02  1.250000000E+02  0.00000E+00  9.000E+00
      21     1     1     2   502   511  1.121774645E+01 -2.701271832E+01 -3.101963070E+01  4.263498886E+01  1.215700987E-06  0.00000E+00  9.000E+00
#rwgt            1           1   3.9877054782728953E-002           9      307191           0
</event>
<event>
      5   9999  3.79277E-02  1.71433E+02 -1.00000E+00  1.14140E-01
       2    -1     0     0   502     0  0.000000000E+00  0.000000000E+00  4.795262902E+02  4.795262902E+02  0.000000000E+00  0.00000E+00  9.000E+00
      21    -1     0     0   501   502  0.000000000E+00  0.000000000E+00 -3.941013864E+02  3.941013864E+02  0.000000000E+00  0.00000E+00  9.000E+00
      25     1     1     2     0     0  9.727826845E+01  1.553124493E+02  2.599714028E+02  3.417530522E+02  1.250000000E+02  0.00000E+00  9.000E+00
      25     1     1     2     0     0 -2.100735482E+02 -2.621301121E+01 -2.444869298E+02  3.467230544E+02  1.250000000E+02  0.00000E+00  9.000E+00
       2     1     1     2   501     0  1.127952798E+02 -1.290994381E+02  6.994043074E+01  1.851515701E+02  1.907348633E-06  0.00000E+00  9.000E+00
#rwgt            1           1   2.6590119313401484E-002           9      307428           0
</event>
<event>
      5   9999  3.79277E-02  1.58834E+01 -1.00000E+00  1.75074E-01
      21    -1     0     0   502   501  0.000000000E+00  0.000000000E+00  5.090612259E+01  5.090612259E+01  0.000000000E+00  0.00000E+00  9.000E+00
      21    -1     0     0   511   502  0.000000000E+00  0.000000000E+00 -2.311855507E+03  2.311855507E+03  0.000000000E+00  0.00000E+00  9.000E+00
      25     1     1     2     0     0  8.603933756E+01 -1.793213171E+02 -2.860204706E+02  3.701237793E+02  1.250000000E+02  0.00000E+00  9.000E+00
      25     1     1     2     0     0 -1.018627377E+02  1.807009318E+02 -1.689819198E+03  1.707086045E+03  1.250000000E+02  0.00000E+00  9.000E+00
      21     1     1     2   511   501  1.582340010E+01 -1.379614733E+00 -2.851097164E+02  2.855518057E+02  0.000000000E+00  0.00000E+00  9.000E+00
#rwgt            1           1   3.4284995475102033E-002           9      307564           0
</event>
<event>
      5   9999  3.79277E-02  2.89227E+01 -1.00000E+00  1.54151E-01
      21    -1     0     0   512   501  0.000000000E+00  0.000000000E+00  6.159921820E+02  6.159921820E+02  0.000000000E+00  0.00000E+00  9.000E+00
      21    -1     0     0   501   502  0.000000000E+00  0.000000000E+00 -8.064649064E+01  8.064649064E+01  0.000000000E+00  0.00000E+00  9.000E+00
      25     1     1     2     0     0  9.914482136E+01  1.033924370E-01  4.277698598E+02  4.565542238E+02  1.250000000E+02  0.00000E+00  9.000E+00
      25     1     1     2     0     0 -7.524864125E+01  1.619062170E+01  2.036574902E+01  1.482034344E+02  1.250000000E+02  0.00000E+00  9.000E+00
      21     1     1     2   512   502 -2.389618010E+01 -1.629401414E+01  8.721008254E+01  9.188101445E+01  1.651812370E-06  0.00000E+00  9.000E+00
#rwgt            1           1   4.9561993721286876E-002           9      307808           0
</event>
<event>
      5   9999  3.79277E-02  1.59354E+02 -1.00000E+00  1.15362E-01
       2    -1     0     0   502     0  0.000000000E+00  0.000000000E+00  1.986067804E+03  1.986067804E+03  0.000000000E+00  0.00000E+00  9.000E+00
      21    -1     0     0   501   502  0.000000000E+00  0.000000000E+00 -1.874481600E+02  1.874481600E+02  0.000000000E+00  0.00000E+00  9.000E+00
      25     1     1     2     0     0 -2.639500497E+02  2.851009470E+02  6.770896362E+02  7.905868417E+02  1.250000000E+02  0.00000E+00  9.000E+00
      25     1     1     2     0     0  4.167703127E+02 -3.302650621E+02  4.974296907E+02  7.388056591E+02  1.250000000E+02  0.00000E+00  9.000E+00
       2     1     1     2   501     0 -1.528202630E+02  4.516411505E+01  6.241003167E+02  6.441234628E+02  0.000000000E+00  0.00000E+00  9.000E+00
#rwgt            1           1  0.10193104796351661                9      308056           0
</event>
<event>
      5   9999  3.79277E-02  9.49804E+01 -1.00000E+00  1.24842E-01
      21    -1     0     0   502   501  0.000000000E+00  0.000000000E+00  1.646435330E+02  1.646435330E+02  0.000000000E+00  0.00000E+00  9.000E+00
      21    -1     0     0   511   502  0.000000000E+00  0.000000000E+00 -4.446988969E+02  4.446988969E+02  0.000000000E+00  0.00000E+00  9.000E+00
      25     1     1     2     0     0 -2.063282909E+02 -2.146830604E+01 -3.027946475E+01  2.440780567E+02  1.250000000E+02  0.00000E+00  9.000E+00
      25     1     1     2     0     0  1.161953053E+02 -8.486952918E+00 -1.726675567E+02  2.429248083E+02  1.250000000E+02  0.00000E+00  9.000E+00
      21     1     1     2   511   501  9.013298560E+01  2.995525896E+01 -7.710834243E+01  1.223395648E+02  1.907348633E-06  0.00000E+00  9.000E+00
#rwgt            1           1   3.8292541016410372E-002           9      308109           0
</event>
<event>
      5   9999  3.79277E-02  4.02924E+01 -1.00000E+00  1.44644E-01
      21    -1     0     0   502   501  0.000000000E+00  0.000000000E+00  8.973939845E+01  8.973939845E+01  0.000000000E+00  0.00000E+00  9.000E+00
      21    -1     0     0   512   502  0.000000000E+00  0.000000000E+00 -1.631951192E+03  1.631951192E+03  0.000000000E+00  0.00000E+00  9.000E+00
      25     1     1     2     0     0  2.135179183E+01  1.683304758E+02 -6.934050128E+02  7.247251616E+02  1.250000000E+02  0.00000E+00  9.000E+00
      25     1     1     2     0     0 -6.130680565E+01 -1.631275503E+02 -8.278671097E+01  2.298864102E+02  1.250000000E+02  0.00000E+00  9.000E+00
      21     1     1     2   512   501  3.995501381E+01 -5.202925476E+00 -7.660200696E+02  7.670790185E+02  1.525878906E-05  0.00000E+00  9.000E+00
#rwgt            1           1   4.1024763148219331E-002           9      308159           0
</event>
<event>
      5   9999  3.79277E-02  6.95497E+01 -1.00000E+00  1.31363E-01
      21    -1     0     0   502   501  0.000000000E+00  0.000000000E+00  1.958740891E+01  1.958740891E+01  0.000000000E+00  0.00000E+00  9.000E+00
      21    -1     0     0   511   502  0.000000000E+00  0.000000000E+00 -2.362011990E+03  2.362011990E+03  0.000000000E+00  0.00000E+00  9.000E+00
      25     1     1     2     0     0  2.198844640E+01 -1.405716147E+02 -1.293814137E+03  1.307602345E+03  1.250000000E+02  0.00000E+00  9.000E+00
      25     1     1     2     0     0  1.971623713E+01  8.491300400E+01 -5.562161931E+02  5.767151825E+02  1.250000000E+02  0.00000E+00  9.000E+00
      21     1     1     2   511   501 -4.170468353E+01  5.565861069E+01 -4.923942506E+02  4.972818714E+02  7.629394531E-06  0.00000E+00  9.000E+00
#rwgt            1           1  0.14672057650698708                9      308351           0
</event>
<event>
      5   9999  3.79277E-02  1.39513E+02 -1.00000E+00  1.17655E-01
      21    -1     0     0   512   501  0.000000000E+00  0.000000000E+00  2.935997621E+03  2.935997621E+03  0.000000000E+00  0.00000E+00  9.000E+00
      21    -1     0     0   501   502  0.000000000E+00  0.000000000E+00 -1.023512193E+03  1.023512193E+03  0.000000000E+00  0.00000E+00  9.000E+00
      25     1     1     2     0     0 -1.939132011E+02 -6.565752577E+01 -8.042995429E+02  8.393068539E+02  1.250000000E+02  0.00000E+00  9.000E+00
      25     1     1     2     0     0  7.463705259E+01 -6.709214579E+00 -1.734790404E+02  2.265737863E+02  1.250000000E+02  0.00000E+00  9.000E+00
      21     1     1     2   512   502  1.192761485E+02  7.236674035E+01  2.890264011E+03  2.893629174E+03  3.051757812E-05  0.00000E+00  9.000E+00
#rwgt            1           1   5.0323986335942150E-002           9      308473           0
</event>
<event>
      5   9999  3.79277E-02  6.85234E+01 -1.00000E+00  1.31691E-01
      21    -1     0     0   502   511  0.000000000E+00  0.000000000E+00  9.500554743E+02  9.500554743E+02  0.000000000E+00  0.00000E+00  9.000E+00
      21    -1     0     0   501   502  0.000000000E+00  0.000000000E+00 -1.102814725E+02  1.102814725E+02  0.000000000E+00  0.00000E+00  9.000E+00
      25     1     1     2     0     0 -9.179622230E+01  2.135812134E+01 -3.308590747E+01  1.600074781E+02  1.250000000E+02  0.00000E+00  9.000E+00
      25     1     1     2     0     0  3.154165757E+01  1.127377648E+01  7.358146899E+02  7.471079120E+02  1.250000000E+02  0.00000E+00  9.000E+00
      21     1     1     2   501   511  6.025456473E+01 -3.263189782E+01  1.370452193E+02  1.532215568E+02  1.907348633E-06  0.00000E+00  9.000E+00
#rwgt            1           1   2.4718190986115947E-002           9      308844           0
</event>
<event>
      5   9999  3.79277E-02  5.77453E+01 -1.00000E+00  1.35598E-01
      21    -1     0     0   502   501  0.000000000E+00  0.000000000E+00  1.421160288E+02  1.421160288E+02  0.000000000E+00  0.00000E+00  9.000E+00
      21    -1     0     0   512   502  0.000000000E+00  0.000000000E+00 -6.271199230E+02  6.271199230E+02  0.000000000E+00  0.00000E+00  9.000E+00
      25     1     1     2     0     0 -1.852813013E+02 -1.088349204E+02 -1.007348401E+02  2.682288361E+02  1.250000000E+02  0.00000E+00  9.000E+00
      25     1     1     2     0     0  1.294284244E+02  1.234969668E+02 -1.631747732E+02  2.724962834E+02  1.250000000E+02  0.00000E+00  9.000E+00
      21     1     1     2   512   501  5.585287681E+01 -1.466204639E+01 -2.210942809E+02  2.285108324E+02  0.000000000E+00  0.00000E+00  9.000E+00
#rwgt            1           1   4.1786280193460000E-002           9      308960           0
</event>
<event>
      5   9999  3.79277E-02  7.97410E+01 -1.00000E+00  1.28418E-01
      21    -1     0     0   511   501  0.000000000E+00  0.000000000E+00  5.708061584E+02  5.708061584E+02  0.000000000E+00  0.00000E+00  9.000E+00
      21    -1     0     0   501   502  0.000000000E+00  0.000000000E+00 -1.108058454E+02  1.108058454E+02  0.000000000E+00  0.00000E+00  9.000E+00
      25     1     1     2     0     0 -3.290828029E+00 -9.819657272E+01  3.815439000E+01  1.635058223E+02  1.250000000E+02  0.00000E+00  9.000E+00
      25     1     1     2     0     0  1.423397775E+01  1.771830872E+02  3.424587531E+02  4.055853179E+02  1.250000000E+02  0.00000E+00  9.000E+00
      21     1     1     2   511   502 -1.094314973E+01 -7.898651450E+01  7.938716990E+01  1.125208636E+02  1.348699152E-06  0.00000E+00  9.000E+00
#rwgt            1           1   3.8350472125301710E-002           9      309035           0
</event>
<event>
      5   9999  3.79277E-02  1.65907E+01 -1.00000E+00  1.73357E-01
      21    -1     0     0   502   512  0.000000000E+00  0.000000000E+00  1.995203523E+02  1.995203523E+02  0.000000000E+00  0.00000E+00  9.000E+00
      21    -1     0     0   501   502  0.000000000E+00  0.000000000E+00 -2.211144877E+02  2.211144877E+02  0.000000000E+00  0.00000E+00  9.000E+00
      25     1     1     2     0     0 -1.119532391E+02  3.368114073E+01  1.026966699E+02  1.995984794E+02  1.250000000E+02  0.00000E+00  9.000E+00
      25     1     1     2     0     0  9.545759589E+01 -3.190766094E+01 -1.264368471E+02  2.043074344E+02  1.250000000E+02  0.00000E+00  9.000E+00
      21     1     1     2   501   512  1.649564323E+01 -1.773479790E+00  2.146041869E+00  1.672892620E+01  3.793216366E-07  0.00000E+00  9.000E+00
#rwgt            1           1   3.3746182012968369E-002           9      309141           0
</event>
<event>
      5   9999  3.79277E-02  6.62464E+01 -1.00000E+00  1.32444E-01
      21    -1     0     0   502   501  0.000000000E+00  0.000000000E+00  1.570507592E+02  1.570507592E+02  0.000000000E+00  0.00000E+00  9.000E+00
      21    -1     0     0   511   502  0.000000000E+00  0.000000000E+00 -5.313791132E+02  5.313791132E+02  0.000000000E+00  0.00000E+00  9.000E+00
      25     1     1     2     0     0 -1.852068476E+02 -3.295141554E+01 -1.800577269E+02  2.888479828E+02  1.250000000E+02  0.00000E+00  9.000E+00
      25     1     1     2     0     0  2.445851249E+02  6.232497240E+01 -1.434286963E+02  3.160744793E+02  1.250000000E+02  0.00000E+00  9.000E+00
      21     1     1     2   511   501 -5.937827734E+01 -2.937355685E+01 -5.084193078E+01  8.350741037E+01  9.536743164E-07  0.00000E+00  9.000E+00
#rwgt            1           1   7.2480476978906472E-002           9      309323           0
</event>
<event>
      5   9999  3.79277E-02  1.60997E+02 -1.00000E+00  1.15189E-01
      21    -1     0     0   502   512  0.000000000E+00  0.000000000E+00  1.267684007E+03  1.267684007E+03  0.000000000E+00  0.00000E+00  9.000E+00
      21    -1     0     0   501   502  0.000000000E+00  0.000000000E+00 -3.193752211E+02  3.193752211E+02  0.000000000E+00  0.00000E+00  9.000E+00
      25     1     1     2     0     0 -3.383026081E+01  1.667396189E+02 -1.746897552E+02  2.740220751E+02  1.250000000E+02  0.00000E+00  9.000E+00
      25     1     1     2     0     0 -1.271617316E+02 -1.654659371E+02  7.763026238E+01  2.553439640E+02  1.250000000E+02  0.00000E+00  9.000E+00
      21     1     1     2   501   512  1.609919924E+02 -1.273681814E+00  1.045368279E+03  1.057693189E+03  2.157918644E-05  0.00000E+00  9.000E+00
#rwgt            2          11   2.6136114218956400E-003           9      309547           0
</event>
<event>
      5   9999  3.79277E-02  5.12882E+01 -1.00000E+00  1.38448E-01
      21    -1     0     0   502   501  0.000000000E+00  0.000000000E+00  6.074611649E+02  6.074611649E+02  0.000000000E+00  0.00000E+00  9.000E+00
      21    -1     0     0   501   511  0.000000000E+00  0.000000000E+00 -4.707395585E+02  4.707395585E+02  0.000000000E+00  0.00000E+00  9.000E+00
      25     1     1     2     0     0 -9.488671105E+01  6.824950731E+01  5.106387034E+02  5.385521038E+02  1.250000000E+02  0.00000E+00  9.000E+00
      25     1     1     2     0     0  8.999099261E+01 -1.719550607E+01  7.149858905E+00  1.551456885E+02  1.250000000E+02  0.00000E+00  9.000E+00
      21     1     1     2   502   511  4.895718437E+00 -5.105400124E+01 -3.810669559E+02  3.845029311E+02  5.394796609E-06  0.00000E+00  9.000E+00
#rwgt            2          11   6.9336972555204277E-003           9      309582           0
</event>
<event>
      5   9999  3.79277E-02  4.04123E+01 -1.00000E+00  1.44565E-01
      21    -1     0     0   502   501  0.000000000E+00  0.000000000E+00  2.778215723E+02  2.778215723E+02  0.000000000E+00  0.00000E+00  9.000E+00
      21    -1     0     0   512   502  0.000000000E+00  0.000000000E+00 -5.822538318E+02  5.822538318E+02  0.000000000E+00  0.00000E+00  9.000E+00
      25     1     1     2     0     0  5.900782913E+00  1.455257611E+02  1.891536197E+02  2.694747821E+02  1.250000000E+02  0.00000E+00  9.000E+00
      25     1     1     2     0     0 -4.458797624E+01 -1.572070035E+02 -1.768552009E+02  2.713022146E+02  1.250000000E+02  0.00000E+00  9.000E+00
      21     1     1     2   512   501  3.868719332E+01  1.168124245E+01 -3.167306783E+02  3.192984074E+02  3.814697266E-06  0.00000E+00  9.000E+00
#rwgt            1           1   2.4756874788190771E-002           9      309782           0
</event>
<event>
      5   9999  3.79277E-02  8.37406E+00 -1.00000E+00  2.05109E-01
      21    -1     0     0   502   501  0.000000000E+00  0.000000000E+00  2.958820058E+02  2.958820058E+02  0.000000000E+00  0.00000E+00  9.000E+00
      21    -1     0     0   501   511  0.000000000E+00  0.000000000E+00 -2.147112880E+02  2.147112880E+02  0.000000000E+00  0.00000E+00  9.000E+00
      25     1     1     2     0     0 -2.361856617E+01 -1.723936767E+02 -1.507041515E+01  2.147778710E+02  1.250000000E+02  0.00000E+00  9.000E+00
      25     1     1     2     0     0  2.624137784E+01  1.644409607E+02  1.402306067E+02  2.510359785E+02  1.250000000E+02  0.00000E+00  9.000E+00
      21     1     1     2   502   511 -2.622811674E+00  7.952716081E+00 -4.398947378E+01  4.477944436E+01  0.000000000E+00  0.00000E+00  9.000E+00
#rwgt            1           1   4.1605140278665798E-002           9      309939           0
</event>
<event>
      5   9999  3.79277E-02  2.87118E+01 -1.00000E+00  1.54376E-01
      21    -1     0     0   512   501  0.000000000E+00  0.000000000E+00  5.367418744E+01  5.367418744E+01  0.000000000E+00  0.00000E+00  9.000E+00
      21    -1     0     0   501   502  0.000000000E+00  0.000000000E+00 -2.528646028E+03  2.528646028E+03  0.000000000E+00  0.00000E+00  9.000E+00
      25     1     1     2     0     0  1.713818355E+02 -2.722374386E+02 -1.365192838E+03  1.408141130E+03  1.250000000E+02  0.00000E+00  9.000E+00
      25     1     1     2     0     0 -1.823691613E+02  2.457111253E+02 -1.090750405E+03  1.139734142E+03  1.250000000E+02  0.00000E+00  9.000E+00
      21     1     1     2   512   502  1.098732583E+01  2.652631326E+01 -1.902859746E+01  3.444494368E+01  8.259061849E-07  0.00000E+00  9.000E+00
#rwgt            1           1   9.4659841919243898E-002           9      310431           0
</event>
<event>
      5   9999  3.79277E-02  1.05219E+02 -1.00000E+00  1.22842E-01
      21    -1     0     0   511   501  0.000000000E+00  0.000000000E+00  4.761709009E+02  4.761709009E+02  0.000000000E+00  0.00000E+00  9.000E+00
      21    -1     0     0   501   502  0.000000000E+00  0.000000000E+00 -5.421290498E+02  5.421290498E+02  0.000000000E+00  0.00000E+00  9.000E+00
      25     1     1     2     0     0 -1.305389223E+02 -1.443619029E+02 -3.423880051E+02  4.132013011E+02  1.250000000E+02  0.00000E+00  9.000E+00
      25     1     1     2     0     0  2.225650821E+02  9.334889921E+01 -3.716054719E+01  2.743267013E+02  1.250000000E+02  0.00000E+00  9.000E+00
      21     1     1     2   511   502 -9.202615981E+01  5.101300365E+01  3.135904034E+02  3.307719482E+02  5.394796609E-06  0.00000E+00  9.000E+00
#rwgt            1           1   3.6014468359886156E-002           9      310726           0
</event>
<event>
      5   9999  3.79277E-02  1.14141E+02 -1.00000E+00  1.21298E-01
      21    -1     0     0   502   501  0.000000000E+00  0.000000000E+00  8.185384437E+02  8.185384437E+02  0.000000000E+00  0.00000E+00  9.000E+00
      -2    -1     0     0     0   502  0.000000000E+00  0.000000000E+00 -5.511296599E+02  5.511296599E+02  0.000000000E+00  0.00000E+00  9.000E+00
      25     1     1     2     0     0 -1.462316951E+02  4.373663174E+01  4.945085539E+02  5.324099093E+02  1.250000000E+02  0.00000E+00  9.000E+00
      25     1     1     2     0     0  9.735849165E+01 -1.468851975E+02  2.593756634E+02  3.375717286E+02  1.250000000E+02  0.00000E+00  9.000E+00
      -2     1     1     2     0   501  4.887320350E+01  1.031485658E+02 -4.864754335E+02  4.996864658E+02  7.629394531E-06  0.00000E+00  9.000E+00
#rwgt            2           9   4.8031866071234565E-004           9      310846           0
</event>
<event>
      5   9999  3.79277E-02  2.37749E+02 -1.00000E+00  1.08981E-01
      21    -1     0     0   502   501  0.000000000E+00  0.000000000E+00  1.128725083E+03  1.128725083E+03  0.000000000E+00  0.00000E+00  9.000E+00
      21    -1     0     0   501   511  0.000000000E+00  0.000000000E+00 -1.380693243E+02  1.380693243E+02  0.000000000E+00  0.00000E+00  9.000E+00
      25     1     1     2     0     0  8.658030590E+01  1.933579389E+02  6.696268903E+02  7.133783106E+02  1.250000000E+02  0.00000E+00  9.000E+00
      25     1     1     2     0     0 -1.578412399E+02  3.346038089E+01  2.034377421E+02  2.881759341E+02  1.250000000E+02  0.00000E+00  9.000E+00
      21     1     1     2   502   511  7.126093395E+01 -2.268183198E+02  1.175911267E+02  2.652401629E+02  5.394796609E-06  0.00000E+00  9.000E+00
#rwgt            1           1   4.1544414482748052E-002           9      310865           0
</event>
<event>
      5   9999  3.79277E-02  6.45908E+01 -1.00000E+00  1.33014E-01
      21    -1     0     0   502   501  0.000000000E+00  0.000000000E+00  5.122442858E+02  5.122442858E+02  0.000000000E+00  0.00000E+00  9.000E+00
      21    -1     0     0   512   502  0.000000000E+00  0.000000000E+00 -5.786501233E+02  5.786501233E+02  0.000000000E+00  0.00000E+00  9.000E+00
      25     1     1     2     0     0 -9.121789428E+01 -1.129789525E+02  3.918307838E+02  4.361666093E+02  1.250000000E+02  0.00000E+00  9.000E+00
      25     1     1     2     0     0  6.882405706E+01  1.735634924E+02 -3.597259364E+01  2.275523329E+02  1.250000000E+02  0.00000E+00  9.000E+00
      21     1     1     2   512   501  2.239383722E+01 -6.058453990E+01 -4.222640277E+02  4.271754669E+02  0.000000000E+00  0.00000E+00  9.000E+00
#rwgt            1           1   2.8645327533553470E-002           9      310905           0
</event>
<event>
      5   9999 -3.79277E-02  2.90691E+01 -1.00000E+00  1.53997E-01
      21    -1     0     0   502   501  0.000000000E+00  0.000000000E+00  3.724006968E+01  3.724006968E+01  0.000000000E+00  0.00000E+00  9.000E+00
      21    -1     0     0   511   502  0.000000000E+00  0.000000000E+00 -1.383530972E+03  1.383530972E+03  0.000000000E+00  0.00000E+00  9.000E+00
      25     1     1     2     0     0  1.249035158E+02 -1.120094821E+02 -6.042745596E+02  6.394683383E+02  1.250000000E+02  0.00000E+00  9.000E+00
      25     1     1     2     0     0 -1.039483607E+02  1.321562801E+02 -5.795860883E+02  6.162917960E+02  1.250000000E+02  0.00000E+00  9.000E+00
      21     1     1     2   511   501 -2.095515501E+01 -2.014679802E+01 -1.624302542E+02  1.650109071E+02  0.000000000E+00  0.00000E+00  9.000E+00
#rwgt            1           1 -0.16929860216760281                9      310995           0
</event>
<event>
      5   9999  3.79277E-02  5.01939E+01 -1.00000E+00  1.38980E-01
      21    -1     0     0   502   501  0.000000000E+00  0.000000000E+00  1.896111130E+02  1.896111130E+02  0.000000000E+00  0.00000E+00  9.000E+00
      21    -1     0     0   512   502  0.000000000E+00  0.000000000E+00 -2.426081960E+02  2.426081960E+02  0.000000000E+00  0.00000E+00  9.000E+00
      25     1     1     2     0     0 -9.384374626E+01  4.255472365E+01  8.681850069E+01  1.837933766E+02  1.250000000E+02  0.00000E+00  9.000E+00
      25     1     1     2     0     0  5.234011678E+01 -7.078364396E+01 -1.204123029E+02  1.946122677E+02  1.250000000E+02  0.00000E+00  9.000E+00
      21     1     1     2   512   501  4.150362948E+01  2.822892031E+01 -1.940328082E+01  5.381366470E+01  2.384185791E-07  0.00000E+00  9.000E+00
#rwgt            1           1   4.0716745534154587E-002           9      311139           0
</event>
<event>
      5   9999  3.79277E-02  1.90463E+01 -1.00000E+00  1.68139E-01
      21    -1     0     0   502   501  0.000000000E+00  0.000000000E+00  1.206696587E+02  1.206696587E+02  0.000000000E+00  0.00000E+00  9.000E+00
       1    -1     0     0   501     0  0.000000000E+00  0.000000000E+00 -7.790682208E+02  7.790682208E+02  0.000000000E+00  0.00000E+00  9.000E+00
      25     1     1     2     0     0 -9.795834208E+01 -8.259515568E+01 -3.829639517E+02  4.227341775E+02  1.250000000E+02  0.00000E+00  9.000E+00
      25     1     1     2     0     0  7.994893572E+01  8.879365921E+01  2.609132603E+01  1.748768239E+02  1.250000000E+02  0.00000E+00  9.000E+00
       1     1     1     2   502     0  1.800940636E+01 -6.198503539E+00 -3.015259364E+02  3.021268781E+02  3.814697266E-06  0.00000E+00  9.000E+00
#rwgt            1           1   5.0846503807965661E-002           9      311277           0
</event>
<event>
      5   9999  3.79277E-02  1.36031E+01 -1.00000E+00  1.81479E-01
      21    -1     0     0   511   501  0.000000000E+00  0.000000000E+00  4.165557512E+02  4.165557512E+02  0.000000000E+00  0.00000E+00  9.000E+00
      21    -1     0     0   501   502  0.000000000E+00  0.000000000E+00 -3.924916360E+02  3.924916360E+02  0.000000000E+00  0.00000E+00  9.000E+00
      25     1     1     2     0     0 -3.811519632E+01 -8.845753531E+01  3.731032847E+02  4.051031533E+02  1.250000000E+02  0.00000E+00  9.000E+00
      25     1     1     2     0     0  3.360062874E+01  1.012896396E+02 -3.533248704E+02  3.896819952E+02  1.250000000E+02  0.00000E+00  9.000E+00
      21     1     1     2   511   502  4.514567578E+00 -1.283210430E+01  4.285700930E+00  1.426223873E+01  5.960464478E-08  0.00000E+00  9.000E+00
#rwgt            1           1   5.2890069312449682E-002           9      311453           0
</event>
<event>
      5   9999  3.79277E-02  7.08677E+01 -1.00000E+00  1.30950E-01
      21    -1     0     0   502   512  0.000000000E+00  0.000000000E+00  2.103978892E+02  2.103978892E+02  0.000000000E+00  0.00000E+00  9.000E+00
      21    -1     0     0   501   502  0.000000000E+00  0.000000000E+00 -9.693438919E+02  9.693438919E+02  0.000000000E+00  0.00000E+00  9.000E+00
      25     1     1     2     0     0 -1.306751119E+02 -2.285528137E+02 -3.373128280E+02  4.457772060E+02  1.250000000E+02  0.00000E+00  9.000E+00
      25     1     1     2     0     0  1.828856956E+02  2.764724180E+02 -5.098229335E+02  6.208289613E+02  1.250000000E+02  0.00000E+00  9.000E+00
      21     1     1     2   501   512 -5.221058376E+01 -4.791960438E+01  8.818975887E+01  1.131356138E+02  2.523185073E-06  0.00000E+00  9.000E+00
#rwgt            1           1   2.8913096129958810E-002           9      311749           0
</event>
<event>
      5   9999  3.79277E-02  8.51435E+01 -1.00000E+00  1.27053E-01
      21    -1     0     0   502   501  0.000000000E+00  0.000000000E+00  3.503350291E+02  3.503350291E+02  0.000000000E+00  0.00000E+00  9.000E+00
      21    -1     0     0   511   502  0.000000000E+00  0.000000000E+00 -8.995938062E+02  8.995938062E+02  0.000000000E+00  0.00000E+00  9.000E+00
      25     1     1     2     0     0 -1.165801521E+02 -2.463952310E+02  7.947807697E+00  2.999828484E+02  1.250000000E+02  0.00000E+00  9.000E+00
      25     1     1     2     0     0  3.153487955E+01  2.504830129E+02  9.109790892E+01  2.960743444E+02  1.250000000E+02  0.00000E+00  9.000E+00
      21     1     1     2   511   501  8.504527253E+01 -4.087781953E+00 -6.483044937E+02  6.538716425E+02  1.078959322E-05  0.00000E+00  9.000E+00
#rwgt            1           1   3.1951628854525377E-002           9      311926           0
</event>
<event>
      5   9999  3.79277E-02  7.64714E+01 -1.00000E+00  1.29305E-01
      21    -1     0     0   502   512  0.000000000E+00  0.000000000E+00  2.077772806E+02  2.077772806E+02  0.000000000E+00  0.00000E+00  9.000E+00
      21    -1     0     0   501   502  0.000000000E+00  0.000000000E+00 -8.844400591E+02  8.844400591E+02  0.000000000E+00  0.00000E+00  9.000E+00
      25     1     1     2     0     0 -3.679858085E+02  9.130363681E+01 -2.353911929E+02  4.634478645E+02  1.250000000E+02  0.00000E+00  9.000E+00
      25     1     1     2     0     0  3.227657245E+02 -2.963497157E+01 -4.278601907E+02  5.511309166E+02  1.250000000E+02  0.00000E+00  9.000E+00
      21     1     1     2   501   512  4.522008400E+01 -6.166866524E+01 -1.341139494E+01  7.763855861E+01  8.920806376E-07  0.00000E+00  9.000E+00
#rwgt            1           1   2.8152872373651043E-002           9      312225           0
</event>
<event>
      5   9999  3.79277E-02  5.62206E+01 -1.00000E+00  1.36231E-01
      21    -1     0     0   502   501  0.000000000E+00  0.000000000E+00  6.712593671E+02  6.712593671E+02  0.000000000E+00  0.00000E+00  9.000E+00
      21    -1     0     0   501   511  0.000000000E+00  0.000000000E+00 -1.128242639E+02  1.128242639E+02  0.000000000E+00  0.00000E+00  9.000E+00
      25     1     1     2     0     0 -8.713656626E+01 -1.533955751E+02  3.084272631E+02  3.766634575E+02  1.250000000E+02  0.00000E+00  9.000E+00
      25     1     1     2     0     0  1.164401953E+02  2.013752758E+02  2.199065110E+02  3.436483586E+02  1.250000000E+02  0.00000E+00  9.000E+00
      21     1     1     2   502   511 -2.930362908E+01 -4.797970072E+01  3.010132916E+01  6.377181490E+01  8.259061849E-07  0.00000E+00  9.000E+00
#rwgt            1           1   3.1019222129683711E-002           9      312319           0
</event>
<event>
      5   9999  3.79277E-02  5.13022E+01 -1.00000E+00  1.38441E-01
      21    -1     0     0   512   501  0.000000000E+00  0.000000000E+00  1.327237737E+02  1.327237737E+02  0.000000000E+00  0.00000E+00  9.000E+00
      21    -1     0     0   501   502  0.000000000E+00  0.000000000E+00 -1.007478121E+03  1.007478121E+03  0.000000000E+00  0.00000E+00  9.000E+00
      25     1     1     2     0     0 -2.727885998E+02 -7.031372257E+01 -7.171362954E+02  7.805556392E+02  1.250000000E+02  0.00000E+00  9.000E+00
      25     1     1     2     0     0  2.238788931E+02  8.579776833E+01 -1.450173693E+02  3.068192517E+02  1.250000000E+02  0.00000E+00  9.000E+00
      21     1     1     2   512   502  4.890970673E+01 -1.548404576E+01 -1.260068217E+01  5.282700329E+01  4.129530925E-07  0.00000E+00  9.000E+00
#rwgt            1           1   3.9810836643789940E-002           9      312522           0
</event>
<event>
      5   9999  3.79277E-02  1.35845E+02 -1.00000E+00  1.18126E-01
      21    -1     0     0   502   501  0.000000000E+00  0.000000000E+00  1.417252304E+03  1.417252304E+03  0.000000000E+00  0.00000E+00  9.000E+00
      21    -1     0     0   511   502  0.000000000E+00  0.000000000E+00 -1.196830020E+02  1.196830020E+02  0.000000000E+00  0.00000E+00  9.000E+00
      25     1     1     2     0     0  1.829977026E+02 -6.822561253E+01  8.388536968E+02  8.703122531E+02  1.250000000E+02  0.00000E+00  9.000E+00
      25     1     1     2     0     0 -2.023290992E+02  2.026882911E+02  4.234686418E+02  5.262796769E+02  1.250000000E+02  0.00000E+00  9.000E+00
      21     1     1     2   511   501  1.933139661E+01 -1.344626785E+02  3.524696381E+01  1.403433763E+02  2.977847099E-06  0.00000E+00  9.000E+00
#rwgt            2          11   2.7135575194484523E-003           9      312822           0
</event>
<event>
      5   9999  3.79277E-02  1.92719E+01 -1.00000E+00  1.67709E-01
      21    -1     0     0   502   512  0.000000000E+00  0.000000000E+00  6.877771724E+01  6.877771724E+01  0.000000000E+00  0.00000E+00  9.000E+00
      21    -1     0     0   501   502  0.000000000E+00  0.000000000E+00 -4.944197571E+02  4.944197571E+02  0.000000000E+00  0.00000E+00  9.000E+00
      25     1     1     2     0     0  1.205251392E+02  1.700671461E+01 -1.779157409E+02  2.491877773E+02  1.250000000E+02  0.00000E+00  9.000E+00
      25     1     1     2     0     0 -1.199425813E+02  2.256366362E+00 -2.288417633E+02  2.870276409E+02  1.250000000E+02  0.00000E+00  9.000E+00
      21     1     1     2   501   512 -5.825578860E-01 -1.926308098E+01 -1.888453570E+01  2.698205609E+01  2.384185791E-07  0.00000E+00  9.000E+00
#rwgt            1           1   2.5661331289027808E-002           9      312842           0
</event>
<event>
      5   9999  3.79277E-02  1.16751E+01 -1.00000E+00  1.88290E-01
      21    -1     0     0   502   511  0.000000000E+00  0.000000000E+00  1.440621817E+03  1.440621817E+03  0.000000000E+00  0.00000E+00  9.000E+00
      21    -1     0     0   501   502  0.000000000E+00  0.000000000E+00 -8.916296099E+01  8.916296099E+01  0.000000000E+00  0.00000E+00  9.000E+00
      25     1     1     2     0     0 -2.405235894E+01  3.836859637E+01 -1.758414534E+01  1.341076706E+02  1.250000000E+02  0.00000E+00  9.000E+00
      25     1     1     2     0     0  2.534613519E+01 -2.676539709E+01  3.063203589E+02  3.328903352E+02  1.250000000E+02  0.00000E+00  9.000E+00
      21     1     1     2   501   511 -1.293776250E+00 -1.160319928E+01  1.062722643E+03  1.062786773E+03  1.525878906E-05  0.00000E+00  9.000E+00
#rwgt            1           1   6.0627567816002335E-002           9      313009           0
</event>
<event>
      5   9999  3.79277E-02  4.81424E+01 -1.00000E+00  1.40020E-01
      21    -1     0     0   502   512  0.000000000E+00  0.000000000E+00  9.027102727E+02  9.027102727E+02  0.000000000E+00  0.00000E+00  9.000E+00
      21    -1     0     0   501   502  0.000000000E+00  0.000000000E+00 -7.517198453E+01  7.517198453E+01  0.000000000E+00  0.00000E+00  9.000E+00
      25     1     1     2     0     0 -4.623929149E+01 -6.991507272E+01  3.861480531E+01  1.553779027E+02  1.250000000E+02  0.00000E+00  9.000E+00
      25     1     1     2     0     0  2.987979660E+01  1.151925850E+02  7.043663119E+02  7.252027546E+02  1.250000000E+02  0.00000E+00  9.000E+00
      21     1     1     2   501   512  1.635949489E+01 -4.527751226E+01  8.455717098E+01  9.730159995E+01  9.536743164E-07  0.00000E+00  9.000E+00
#rwgt            1           1   3.3407090611215516E-002           9      313235           0
</event>
<event>
      5   9999  3.79277E-02  6.02287E+01 -1.00000E+00  1.34615E-01
      21    -1     0     0   502   511  0.000000000E+00  0.000000000E+00  2.278029838E+02  2.278029838E+02  0.000000000E+00  0.00000E+00  9.000E+00
      21    -1     0     0   501   502  0.000000000E+00  0.000000000E+00 -6.198502606E+02  6.198502606E+02  0.000000000E+00  0.00000E+00  9.000E+00
      25     1     1     2     0     0  1.018342256E+02 -2.420618122E+02  3.118020841E+01  2.925086936E+02  1.250000000E+02  0.00000E+00  9.000E+00
      25     1     1     2     0     0 -1.395524905E+02  1.951062664E+02 -4.135316626E+02  4.941404545E+02  1.250000000E+02  0.00000E+00  9.000E+00
      21     1     1     2   501   511  3.771826497E+01  4.695554583E+01 -9.695822658E+00  6.100409636E+01  8.760057960E-07  0.00000E+00  9.000E+00
#rwgt            1           1   3.7318947705981008E-002           9      313332           0
</event>
<event>
      5   9999  3.79277E-02  3.15224E+01 -1.00000E+00  1.51561E-01
      21    -1     0     0   502   501  0.000000000E+00  0.000000000E+00  3.349617428E+02  3.349617428E+02  0.000000000E+00  0.00000E+00  9.000E+00
      21    -1     0     0   512   502  0.000000000E+00  0.000000000E+00 -1.532692250E+02  1.532692250E+02  0.000000000E+00  0.00000E+00  9.000E+00
      25     1     1     2     0     0 -7.712591302E+01 -7.917074584E+01 -3.384445345E+01  1.702552803E+02  1.250000000E+02  0.00000E+00  9.000E+00
      25     1     1     2     0     0  9.402180585E+01  1.057826523E+02  2.154071388E+02  2.864529716E+02  1.250000000E+02  0.00000E+00  9.000E+00
      21     1     1     2   512   501 -1.689589283E+01 -2.661190645E+01  1.298324580E-01  3.152271587E+01  7.079301390E-07  0.00000E+00  9.000E+00
#rwgt            1           1   4.0376445621735285E-002           9      313525           0
</event>
<event>
      5   9999  3.79277E-02  1.35020E+02 -1.00000E+00  1.18234E-01
      21    -1     0     0   511   501  0.000000000E+00  0.000000000E+00  4.873038302E+02  4.873038302E+02  0.000000000E+00  0.00000E+00  9.000E+00
      21    -1     0     0   501   502  0.000000000E+00  0.000000000E+00 -3.530156332E+02  3.530156332E+02  0.000000000E+00  0.00000E+00  9.000E+00
      25     1     1     2     0     0  1.732982539E+02 -5.422522383E+01 -1.153978072E+00  2.204517892E+02  1.250000000E+02  0.00000E+00  9.000E+00
      25     1     1     2     0     0 -1.028262793E+02  1.693952475E+02 -1.676267212E+02  2.880828201E+02  1.250000000E+02  0.00000E+00  9.000E+00
      21     1     1     2   511   502 -7.047197453E+01 -1.151700237E+02  3.030688963E+02  3.317848541E+02  0.000000000E+00  0.00000E+00  9.000E+00
#rwgt            2          11   2.7604201504639000E-003           9      313881           0
</event>
<event>
      5   9999  3.79277E-02  1.18997E+02 -1.00000E+00  1.20523E-01
      21    -1     0     0   502   501  0.000000000E+00  0.000000000E+00  5.068589178E+02  5.068589178E+02  0.000000000E+00  0.00000E+00  9.000E+00
      21    -1     0     0   512   502  0.000000000E+00  0.000000000E+00 -2.829714631E+03  2.829714631E+03  0.000000000E+00  0.00000E+00  9.000E+00
      25     1     1     2     0     0  7.307873415E+01 -8.790093242E+01  2.164617043E+02  2.748595000E+02  1.250000000E+02  0.00000E+00  9.000E+00
      25     1     1     2     0     0 -3.744483917E+01  2.014371518E+02  2.045007732E+02  3.153166794E+02  1.250000000E+02  0.00000E+00  9.000E+00
      21     1     1     2   512   501 -3.563389498E+01 -1.135362194E+02 -2.743818190E+03  2.746397369E+03  0.000000000E+00  0.00000E+00  9.000E+00
#rwgt            1           1  0.12853794764594900                9      313916           0
</event>
<event>
      5   9999  3.79277E-02  1.19534E+02 -1.00000E+00  1.20440E-01
      -1    -1     0     0     0   501  0.000000000E+00  0.000000000E+00  1.329798446E+03  1.329798446E+03  0.000000000E+00  0.00000E+00  9.000E+00
      21    -1     0     0   501   502  0.000000000E+00  0.000000000E+00 -4.259891537E+02  4.259891537E+02  0.000000000E+00  0.00000E+00  9.000E+00
      25     1     1     2     0     0  1.271822791E+02  3.782993862E+02  2.606271673E+01  4.190346321E+02  1.250000000E+02  0.00000E+00  9.000E+00
      25     1     1     2     0     0 -2.225847120E+02 -3.062796868E+02 -4.954865502E+01  4.017851039E+02  1.250000000E+02  0.00000E+00  9.000E+00
      -1     1     1     2     0   502  9.540243285E+01 -7.201969944E+01  9.272952307E+02  9.349678637E+02  1.525878906E-05  0.00000E+00  9.000E+00
#rwgt            1           1   3.5804853780044388E-002           9      314007           0
</event>
<event>
      5   9999  3.79277E-02  4.63668E+01 -1.00000E+00  1.40971E-01
      21    -1     0     0   502   501  0.000000000E+00  0.000000000E+00  1.712703324E+02  1.712703324E+02  0.000000000E+00  0.00000E+00  9.000E+00
      21    -1     0     0   501   511  0.000000000E+00  0.000000000E+00 -3.940216784E+02  3.940216784E+02  0.000000000E+00  0.00000E+00  9.000E+00
      25     1     1     2     0     0 -6.359026935E+01 -2.775160948E+01 -2.804787852E+02  3.148129971E+02  1.250000000E+02  0.00000E+00  9.000E+00
      25     1     1     2     0     0  1.016003860E+02  5.430545429E+01  9.156089048E+01  1.930805984E+02  1.250000000E+02  0.00000E+00  9.000E+00
      21     1     1     2   502   511 -3.801011669E+01 -2.655384481E+01 -3.383345126E+01  5.739841522E+01  6.743495762E-07  0.00000E+00  9.000E+00
#rwgt            1           1   4.9792861236176919E-002           9      314112           0
</event>
<event>
      5   9999  3.79277E-02  1.50924E+02 -1.00000E+00  1.16288E-01
      21    -1     0     0   502   501  0.000000000E+00  0.000000000E+00  7.134767811E+01  7.134767811E+01  0.000000000E+00  0.00000E+00  9.000E+00
      21    -1     0     0   512   502  0.000000000E+00  0.000000000E+00 -2.039806869E+03  2.039806869E+03  0.000000000E+00  0.00000E+00  9.000E+00
      25     1     1     2     0     0 -2.894193156E+01 -2.915884429E+02 -1.088232332E+03  1.133903022E+03  1.250000000E+02  0.00000E+00  9.000E+00
      25     1     1     2     0     0  1.336209865E+02  1.828667573E+02 -4.237471071E+02  4.964689615E+02  1.250000000E+02  0.00000E+00  9.000E+00
      21     1     1     2   512   501 -1.046790549E+02  1.087216856E+02 -4.564797517E+02  4.807825633E+02  5.394796609E-06  0.00000E+00  9.000E+00
#rwgt            2          11   2.3485222369368274E-003           9      314428           0
</event>
<event>
      5   9999  3.79277E-02  2.13522E+01 -1.00000E+00  1.64058E-01
      21    -1     0     0   502   511  0.000000000E+00  0.000000000E+00  1.879135130E+02  1.879135130E+02  0.000000000E+00  0.00000E+00  9.000E+00
      21    -1     0     0   501   502  0.000000000E+00  0.000000000E+00 -6.838535970E+02  6.838535970E+02  0.000000000E+00  0.00000E+00  9.000E+00
      25     1     1     2     0     0  2.032125873E+02 -2.946058029E+01 -2.351525524E+01  2.415393315E+02  1.250000000E+02  0.00000E+00  9.000E+00
      25     1     1     2     0     0 -2.245200112E+02  2.807877539E+01 -5.185441524E+02  5.794054634E+02  1.250000000E+02  0.00000E+00  9.000E+00
      21     1     1     2   501   511  2.130742387E+01  1.381804899E+00  4.611932358E+01  5.082231503E+01  1.168007728E-06  0.00000E+00  9.000E+00
#rwgt            1           1   3.4859182476984114E-002           9      314538           0
</event>
<event>
      5   9999  3.79277E-02  8.36183E+01 -1.00000E+00  1.27426E-01
      21    -1     0     0   502   501  0.000000000E+00  0.000000000E+00  1.180190692E+02  1.180190692E+02  0.000000000E+00  0.00000E+00  9.000E+00
      21    -1     0     0   512   502  0.000000000E+00  0.000000000E+00 -4.054633872E+02  4.054633872E+02  0.000000000E+00  0.00000E+00  9.000E+00
      25     1     1     2     0     0  2.347233271E-01  2.260751167E+01 -2.009736628E+02  2.377531657E+02  1.250000000E+02  0.00000E+00  9.000E+00
      25     1     1     2     0     0 -8.360460931E+01 -2.904786150E+01  1.540155825E+01  1.539341319E+02  1.250000000E+02  0.00000E+00  9.000E+00
      21     1     1     2   512   501  8.336988599E+01  6.440349835E+00 -1.018722135E+02  1.317951588E+02  3.015782986E-06  0.00000E+00  9.000E+00
#rwgt            1           1   3.7043900069331406E-002           9      314779           0
</event>
<event>
      5   9999  3.79277E-02  1.65101E+02 -1.00000E+00  1.14766E-01
      21    -1     0     0   511   501  0.000000000E+00  0.000000000E+00  1.031007080E+03  1.031007080E+03  0.000000000E+00  0.00000E+00  9.000E+00
      21    -1     0     0   501   502  0.000000000E+00  0.000000000E+00 -3.321248923E+02  3.321248923E+02  0.000000000E+00  0.00000E+00  9.000E+00
      25     1     1     2     0     0  7.296480954E+01 -3.590588283E+02 -1.103838543E+02  4.025626671E+02  1.250000000E+02  0.00000E+00  9.000E+00
      25     1     1     2     0     0 -1.263472405E+02  2.028256589E+02  2.182607005E+02  3.469360265E+02  1.250000000E+02  0.00000E+00  9.000E+00
      21     1     1     2   511   502  5.338243093E+01  1.562331694E+02  5.910053416E+02  6.136332789E+02  7.629394531E-06  0.00000E+00  9.000E+00
#rwgt            1           1   4.0958275955420793E-002           9      314873           0
</event>
<event>
      5   9999  3.79277E-02  1.90987E+01 -1.00000E+00  1.68039E-01
      21    -1     0     0   512   501  0.000000000E+00  0.000000000E+00  1.116549336E+02  1.116549336E+02  0.000000000E+00  0.00000E+00  9.000E+00
      21    -1     0     0   501   502  0.000000000E+00  0.000000000E+00 -4.892168765E+02  4.892168765E+02  0.000000000E+00  0.00000E+00  9.000E+00
      25     1     1     2     0     0  1.712014764E+01 -3.308458447E+01 -4.130010480E+02  4.331080175E+02  1.250000000E+02  0.00000E+00  9.000E+00
      25     1     1     2     0     0 -2.833448409E+01  4.854419010E+01  4.764086878E+01  1.451000819E+02  1.250000000E+02  0.00000E+00  9.000E+00
      21     1     1     2   512   502  1.121433645E+01 -1.545960563E+01 -1.220176357E+01  2.266371070E+01  4.460403188E-07  0.00000E+00  9.000E+00
#rwgt            1           1   2.6213729657427791E-002           9      314943           0
</event>
<event>
      5   9999  3.79277E-02  2.00054E+01 -1.00000E+00  1.66359E-01
      21    -1     0     0   502   501  0.000000000E+00  0.000000000E+00  1.292120734E+02  1.292120734E+02  0.000000000E+00  0.00000E+00  9.000E+00
      21    -1     0     0   501   511  0.000000000E+00  0.000000000E+00 -4.510235958E+02  4.510235958E+02  0.000000000E+00  0.00000E+00  9.000E+00
      25     1     1     2     0     0  1.455219848E+02  7.785211734E+01 -4.747766603E+01  2.124069890E+02  1.250000000E+02  0.00000E+00  9.000E+00
      25     1     1     2     0     0 -1.613934692E+02 -9.003052047E+01 -2.371498807E+02  3.256046874E+02  1.250000000E+02  0.00000E+00  9.000E+00
      21     1     1     2   502   511  1.587148439E+01  1.217840314E+01 -3.718397568E+01  4.222399279E+01  4.768371582E-07  0.00000E+00  9.000E+00
#rwgt            1           1   3.7544757912233787E-002           9      315117           0
</event>
<event>
      5   9999  3.79277E-02  3.91258E+01 -1.00000E+00  1.45438E-01
      21    -1     0     0   502   501  0.000000000E+00  0.000000000E+00  2.462277380E+02  2.462277380E+02  0.000000000E+00  0.00000E+00  9.000E+00
      21    -1     0     0   501   512  0.000000000E+00  0.000000000E+00 -4.203176037E+02  4.203176037E+02  0.000000000E+00  0.00000E+00  9.000E+00
      25     1     1     2     0     0  9.282866438E+00  1.666515899E+02 -1.008298198E+02  2.316259411E+02  1.250000000E+02  0.00000E+00  9.000E+00
      25     1     1     2     0     0 -1.356998597E+01 -2.055417997E+02  9.735609934E+01  2.598745582E+02  1.250000000E+02  0.00000E+00  9.000E+00
      21     1     1     2   502   512  4.287119536E+00  3.889020974E+01 -1.706161452E+02  1.750448423E+02  2.697398305E-06  0.00000E+00  9.000E+00
#rwgt            1           1  0.11687467989094757                9      315265           0
</event>
<event>
      5   9999  3.79277E-02  1.78893E+01 -1.00000E+00  1.70467E-01
      21    -1     0     0   502   501  0.000000000E+00  0.000000000E+00  2.197901393E+02  2.197901393E+02  0.000000000E+00  0.00000E+00  9.000E+00
       2    -1     0     0   501     0  0.000000000E+00  0.000000000E+00 -1.682929702E+02  1.682929702E+02  0.000000000E+00  0.00000E+00  9.000E+00
      25     1     1     2     0     0 -4.611977692E+00  4.209902241E+01 -2.081566297E+01  1.336109646E+02  1.250000000E+02  0.00000E+00  9.000E+00
      25     1     1     2     0     0 -5.914070638E+00 -5.656384525E+01  1.330161401E+02  1.911877045E+02  1.250000000E+02  0.00000E+00  9.000E+00
       2     1     1     2   502     0  1.052604833E+01  1.446482284E+01 -6.070330806E+01  6.328444044E+01  6.743495762E-07  0.00000E+00  9.000E+00
#rwgt            2          13   9.4179276816616013E-006           9      315653           0
</event>
<event>
      5   9999  3.79277E-02  1.21832E+01 -1.00000E+00  1.86339E-01
      21    -1     0     0   502   501  0.000000000E+00  0.000000000E+00  1.494486325E+02  1.494486325E+02  0.000000000E+00  0.00000E+00  9.000E+00
      21    -1     0     0   501   511  0.000000000E+00  0.000000000E+00 -7.383874258E+02  7.383874258E+02  0.000000000E+00  0.00000E+00  9.000E+00
      25     1     1     2     0     0 -1.854780145E+02 -1.590430438E+02 -4.704473776E+02  5.446489867E+02  1.250000000E+02  0.00000E+00  9.000E+00
      25     1     1     2     0     0  1.873669050E+02  1.470071587E+02 -4.994136261E+01  2.735627926E+02  1.250000000E+02  0.00000E+00  9.000E+00
      21     1     1     2   502   511 -1.888890517E+00  1.203588515E+01 -6.855005315E+01  6.962427899E+01  9.536743164E-07  0.00000E+00  9.000E+00
#rwgt            1           1   3.1884253933954262E-002           9      315687           0
</event>
<event>
      5   9999  3.79277E-02  8.15601E+01 -1.00000E+00  1.27945E-01
      21    -1     0     0   502   501  0.000000000E+00  0.000000000E+00  5.057226681E+02  5.057226681E+02  0.000000000E+00  0.00000E+00  9.000E+00
      21    -1     0     0   501   512  0.000000000E+00  0.000000000E+00 -1.126316067E+02  1.126316067E+02  0.000000000E+00  0.00000E+00  9.000E+00
      25     1     1     2     0     0  8.772365024E+01  5.298805592E+01  1.155362379E+02  1.986876824E+02  1.250000000E+02  0.00000E+00  9.000E+00
      25     1     1     2     0     0 -6.814085855E+01 -1.321623054E+02  2.767275218E+02  3.381023113E+02  1.250000000E+02  0.00000E+00  9.000E+00
      21     1     1     2   502   512 -1.958279169E+01  7.917424949E+01  8.273016991E-01  8.156428104E+01  3.605649958E-07  0.00000E+00  9.000E+00
#rwgt            1           1   3.9464196574877257E-002           9      316017           0
</event>
<event>
      5   9999  3.79277E-02  2.01895E+01 -1.00000E+00  1.66032E-01
      21    -1     0     0   502   501  0.000000000E+00  0.000000000E+00  3.058896772E+02  3.058896772E+02  0.000000000E+00  0.00000E+00  9.000E+00
      21    -1     0     0   511   502  0.000000000E+00  0.000000000E+00 -2.711399253E+02  2.711399253E+02  0.000000000E+00  0.00000E+00  9.000E+00
      25     1     1     2     0     0 -4.592245281E+01  2.261299542E+02  3.087037345E+01  2.642377865E+02  1.250000000E+02  0.00000E+00  9.000E+00
      25     1     1     2     0     0  2.738866752E+01 -2.181228204E+02  5.414760265E+01  2.586207006E+02  1.250000000E+02  0.00000E+00  9.000E+00
      21     1     1     2   511   501  1.853378529E+01 -8.007133746E+00 -5.026822416E+01  5.417111544E+01  0.000000000E+00  0.00000E+00  9.000E+00
#rwgt            1           1   2.5374152912369267E-002           9      316139           0
</event>
<event>
      5   9999 -3.79277E-02  2.69971E+01 -1.00000E+00  1.56291E-01
      21    -1     0     0   502   501  0.000000000E+00  0.000000000E+00  3.337383460E+02  3.337383460E+02  0.000000000E+00  0.00000E+00  9.000E+00
      21    -1     0     0   501   512  0.000000000E+00  0.000000000E+00 -8.998711323E+02  8.998711323E+02  0.000000000E+00  0.00000E+00  9.000E+00
      25     1     1     2     0     0  8.445983963E+01  1.009957694E+02  1.791324198E+02  2.550431998E+02  1.250000000E+02  0.00000E+00  9.000E+00
      25     1     1     2     0     0 -7.091804754E+01 -1.243508927E+02  3.885839747E+01  1.939780633E+02  1.250000000E+02  0.00000E+00  9.000E+00
      21     1     1     2   502   512 -1.354179210E+01  2.335512329E+01 -7.841236035E+02  7.845882152E+02  0.000000000E+00  0.00000E+00  9.000E+00
#rwgt            1           1  -8.1576356515506196E-002           9      316383           0
</event>
<event>
      5   9999  3.79277E-02  3.24347E+01 -1.00000E+00  1.50723E-01
      21    -1     0     0   511   501  0.000000000E+00  0.000000000E+00  1.255746079E+03  1.255746079E+03  0.000000000E+00  0.00000E+00  9.000E+00
      21    -1     0     0   501   502  0.000000000E+00  0.000000000E+00 -7.134062701E+01  7.134062701E+01  0.000000000E+00  0.00000E+00  9.000E+00
      25     1     1     2     0     0 -1.604004945E+02  1.000716078E+00  2.090009860E+02  2.916088686E+02  1.250000000E+02  0.00000E+00  9.000E+00
      25     1     1     2     0     0  1.325252795E+02 -1.758339595E+01  2.525455717E+02  3.118916339E+02  1.250000000E+02  0.00000E+00  9.000E+00
      21     1     1     2   511   502  2.787521508E+01  1.658267987E+01  7.228588942E+02  7.235862034E+02  0.000000000E+00  0.00000E+00  9.000E+00
#rwgt            1           1   3.5231430145409214E-002           9      316650           0
</event>
<event>
      5   9999  3.79277E-02  3.81457E+01 -1.00000E+00  1.46130E-01
      21    -1     0     0   502   501  0.000000000E+00  0.000000000E+00  8.900318578E+02  8.900318578E+02  0.000000000E+00  0.00000E+00  9.000E+00
      21    -1     0     0   512   502  0.000000000E+00  0.000000000E+00 -1.101052131E+02  1.101052131E+02  0.000000000E+00  0.00000E+00  9.000E+00
      25     1     1     2     0     0  8.078341651E+01 -2.496483920E+01  7.762300220E+02  7.907637136E+02  1.250000000E+02  0.00000E+00  9.000E+00
      25     1     1     2     0     0 -9.671653460E+01  5.962356514E+01  1.500873164E+01  1.695857294E+02  1.250000000E+02  0.00000E+00  9.000E+00
      21     1     1     2   512   501  1.593311808E+01 -3.465872594E+01 -1.131210897E+01  3.978762804E+01  7.052516679E-07  0.00000E+00  9.000E+00
#rwgt            1           1   3.6504238073742666E-002           9      316786           0
</event>
<event>
      5   9999 -3.79277E-02  4.19245E+01 -1.00000E+00  1.43586E-01
      21    -1     0     0   511   501  0.000000000E+00  0.000000000E+00  1.745707082E+02  1.745707082E+02  0.000000000E+00  0.00000E+00  9.000E+00
      21    -1     0     0   501   502  0.000000000E+00  0.000000000E+00 -4.675277173E+02  4.675277173E+02  0.000000000E+00  0.00000E+00  9.000E+00
      25     1     1     2     0     0 -4.136385561E+01 -1.360081782E+02 -3.216946483E+02  3.732581410E+02  1.250000000E+02  0.00000E+00  9.000E+00
      25     1     1     2     0     0 -5.226755628E-01  1.377914878E+02 -3.813668981E+01  1.899109644E+02  1.250000000E+02  0.00000E+00  9.000E+00
      21     1     1     2   511   502  4.188653117E+01 -1.783309620E+00  6.687432902E+01  7.892932008E+01  1.651812370E-06  0.00000E+00  9.000E+00
#rwgt            1           1  -3.7812592020564625E-002           9      316886           0
</event>
<event>
      5   9999  3.79277E-02  1.94347E+02 -1.00000E+00  1.12103E-01
      21    -1     0     0   502   512  0.000000000E+00  0.000000000E+00  7.784344535E+01  7.784344535E+01  0.000000000E+00  0.00000E+00  9.000E+00
      21    -1     0     0   501   502  0.000000000E+00  0.000000000E+00 -1.228666662E+03  1.228666662E+03  0.000000000E+00  0.00000E+00  9.000E+00
      25     1     1     2     0     0 -2.126004001E+02 -8.080417623E+01 -4.718722841E+02  5.385319837E+02  1.250000000E+02  0.00000E+00  9.000E+00
      25     1     1     2     0     0  2.053385009E+01  5.111846826E+01 -4.357672543E+02  4.566758552E+02  1.250000000E+02  0.00000E+00  9.000E+00
      21     1     1     2   501   512  1.920665500E+02  2.968570797E+01 -2.431836778E+02  3.113022680E+02  8.092194914E-06  0.00000E+00  9.000E+00
#rwgt            1           1   5.0320119688970280E-002           9      317059           0
</event>
<event>
      5   9999  3.79277E-02  1.52933E+01 -1.00000E+00  1.76595E-01
      21    -1     0     0   502   501  0.000000000E+00  0.000000000E+00  1.092526624E+03  1.092526624E+03  0.000000000E+00  0.00000E+00  9.000E+00
      21    -1     0     0   511   502  0.000000000E+00  0.000000000E+00 -8.149741183E+01  8.149741183E+01  0.000000000E+00  0.00000E+00  9.000E+00
      25     1     1     2     0     0 -5.002990101E+01 -1.312501201E+02  9.192961569E+02  9.383283056E+02  1.250000000E+02  0.00000E+00  9.000E+00
      25     1     1     2     0     0  6.529298551E+01  1.302887511E+02  1.018683583E+02  2.173487866E+02  1.250000000E+02  0.00000E+00  9.000E+00
      21     1     1     2   511   501 -1.526308449E+01  9.613690207E-01 -1.013530290E+01  1.834694371E+01  4.298152060E-07  0.00000E+00  9.000E+00
#rwgt            1           1   4.4036632804081141E-002           9      317208           0
</event>
<event>
      5   9999  3.79277E-02  2.76645E+01 -1.00000E+00  1.55526E-01
      21    -1     0     0   502   501  0.000000000E+00  0.000000000E+00  1.166358618E+02  1.166358618E+02  0.000000000E+00  0.00000E+00  9.000E+00
      21    -1     0     0   501   512  0.000000000E+00  0.000000000E+00 -6.263674445E+02  6.263674445E+02  0.000000000E+00  0.00000E+00  9.000E+00
      25     1     1     2     0     0  2.903658593E+00 -4.236019999E+01  6.133826749E+01  1.455685434E+02  1.250000000E+02  0.00000E+00  9.000E+00
      25     1     1     2     0     0  5.202296143E+00  6.881045004E+01 -5.212189311E+02  5.404221647E+02  1.250000000E+02  0.00000E+00  9.000E+00
      21     1     1     2   502   512 -8.105954735E+00 -2.645025005E+01 -4.985091901E+01  5.701259822E+01  0.000000000E+00  0.00000E+00  9.000E+00
#rwgt            1           1   3.6415326239391962E-002           9      317536           0
</event>
<event>
      5   9999  3.79277E-02  6.50033E+01 -1.00000E+00  1.32871E-01
      21    -1     0     0   502   501  0.000000000E+00  0.000000000E+00  3.050390759E+02  3.050390759E+02  0.000000000E+00  0.00000E+00  9.000E+00
      21    -1     0     0   511   502  0.000000000E+00  0.000000000E+00 -1.983563562E+02  1.983563562E+02  0.000000000E+00  0.00000E+00  9.000E+00
      25     1     1     2     0     0 -6.769110488E+01  1.884980835E+01 -4.823465033E+01  1.512910521E+02  1.250000000E+02  0.00000E+00  9.000E+00
      25     1     1     2     0     0  2.288316408E+01 -6.594205002E+01  2.184664078E+02  2.611983241E+02  1.250000000E+02  0.00000E+00  9.000E+00
      21     1     1     2   511   501  4.480794080E+01  4.709224167E+01 -6.354903779E+01  9.090605584E+01  1.507891493E-06  0.00000E+00  9.000E+00
#rwgt            1           1   4.1595429651742316E-002           9      317756           0
</event>
<event>
      5   9999  3.79277E-02  2.45507E+01 -1.00000E+00  1.59343E-01
      21    -1     0     0   502   512  0.000000000E+00  0.000000000E+00  5.483723395E+01  5.483723395E+01  0.000000000E+00  0.00000E+00  9.000E+00
      21    -1     0     0   501   502  0.000000000E+00  0.000000000E+00 -8.714313330E+02  8.714313330E+02  0.000000000E+00  0.00000E+00  9.000E+00
      25     1     1     2     0     0  5.698457361E+01  2.419956998E+00 -7.289453256E+02  7.417812249E+02  1.250000000E+02  0.00000E+00  9.000E+00
      25     1     1     2     0     0 -3.919350952E+01 -1.933789729E+01 -5.440490847E+01  1.431606773E+02  1.250000000E+02  0.00000E+00  9.000E+00
      21     1     1     2   501   512 -1.779106410E+01  1.691794030E+01 -3.324386499E+01  4.132666482E+01  0.000000000E+00  0.00000E+00  9.000E+00
#rwgt            1           1   4.0605210951781240E-002           9      317916           0
</event>
<event>
      5   9999  3.79277E-02  1.71965E+02 -1.00000E+00  1.14089E-01
      21    -1     0     0   511   501  0.000000000E+00  0.000000000E+00  9.998097053E+01  9.998097053E+01  0.000000000E+00  0.00000E+00  9.000E+00
      21    -1     0     0   501   502  0.000000000E+00  0.000000000E+00 -1.473681304E+03  1.473681304E+03  0.000000000E+00  0.00000E+00  9.000E+00
      25     1     1     2     0     0  8.720348788E+01  7.112143265E+01 -7.821443140E+02  8.000233961E+02  1.250000000E+02  0.00000E+00  9.000E+00
      25     1     1     2     0     0 -1.624262690E+02 -2.257611406E+02 -4.799939813E+02  5.686559659E+02  1.250000000E+02  0.00000E+00  9.000E+00
      21     1     1     2   511   502  7.522278109E+01  1.546397080E+02 -1.115620383E+02  2.049829126E+02  1.348699152E-06  0.00000E+00  9.000E+00
#rwgt            1           1   3.3229563403631222E-002           9      318130           0
</event>
<event>
      5   9999  3.79277E-02  1.28728E+02 -1.00000E+00  1.19088E-01
      21    -1     0     0   502   512  0.000000000E+00  0.000000000E+00  2.248069251E+02  2.248069251E+02  0.000000000E+00  0.00000E+00  9.000E+00
      21    -1     0     0   501   502  0.000000000E+00  0.000000000E+00 -1.396994833E+03  1.396994833E+03  0.000000000E+00  0.00000E+00  9.000E+00
      25     1     1     2     0     0  1.116035925E+02  1.936122288E+02 -7.100156121E+02  7.547769382E+02  1.250000000E+02  0.00000E+00  9.000E+00
      25     1     1     2     0     0 -8.364173580E+01 -6.795806236E+01 -6.324128365E+02  6.535940896E+02  1.250000000E+02  0.00000E+00  9.000E+00
      21     1     1     2   501   512 -2.796185670E+01 -1.256541665E+02  1.702405407E+02  2.134307304E+02  6.031565972E-06  0.00000E+00  9.000E+00
#rwgt            1           1   4.8069907567083028E-002           9      318192           0
</event>
<event>
      5   9999  3.79277E-02  6.57502E+00 -1.00000E+00  2.19471E-01
      21    -1     0     0   502   501  0.000000000E+00  0.000000000E+00  2.280892513E+02  2.280892513E+02  0.000000000E+00  0.00000E+00  9.000E+00
      21    -1     0     0   501   511  0.000000000E+00  0.000000000E+00 -3.381606349E+02  3.381606349E+02  0.000000000E+00  0.00000E+00  9.000E+00
      25     1     1     2     0     0  1.490830453E+02  1.567401084E+02  6.030980819E+01  2.570126241E+02  1.250000000E+02  0.00000E+00  9.000E+00
      25     1     1     2     0     0 -1.477576741E+02 -1.503000579E+02 -1.488213047E+02  2.866970847E+02  1.250000000E+02  0.00000E+00  9.000E+00
      21     1     1     2   502   511 -1.325371124E+00 -6.440050520E+00 -2.155988714E+01  2.254017730E+01  0.000000000E+00  0.00000E+00  9.000E+00
#rwgt            1           1   5.0490448468930117E-002           9      318243           0
</event>
<event>
      5   9999  3.79277E-02  2.22945E+01 -1.00000E+00  1.62569E-01
      21    -1     0     0   502   501  0.000000000E+00  0.000000000E+00  2.073338064E+01  2.073338064E+01  0.000000000E+00  0.00000E+00  9.000E+00
       2    -1     0     0   501     0  0.000000000E+00  0.000000000E+00 -2.399426728E+03  2.399426728E+03  0.000000000E+00  0.00000E+00  9.000E+00
      25     1     1     2     0     0 -8.028394685E+01  4.439536499E+01 -3.873967424E+02  4.172741264E+02  1.250000000E+02  0.00000E+00  9.000E+00
      25     1     1     2     0     0  7.976330169E+01 -6.668382356E+01 -1.165179300E+03  1.176467900E+03  1.250000000E+02  0.00000E+00  9.000E+00
       2     1     1     2   502     0  5.206451578E-01  2.228845857E+01 -8.261173049E+02  8.264180830E+02  0.000000000E+00  0.00000E+00  9.000E+00
#rwgt            1           1   3.5282537604651380E-002           9      318579           0
</event>
<event>
      5   9999  3.79277E-02  1.93466E+01 -1.00000E+00  1.67568E-01
      21    -1     0     0   502   501  0.000000000E+00  0.000000000E+00  1.105490135E+03  1.105490135E+03  0.000000000E+00  0.00000E+00  9.000E+00
      21    -1     0     0   511   502  0.000000000E+00  0.000000000E+00 -3.495797464E+01  3.495797464E+01  0.000000000E+00  0.00000E+00  9.000E+00
      25     1     1     2     0     0 -9.980166114E+00  1.390173205E+02  4.210895337E+02  4.608327403E+02  1.250000000E+02  0.00000E+00  9.000E+00
      25     1     1     2     0     0 -6.800040318E+00 -1.293884295E+02  6.030505198E+02  6.293508844E+02  1.250000000E+02  0.00000E+00  9.000E+00
      21     1     1     2   511   501  1.678020643E+01 -9.628891057E+00  4.639210678E+01  5.026448491E+01  6.743495762E-07  0.00000E+00  9.000E+00
#rwgt            1           1  0.10343745700178181                9      318745           0
</event>
<event>
      5   9999  3.79277E-02  1.13103E+01 -1.00000E+00  1.89772E-01
      21    -1     0     0   512   501  0.000000000E+00  0.000000000E+00  7.944697897E+01  7.944697897E+01  0.000000000E+00  0.00000E+00  9.000E+00
      21    -1     0     0   501   502  0.000000000E+00  0.000000000E+00 -7.516429986E+02  7.516429986E+02  0.000000000E+00  0.00000E+00  9.000E+00
      25     1     1     2     0     0 -3.840582097E+01 -1.225253771E+02 -6.031778130E+02  6.292344151E+02  1.250000000E+02  0.00000E+00  9.000E+00
      25     1     1     2     0     0  2.830320364E+01  1.174401691E+02 -7.469267307E+01  1.892016386E+02  1.250000000E+02  0.00000E+00  9.000E+00
      21     1     1     2   512   502  1.010261733E+01  5.085208035E+00  5.674466441E+00  1.265392378E+01  3.371747881E-07  0.00000E+00  9.000E+00
#rwgt            1           1   3.8024318885252366E-002           9      318868           0
</event>
<event>
      5   9999  3.79277E-02  3.30165E+01 -1.00000E+00  1.50205E-01
      21    -1     0     0   502   501  0.000000000E+00  0.000000000E+00  7.917935539E+02  7.917935539E+02  0.000000000E+00  0.00000E+00  9.000E+00
       5    -1     0     0   501     0  0.000000000E+00  0.000000000E+00 -1.849159850E+02  1.849159850E+02  0.000000000E+00  0.00000E+00  9.000E+00
      25     1     1     2     0     0  9.599635729E+01  1.614185247E+02  6.424682729E+02  6.809271051E+02  1.250000000E+02  0.00000E+00  9.000E+00
      25     1     1     2     0     0 -9.611921848E+01 -1.284022512E+02  4.536903783E+01  2.083492065E+02  1.250000000E+02  0.00000E+00  9.000E+00
       5     1     1     2   502     0  1.228611886E-01 -3.301627355E+01 -8.095974191E+01  8.743322723E+01  9.536743164E-07  0.00000E+00  9.000E+00
#rwgt            1           1   3.6860266007514290E-002           9      319207           0
</event>
<event>
      5   9999  3.79277E-02  2.02199E+01 -1.00000E+00  1.65978E-01
      21    -1     0     0   511   501  0.000000000E+00  0.000000000E+00  2.383081091E+02  2.383081091E+02  0.000000000E+00  0.00000E+00  9.000E+00
      21    -1     0     0   501   502  0.000000000E+00  0.000000000E+00 -2.080229872E+02  2.080229872E+02  0.000000000E+00  0.00000E+00  9.000E+00
      25     1     1     2     0     0  1.681102744E+02 -2.266520018E+01 -8.647288630E+00  2.108899032E+02  1.250000000E+02  0.00000E+00  9.000E+00
      25     1     1     2     0     0 -1.674427435E+02  2.456324273E+00  2.407872156E+01  2.103518261E+02  1.250000000E+02  0.00000E+00  9.000E+00
      21     1     1     2   511   502 -6.675308729E-01  2.020887591E+01  1.485368894E+01  2.508936703E+01  1.685873940E-07  0.00000E+00  9.000E+00
#rwgt            1           1   3.9670251331500345E-002           9      319497           0
</event>
<event>
      5   9999  3.79277E-02  1.77394E+01 -1.00000E+00  1.70785E-01
      21    -1     0     0   512   501  0.000000000E+00  0.000000000E+00  3.768488581E+02  3.768488581E+02  0.000000000E+00  0.00000E+00  9.000E+00
      21    -1     0     0   501   502  0.000000000E+00  0.000000000E+00 -2.338972371E+02  2.338972371E+02  0.000000000E+00  0.00000E+00  9.000E+00
      25     1     1     2     0     0  8.859964308E+01  2.469875772E+01 -7.691699810E+01  1.732084004E+02  1.250000000E+02  0.00000E+00  9.000E+00
      25     1     1     2     0     0 -1.062942848E+02 -2.595879934E+01 -4.497164280E+01  1.721039886E+02  1.250000000E+02  0.00000E+00  9.000E+00
      21     1     1     2   512   502  1.769464171E+01  1.260041617E+00  2.648402619E+02  2.654337062E+02  3.814697266E-06  0.00000E+00  9.000E+00
#rwgt            1           1   2.4287472126437872E-002           9      319599           0
</event>
<event>
      5   9999  3.79277E-02  5.25778E+01 -1.00000E+00  1.37841E-01
      21    -1     0     0   502   501  0.000000000E+00  0.000000000E+00  1.393903468E+03  1.393903468E+03  0.000000000E+00  0.00000E+00  9.000E+00
      21    -1     0     0   501   511  0.000000000E+00  0.000000000E+00 -7.036583303E+01  7.036583303E+01  0.000000000E+00  0.00000E+00  9.000E+00
      25     1     1     2     0     0 -1.559329367E+02 -1.053088737E+02  9.510386078E+02  9.774990911E+02  1.250000000E+02  0.00000E+00  9.000E+00
      25     1     1     2     0     0  1.646572917E+02  1.571577843E+02  3.241476083E+02  4.153399389E+02  1.250000000E+02  0.00000E+00  9.000E+00
      21     1     1     2   502   511 -8.724354993E+00 -5.184891052E+01  4.835141843E+01  7.143027059E+01  6.743495762E-07  0.00000E+00  9.000E+00
#rwgt            1           1   5.3919647955030889E-002           9      319822           0
</event>
<event>
      5   9999  3.79277E-02  7.39244E+01 -1.00000E+00  1.30032E-01
       1    -1     0     0   502     0  0.000000000E+00  0.000000000E+00  9.059987121E+02  9.059987121E+02  0.000000000E+00  0.00000E+00  9.000E+00
      21    -1     0     0   501   502  0.000000000E+00  0.000000000E+00 -1.927095082E+02  1.927095082E+02  0.000000000E+00  0.00000E+00  9.000E+00
      25     1     1     2     0     0  1.083268803E+01 -5.453710669E+01 -1.150600812E+02  1.787609169E+02  1.250000000E+02  0.00000E+00  9.000E+00
      25     1     1     2     0     0 -8.426533035E+01  4.602447150E+01  9.743405558E+01  1.853032462E+02  1.250000000E+02  0.00000E+00  9.000E+00
       1     1     1     2   501     0  7.343264232E+01  8.512635188E+00  7.309152296E+02  7.346440572E+02  0.000000000E+00  0.00000E+00  9.000E+00
#rwgt            1           1   2.8912581363210066E-002           9      320064           0
</event>
<event>
      5   9999  3.79277E-02  6.11208E+01 -1.00000E+00  1.34275E-01
      21    -1     0     0   502   501  0.000000000E+00  0.000000000E+00  5.535945480E+02  5.535945480E+02  0.000000000E+00  0.00000E+00  9.000E+00
      21    -1     0     0   511   502  0.000000000E+00  0.000000000E+00 -5.394372048E+02  5.394372048E+02  0.000000000E+00  0.00000E+00  9.000E+00
      25     1     1     2     0     0  1.822965108E+02  1.684104449E+01  2.713290712E+02  3.503713794E+02  1.250000000E+02  0.00000E+00  9.000E+00
      25     1     1     2     0     0 -2.025464196E+02 -7.450987915E+01  1.759664637E+02  3.052310118E+02  1.250000000E+02  0.00000E+00  9.000E+00
      21     1     1     2   511   501  2.024990883E+01  5.766883466E+01 -4.331381917E+02  4.374293617E+02  5.394796609E-06  0.00000E+00  9.000E+00
#rwgt            1           1   4.1830992413735904E-002           9      320166           0
</event>
<event>
      5   9999  3.79277E-02  4.88548E+00 -1.00000E+00  2.44555E-01
      21    -1     0     0   502   501  0.000000000E+00  0.000000000E+00  1.754721416E+02  1.754721416E+02  0.000000000E+00  0.00000E+00  9.000E+00
      21    -1     0     0   501   512  0.000000000E+00  0.000000000E+00 -2.914733491E+02  2.914733491E+02  0.000000000E+00  0.00000E+00  9.000E+00
      25     1     1     2     0     0 -1.506132874E+02 -4.333881451E+01 -1.002475730E+01  2.007189850E+02  1.250000000E+02  0.00000E+00  9.000E+00
      25     1     1     2     0     0  1.490072211E+02  3.872487702E+01 -4.282146276E+01  2.028828374E+02  1.250000000E+02  0.00000E+00  9.000E+00
      21     1     1     2   502   512  1.606066340E+00  4.613937489E+00 -6.315498748E+01  6.334366829E+01  0.000000000E+00  0.00000E+00  9.000E+00
#rwgt            1           1   4.0692485629750995E-002           9      320258           0
</event>
<event>
      5   9999  3.79277E-02  1.45940E+01 -1.00000E+00  1.78514E-01
      21    -1     0     0   502   501  0.000000000E+00  0.000000000E+00  5.376996299E+02  5.376996299E+02  0.000000000E+00  0.00000E+00  9.000E+00
      21    -1     0     0   501   511  0.000000000E+00  0.000000000E+00 -5.513082024E+02  5.513082024E+02  0.000000000E+00  0.00000E+00  9.000E+00
      25     1     1     2     0     0 -4.895732015E+01  9.192029360E+01  4.472081001E+02  4.758846965E+02  1.250000000E+02  0.00000E+00  9.000E+00
      25     1     1     2     0     0  4.769435030E+01 -7.738108561E+01 -2.502171473E+00  1.545763382E+02  1.250000000E+02  0.00000E+00  9.000E+00
      21     1     1     2   502   511  1.262969849E+00 -1.453920799E+01 -4.583145012E+02  4.585467976E+02  5.394796609E-06  0.00000E+00  9.000E+00
#rwgt            1           1   4.1744279137420751E-002           9      320594           0
</event>
<event>
      5   9999  3.79277E-02  4.14874E+01 -1.00000E+00  1.43864E-01
       1    -1     0     0   502     0  0.000000000E+00  0.000000000E+00  2.290767745E+03  2.290767745E+03  0.000000000E+00  0.00000E+00  9.000E+00
      21    -1     0     0   501   502  0.000000000E+00  0.000000000E+00 -5.842323331E+01  5.842323331E+01  0.000000000E+00  0.00000E+00  9.000E+00
      25     1     1     2     0     0 -1.539678872E+02  4.844605667E+00  1.535984536E+03  1.548742418E+03  1.250000000E+02  0.00000E+00  9.000E+00
      25     1     1     2     0     0  1.551130717E+02  3.662702839E+01  1.488331060E+02  2.513521388E+02  1.250000000E+02  0.00000E+00  9.000E+00
       1     1     1     2   501     0 -1.145184496E+00 -4.147163406E+01  5.475268694E+02  5.490964220E+02  7.629394531E-06  0.00000E+00  9.000E+00
#rwgt            1           1   3.6593030704402660E-002           9      320824           0
</event>
<event>
      5   9999  3.79277E-02  5.87385E+01 -1.00000E+00  1.35198E-01
      21    -1     0     0   502   511  0.000000000E+00  0.000000000E+00  4.684403426E+01  4.684403426E+01  0.000000000E+00  0.00000E+00  9.000E+00
      21    -1     0     0   501   502  0.000000000E+00  0.000000000E+00 -2.086385671E+03  2.086385671E+03  0.000000000E+00  0.00000E+00  9.000E+00
      25     1     1     2     0     0  6.579148807E+01  7.555304321E+01 -1.773529888E+03  1.780749855E+03  1.250000000E+02  0.00000E+00  9.000E+00
      25     1     1     2     0     0 -5.597081427E+01 -1.764129258E+01 -2.587521028E+02  2.932943878E+02  1.250000000E+02  0.00000E+00  9.000E+00
      21     1     1     2   501   511 -9.820673799E+00 -5.791175063E+01 -7.259645824E+00  5.918546234E+01  2.461895517E-06  0.00000E+00  9.000E+00
#rwgt            1           1   9.4628438283728133E-002           9      320991           0
</event>
<event>
      5   9999 -3.79277E-02  4.27132E+00 -1.00000E+00  2.56930E-01
      21    -1     0     0   512   501  0.000000000E+00  0.000000000E+00  2.110046528E+02  2.110046528E+02  0.000000000E+00  0.00000E+00  9.000E+00
      21    -1     0     0   501   502  0.000000000E+00  0.000000000E+00 -2.967437296E+02  2.967437296E+02  0.000000000E+00  0.00000E+00  9.000E+00
      25     1     1     2     0     0 -2.090070908E+01 -1.277651490E+02  9.188096637E+01  2.020591125E+02  1.250000000E+02  0.00000E+00  9.000E+00
      25     1     1     2     0     0  1.863003160E+01  1.241473917E+02 -2.090221427E+02  2.739980092E+02  1.250000000E+02  0.00000E+00  9.000E+00
      21     1     1     2   512   502  2.270677482E+00  3.617757358E+00  3.140209961E+01  3.169126069E+01  4.768371582E-07  0.00000E+00  9.000E+00
#rwgt            1           1  -3.2383850940756784E-002           9      321271           0
</event>
<event>
      5   9999  3.79277E-02  3.31991E+01 -1.00000E+00  1.50045E-01
      21    -1     0     0   502   501  0.000000000E+00  0.000000000E+00  4.319149903E+01  4.319149903E+01  0.000000000E+00  0.00000E+00  9.000E+00
      21    -1     0     0   501   511  0.000000000E+00  0.000000000E+00 -1.193512097E+03  1.193512097E+03  0.000000000E+00  0.00000E+00  9.000E+00
      25     1     1     2     0     0  1.443105671E+02  6.778071446E+01 -7.342563194E+02  7.616935786E+02  1.250000000E+02  0.00000E+00  9.000E+00
      25     1     1     2     0     0 -1.142800198E+02 -8.193503365E+01 -2.984848144E+02  3.528334693E+02  1.250000000E+02  0.00000E+00  9.000E+00
      21     1     1     2   502   511 -3.003054729E+01  1.415431919E+01 -1.175794639E+02  1.221765479E+02  1.907348633E-06  0.00000E+00  9.000E+00
#rwgt            1           1   2.3104546155458410E-002           9      321696           0
</event>
<event>
      5   9999  3.79277E-02  1.24427E+02 -1.00000E+00  1.19704E-01
      21    -1     0     0   512   501  0.000000000E+00  0.000000000E+00  5.536217787E+02  5.536217787E+02  0.000000000E+00  0.00000E+00  9.000E+00
      21    -1     0     0   501   502  0.000000000E+00  0.000000000E+00 -2.129176162E+02  2.129176162E+02  0.000000000E+00  0.00000E+00  9.000E+00
      25     1     1     2     0     0  1.157216675E+02  8.350733651E+00  5.903601616E+01  1.804757332E+02  1.250000000E+02  0.00000E+00  9.000E+00
      25     1     1     2     0     0 -1.811680814E+02 -1.141750078E+02 -3.067651528E+01  2.498476630E+02  1.250000000E+02  0.00000E+00  9.000E+00
      21     1     1     2   512   502  6.544641390E+01  1.058242741E+02  3.123446616E+02  3.362159986E+02  6.607249480E-06  0.00000E+00  9.000E+00
#rwgt            1           1   3.7995717602237307E-002           9      321777           0
</event>
<event>
      5   9999  3.79277E-02  2.34382E+01 -1.00000E+00  1.60878E-01
      21    -1     0     0   502   501  0.000000000E+00  0.000000000E+00  6.256375494E+02  6.256375494E+02  0.000000000E+00  0.00000E+00  9.000E+00
      21    -1     0     0   511   502  0.000000000E+00  0.000000000E+00 -2.667885424E+02  2.667885424E+02  0.000000000E+00  0.00000E+00  9.000E+00
      25     1     1     2     0     0 -1.443603555E+02 -5.945340676E+01  8.579102335E+01  2.176228837E+02  1.250000000E+02  0.00000E+00  9.000E+00
      25     1     1     2     0     0  1.299768812E+02  4.094755250E+01  4.551123349E+02  4.912463019E+02  1.250000000E+02  0.00000E+00  9.000E+00
      21     1     1     2   511   501  1.438347428E+01  1.850585426E+01 -1.820543513E+02  1.835569062E+02  0.000000000E+00  0.00000E+00  9.000E+00
#rwgt            1           1   4.7099800226652111E-002           9      321880           0
</event>
<event>
      5   9999  3.79277E-02  1.02548E+02 -1.00000E+00  1.23339E-01
      21    -1     0     0   502   512  0.000000000E+00  0.000000000E+00  7.600674115E+02  7.600674115E+02  0.000000000E+00  0.00000E+00  9.000E+00
      21    -1     0     0   501   502  0.000000000E+00  0.000000000E+00 -2.036332439E+03  2.036332439E+03  0.000000000E+00  0.00000E+00  9.000E+00
      25     1     1     2     0     0  2.457922080E+02 -5.391710481E+01 -1.416861425E+03  1.444452202E+03  1.250000000E+02  0.00000E+00  9.000E+00
      25     1     1     2     0     0 -1.818357340E+02  1.340768297E+02 -5.743326951E+02  6.297014174E+02  1.250000000E+02  0.00000E+00  9.000E+00
      21     1     1     2   501   512 -6.395647398E+01 -8.015972490E+01  7.149290926E+02  7.222462319E+02  0.000000000E+00  0.00000E+00  9.000E+00
#rwgt            1           1   3.4226913382601962E-002           9      322058           0
</event>
<event>
      5   9999  3.79277E-02  1.00938E+01 -1.00000E+00  1.95289E-01
      21    -1     0     0   511   501  0.000000000E+00  0.000000000E+00  6.159198352E+02  6.159198352E+02  0.000000000E+00  0.00000E+00  9.000E+00
      21    -1     0     0   501   502  0.000000000E+00  0.000000000E+00 -1.077714222E+02  1.077714222E+02  0.000000000E+00  0.00000E+00  9.000E+00
      25     1     1     2     0     0  1.434923176E+02 -4.124848704E+01  3.933153176E+02  4.388774567E+02  1.250000000E+02  0.00000E+00  9.000E+00
      25     1     1     2     0     0 -1.512138172E+02  3.474740399E+01  3.251508992E+01  2.018792502E+02  1.250000000E+02  0.00000E+00  9.000E+00
      21     1     1     2   511   502  7.721499522E+00  6.501083050E+00  8.231800552E+01  8.293455051E+01  1.348699152E-06  0.00000E+00  9.000E+00
#rwgt            1           1   3.2191456987481250E-002           9      322193           0
</event>
<event>
      5   9999  3.79277E-02  1.19004E+02 -1.00000E+00  1.20522E-01
      21    -1     0     0   502   512  0.000000000E+00  0.000000000E+00  1.145456472E+03  1.145456472E+03  0.000000000E+00  0.00000E+00  9.000E+00
      21    -1     0     0   501   502  0.000000000E+00  0.000000000E+00 -3.420634202E+02  3.420634202E+02  0.000000000E+00  0.00000E+00  9.000E+00
      25     1     1     2     0     0 -1.873325120E+02  1.283254010E+02 -1.892682972E+02  3.209491656E+02  1.250000000E+02  0.00000E+00  9.000E+00
      25     1     1     2     0     0  1.062645889E+02 -4.120501399E+01  2.392206190E+00  1.691766494E+02  1.250000000E+02  0.00000E+00  9.000E+00
      21     1     1     2   501   512  8.106792302E+01 -8.712038700E+01  9.902691430E+02  9.973940773E+02  0.000000000E+00  0.00000E+00  9.000E+00
#rwgt            1           1   3.1868961661937263E-002           9      322461           0
</event>
<event>
      5   9999  3.79277E-02  8.49704E+01 -1.00000E+00  1.27095E-01
       2    -1     0     0   502     0  0.000000000E+00  0.000000000E+00  1.213542593E+03  1.213542593E+03  0.000000000E+00  0.00000E+00  9.000E+00
      21    -1     0     0   501   502  0.000000000E+00  0.000000000E+00 -6.658171339E+01  6.658171339E+01  0.000000000E+00  0.00000E+00  9.000E+00
      25     1     1     2     0     0 -2.236328451E+02 -9.250918054E+00  6.214245035E+02  6.722281178E+02  1.250000000E+02  0.00000E+00  9.000E+00
      25     1     1     2     0     0  1.388740382E+02  3.257941920E+00  2.099478216E+02  2.810688537E+02  1.250000000E+02  0.00000E+00  9.000E+00
       2     1     1     2   501     0  8.475880691E+01  5.992976135E+00  3.155885548E+02  3.268273352E+02  3.814697266E-06  0.00000E+00  9.000E+00
#rwgt            1           1   3.6486203234482151E-002           9      322519           0
</event>
<event>
      5   9999  3.79277E-02  4.02187E+01 -1.00000E+00  1.44693E-01
      21    -1     0     0   511   501  0.000000000E+00  0.000000000E+00  6.198005377E+02  6.198005377E+02  0.000000000E+00  0.00000E+00  9.000E+00
      21    -1     0     0   501   502  0.000000000E+00  0.000000000E+00 -1.267823925E+02  1.267823925E+02  0.000000000E+00  0.00000E+00  9.000E+00
      25     1     1     2     0     0 -1.105644919E+02  1.452446380E+01 -4.473174557E+01  1.733822251E+02  1.250000000E+02  0.00000E+00  9.000E+00
      25     1     1     2     0     0  7.152748616E+01 -2.420192315E+01  4.871242246E+02  5.085439258E+02  1.250000000E+02  0.00000E+00  9.000E+00
      21     1     1     2   511   502  3.903700570E+01  9.677459346E+00  5.062566620E+01  6.465677932E+01  6.743495762E-07  0.00000E+00  9.000E+00
#rwgt            1           1   5.2422804567936403E-002           9      322585           0
</event>
<event>
      5   9999  3.79277E-02  3.58470E+01 -1.00000E+00  1.47856E-01
      21    -1     0     0   502   501  0.000000000E+00  0.000000000E+00  9.048625652E+02  9.048625652E+02  0.000000000E+00  0.00000E+00  9.000E+00
      21    -1     0     0   501   512  0.000000000E+00  0.000000000E+00 -5.249551767E+02  5.249551767E+02  0.000000000E+00  0.00000E+00  9.000E+00
      25     1     1     2     0     0 -3.297046415E+02  5.286273492E+02  3.923740299E+02  7.468161783E+02  1.250000000E+02  0.00000E+00  9.000E+00
      25     1     1     2     0     0  3.644523734E+02 -5.198182027E+02 -1.193773366E+01  6.471506825E+02  1.250000000E+02  0.00000E+00  9.000E+00
      21     1     1     2   502   512 -3.474773186E+01 -8.809146462E+00 -5.289077961E-01  3.585088109E+01  2.013036025E-07  0.00000E+00  9.000E+00
#rwgt            1           1   3.1876306307960893E-002           9      322667           0
</event>
<event>
      5   9999  3.79277E-02  5.98093E+01 -1.00000E+00  1.34777E-01
      21    -1     0     0   502   501  0.000000000E+00  0.000000000E+00  2.144228154E+02  2.144228154E+02  0.000000000E+00  0.00000E+00  9.000E+00
      21    -1     0     0   501   511  0.000000000E+00  0.000000000E+00 -6.214893902E+02  6.214893902E+02  0.000000000E+00  0.00000E+00  9.000E+00
      25     1     1     2     0     0 -2.110448985E+02 -6.124204949E+01  6.002466830E+01  2.598432193E+02  1.250000000E+02  0.00000E+00  9.000E+00
      25     1     1     2     0     0  2.159658034E+02  1.208485455E+02 -3.787114780E+02  4.693537928E+02  1.250000000E+02  0.00000E+00  9.000E+00
      21     1     1     2   502   511 -4.920904888E+00 -5.960649603E+01 -8.837976501E+01  1.067151936E+02  9.536743164E-07  0.00000E+00  9.000E+00
#rwgt            1           1   4.1908551363343427E-002           9      322849           0
</event>
<event>
      5   9999  3.79277E-02  2.25942E+01 -1.00000E+00  1.62114E-01
      21    -1     0     0   502   501  0.000000000E+00  0.000000000E+00  3.126003869E+02  3.126003869E+02  0.000000000E+00  0.00000E+00  9.000E+00
      21    -1     0     0   501   512  0.000000000E+00  0.000000000E+00 -2.797264667E+02  2.797264667E+02  0.000000000E+00  0.00000E+00  9.000E+00
      25     1     1     2     0     0  2.020503717E+02 -1.107777554E+02 -9.197547157E+01  2.778138786E+02  1.250000000E+02  0.00000E+00  9.000E+00
      25     1     1     2     0     0 -2.064949507E+02  8.862505680E+01  1.342118464E+02  2.900558309E+02  1.250000000E+02  0.00000E+00  9.000E+00
      21     1     1     2   502   512  4.444578963E+00  2.215269858E+01 -9.362454587E+00  2.445714400E+01  6.951036328E-07  0.00000E+00  9.000E+00
#rwgt            1           1   3.4747021602240295E-002           9      322957           0
</event>
<event>
      5   9999  3.79277E-02  1.50524E+01 -1.00000E+00  1.77241E-01
      21    -1     0     0   511   501  0.000000000E+00  0.000000000E+00  1.857122896E+02  1.857122896E+02  0.000000000E+00  0.00000E+00  9.000E+00
      21    -1     0     0   501   502  0.000000000E+00  0.000000000E+00 -1.041486500E+03  1.041486500E+03  0.000000000E+00  0.00000E+00  9.000E+00
      25     1     1     2     0     0 -9.322081362E+00 -1.019970350E+02 -6.616715593E+01  1.746235633E+02  1.250000000E+02  0.00000E+00  9.000E+00
      25     1     1     2     0     0  1.332577886E+01  8.748683753E+01 -9.142687689E+02  9.270080393E+02  1.250000000E+02  0.00000E+00  9.000E+00
      21     1     1     2   511   502 -4.003697497E+00  1.451019747E+01  1.246617144E+02  1.255671870E+02  4.046097457E-06  0.00000E+00  9.000E+00
#rwgt            1           1   5.1230142368521532E-002           9      323113           0
</event>
<event>
      5   9999  3.79277E-02  3.87566E+01 -1.00000E+00  1.45696E-01
       2    -1     0     0   502     0  0.000000000E+00  0.000000000E+00  1.108772096E+03  1.108772096E+03  0.000000000E+00  0.00000E+00  9.000E+00
      21    -1     0     0   501   502  0.000000000E+00  0.000000000E+00 -5.351625700E+01  5.351625700E+01  0.000000000E+00  0.00000E+00  9.000E+00
      25     1     1     2     0     0 -1.573057246E+02 -5.182178346E+01  3.891510503E+02  4.410148843E+02  1.250000000E+02  0.00000E+00  9.000E+00
      25     1     1     2     0     0  1.468887933E+02  8.915222774E+01  4.054632524E+02  4.577661918E+02  1.250000000E+02  0.00000E+00  9.000E+00
       2     1     1     2   501     0  1.041693128E+01 -3.733044429E+01  2.606415363E+02  2.635072769E+02  3.814697266E-06  0.00000E+00  9.000E+00
#rwgt            1           1   5.7524946168484706E-002           9      323298           0
</event>
<event>
      5   9999  3.79277E-02  1.14387E+01 -1.00000E+00  1.89242E-01
      21    -1     0     0   502   511  0.000000000E+00  0.000000000E+00  1.340119024E+02  1.340119024E+02  0.000000000E+00  0.00000E+00  9.000E+00
      21    -1     0     0   501   502  0.000000000E+00  0.000000000E+00 -3.158909059E+02  3.158909059E+02  0.000000000E+00  0.00000E+00  9.000E+00
      25     1     1     2     0     0 -6.774096140E+01  1.050397475E+02 -1.813035578E+02  2.532156521E+02  1.250000000E+02  0.00000E+00  9.000E+00
      25     1     1     2     0     0  7.594115436E+01 -1.130147371E+02 -3.541987850E+00  1.848700501E+02  1.250000000E+02  0.00000E+00  9.000E+00
      21     1     1     2   501   511 -8.200192956E+00  7.974989645E+00  2.966542087E+00  1.181710609E+01  2.230201594E-07  0.00000E+00  9.000E+00
#rwgt            1           1   3.1583963967432550E-002           9      323494           0
</event>
<event>
      5   9999  3.79277E-02  4.19518E+01 -1.00000E+00  1.43568E-01
      21    -1     0     0   502   501  0.000000000E+00  0.000000000E+00  5.115053888E+02  5.115053888E+02  0.000000000E+00  0.00000E+00  9.000E+00
      21    -1     0     0   501   512  0.000000000E+00  0.000000000E+00 -1.688534214E+02  1.688534214E+02  0.000000000E+00  0.00000E+00  9.000E+00
      25     1     1     2     0     0  1.331065021E+02  6.803329782E+01  9.961120016E+01  2.188452917E+02  1.250000000E+02  0.00000E+00  9.000E+00
      25     1     1     2     0     0 -1.169646555E+02 -1.067553578E+02  3.174258856E+02  3.761138523E+02  1.250000000E+02  0.00000E+00  9.000E+00
      21     1     1     2   502   512 -1.614184659E+01  3.872205997E+01 -7.438511837E+01  8.539966612E+01  2.336015456E-06  0.00000E+00  9.000E+00
#rwgt            1           1   4.9121298491129887E-002           9      323761           0
</event>
<event>
      5   9999  3.79277E-02  1.01172E+01 -1.00000E+00  1.95174E-01
      21    -1     0     0   502   501  0.000000000E+00  0.000000000E+00  1.085046646E+02  1.085046646E+02  0.000000000E+00  0.00000E+00  9.000E+00
      21    -1     0     0   511   502  0.000000000E+00  0.000000000E+00 -2.261076810E+02  2.261076810E+02  0.000000000E+00  0.00000E+00  9.000E+00
      25     1     1     2     0     0  2.285802929E+01  3.574194815E+01 -1.336734088E+02  1.878657941E+02  1.250000000E+02  0.00000E+00  9.000E+00
      25     1     1     2     0     0 -1.321775857E+01 -3.267231099E+01  2.613339101E+01  1.324769534E+02  1.250000000E+02  0.00000E+00  9.000E+00
      21     1     1     2   511   501 -9.640270721E+00 -3.069637156E+00 -1.006299852E+01  1.426959814E+01  1.192092896E-07  0.00000E+00  9.000E+00
#rwgt            1           1   8.8820860529858089E-002           9      323849           0
</event>
<event>
      5   9999  3.79277E-02  9.86172E+00 -1.00000E+00  1.96459E-01
      21    -1     0     0   512   501  0.000000000E+00  0.000000000E+00  2.906932847E+02  2.906932847E+02  0.000000000E+00  0.00000E+00  9.000E+00
      21    -1     0     0   501   502  0.000000000E+00  0.000000000E+00 -2.806636317E+02  2.806636317E+02  0.000000000E+00  0.00000E+00  9.000E+00
      25     1     1     2     0     0 -6.769023678E+01  2.260642252E+02 -7.185881361E+00  2.671397368E+02  1.250000000E+02  0.00000E+00  9.000E+00
      25     1     1     2     0     0  7.424844332E+01 -2.186992050E+02 -2.223224282E+01  2.635553950E+02  1.250000000E+02  0.00000E+00  9.000E+00
      21     1     1     2   512   502 -6.558206542E+00 -7.365020233E+00  3.944777727E+01  4.066178461E+01  4.768371582E-07  0.00000E+00  9.000E+00
#rwgt            1           1   3.4639094326763709E-002           9      324091           0
</event>
<event>
      5   9999  3.79277E-02  7.58509E+00 -1.00000E+00  2.10741E-01
      21    -1     0     0   511   501  0.000000000E+00  0.000000000E+00  1.508952881E+02  1.508952881E+02  0.000000000E+00  0.00000E+00  9.000E+00
      21    -1     0     0   501   502  0.000000000E+00  0.000000000E+00 -1.364070432E+03  1.364070432E+03  0.000000000E+00  0.00000E+00  9.000E+00
      25     1     1     2     0     0  4.163415958E+01  7.920255835E+01 -1.099312434E+03  1.110008683E+03  1.250000000E+02  0.00000E+00  9.000E+00
      25     1     1     2     0     0 -3.416800395E+01 -7.786460404E+01 -2.372572353E+02  2.813296016E+02  1.250000000E+02  0.00000E+00  9.000E+00
      21     1     1     2   511   502 -7.466155638E+00 -1.337954309E+00  1.233945260E+02  1.236274349E+02  5.223489356E-06  0.00000E+00  9.000E+00
#rwgt            1           1   6.0320387807842400E-002           9      324333           0
</event>
<event>
      5   9999  3.79277E-02  8.23103E+01 -1.00000E+00  1.27754E-01
      21    -1     0     0   512   501  0.000000000E+00  0.000000000E+00  2.048255277E+02  2.048255277E+02  0.000000000E+00  0.00000E+00  9.000E+00
      21    -1     0     0   501   502  0.000000000E+00  0.000000000E+00 -4.464528329E+02  4.464528329E+02  0.000000000E+00  0.00000E+00  9.000E+00
      25     1     1     2     0     0  1.609008771E+02  3.189409287E+01 -1.579335910E+02  2.597582425E+02  1.250000000E+02  0.00000E+00  9.000E+00
      25     1     1     2     0     0 -1.935530525E+02 -1.074508851E+02 -1.414834435E+02  2.909485206E+02  1.250000000E+02  0.00000E+00  9.000E+00
      21     1     1     2   512   502  3.265217541E+01  7.555679227E+01  5.778972920E+01  1.005715975E+02  1.348699152E-06  0.00000E+00  9.000E+00
#rwgt            2          11   1.7728707592594498E-003           9      324625           0
</event>
<event>
      5   9999  3.79277E-02  1.25382E+02 -1.00000E+00  1.19565E-01
      21    -1     0     0   502   501  0.000000000E+00  0.000000000E+00  3.093979993E+02  3.093979993E+02  0.000000000E+00  0.00000E+00  9.000E+00
      21    -1     0     0   511   502  0.000000000E+00  0.000000000E+00 -2.843043343E+02  2.843043343E+02  0.000000000E+00  0.00000E+00  9.000E+00
      25     1     1     2     0     0  3.618840121E+01 -8.997887337E+01  2.107222424E+02  2.635045758E+02  1.250000000E+02  0.00000E+00  9.000E+00
      25     1     1     2     0     0  6.461822535E+01  1.542189992E+01 -6.343420527E+01  1.551201097E+02  1.250000000E+02  0.00000E+00  9.000E+00
      21     1     1     2   511   501 -1.008066266E+02  7.455697346E+01 -1.221943722E+02  1.750776480E+02  1.907348633E-06  0.00000E+00  9.000E+00
#rwgt            1           1   3.8471322661978308E-002           9      324645           0
</event>
<event>
      5   9999  3.79277E-02  1.09340E+02 -1.00000E+00  1.22109E-01
      21    -1     0     0   502   512  0.000000000E+00  0.000000000E+00  3.426751893E+02  3.426751893E+02  0.000000000E+00  0.00000E+00  9.000E+00
      21    -1     0     0   501   502  0.000000000E+00  0.000000000E+00 -3.795549964E+02  3.795549964E+02  0.000000000E+00  0.00000E+00  9.000E+00
      25     1     1     2     0     0 -7.617531543E+01 -4.434165300E+00 -3.111632458E+02  3.439039197E+02  1.250000000E+02  0.00000E+00  9.000E+00
      25     1     1     2     0     0 -3.986314214E-01 -7.361475728E+01  1.960295368E+02  2.438685521E+02  1.250000000E+02  0.00000E+00  9.000E+00
      21     1     1     2   501   512  7.657394685E+01  7.804892258E+01  7.825390183E+01  1.344577138E+02  9.536743164E-07  0.00000E+00  9.000E+00
#rwgt            1           1   4.9875006397197760E-002           9      324710           0
</event>
<event>
      5   9999  3.79277E-02  1.40318E+02 -1.00000E+00  1.17554E-01
      21    -1     0     0   502   501  0.000000000E+00  0.000000000E+00  7.633755116E+02  7.633755116E+02  0.000000000E+00  0.00000E+00  9.000E+00
      21    -1     0     0   511   502  0.000000000E+00  0.000000000E+00 -1.968442124E+02  1.968442124E+02  0.000000000E+00  0.00000E+00  9.000E+00
      25     1     1     2     0     0 -7.177693824E+01  1.169048967E+02 -7.119795432E+01  1.987783500E+02  1.250000000E+02  0.00000E+00  9.000E+00
      25     1     1     2     0     0 -5.279317172E+01 -1.814922819E+02  5.527468447E+02  5.973948793E+02  1.250000000E+02  0.00000E+00  9.000E+00
      21     1     1     2   511   501  1.245701100E+02  6.458738522E+01  8.498240882E+01  1.640464947E+02  2.336015456E-06  0.00000E+00  9.000E+00
#rwgt            2          11   3.4753726548363540E-003           9      324831           0
</event>
<event>
      5   9999  3.79277E-02  1.72544E+01 -1.00000E+00  1.71840E-01
      21    -1     0     0   502   512  0.000000000E+00  0.000000000E+00  3.588822037E+02  3.588822037E+02  0.000000000E+00  0.00000E+00  9.000E+00
      21    -1     0     0   501   502  0.000000000E+00  0.000000000E+00 -1.467484655E+03  1.467484655E+03  0.000000000E+00  0.00000E+00  9.000E+00
      25     1     1     2     0     0 -1.480894673E+02 -8.399515115E+01 -1.304517062E+03  1.321504991E+03  1.250000000E+02  0.00000E+00  9.000E+00
      25     1     1     2     0     0  1.648193474E+02  7.977304991E+01 -7.450577641E+01  2.338915721E+02  1.250000000E+02  0.00000E+00  9.000E+00
      21     1     1     2   501   512 -1.672988012E+01  4.222101234E+00  2.704203875E+02  2.709702955E+02  3.814697266E-06  0.00000E+00  9.000E+00
#rwgt            1           1   5.6405453046938767E-002           9      324866           0
</event>
<event>
      5   9999  3.79277E-02  2.37826E+01 -1.00000E+00  1.60392E-01
      21    -1     0     0   502   511  0.000000000E+00  0.000000000E+00  3.809189156E+02  3.809189156E+02  0.000000000E+00  0.00000E+00  9.000E+00
      21    -1     0     0   501   502  0.000000000E+00  0.000000000E+00 -1.138812647E+02  1.138812647E+02  0.000000000E+00  0.00000E+00  9.000E+00
      25     1     1     2     0     0  1.072597507E+02  3.036291431E+01  2.234957838E+02  2.792882491E+02  1.250000000E+02  0.00000E+00  9.000E+00
      25     1     1     2     0     0 -1.160927539E+02 -8.281471371E+00  5.790319429E+00  1.708936455E+02  1.250000000E+02  0.00000E+00  9.000E+00
      21     1     1     2   501   511  8.833003226E+00 -2.208144294E+01  3.775154762E+01  4.461828567E+01  6.743495762E-07  0.00000E+00  9.000E+00
#rwgt            1           1   3.7329048842878902E-002           9      325342           0
</event>
<event>
      5   9999  3.79277E-02  5.85254E+01 -1.00000E+00  1.35283E-01
      21    -1     0     0   502   501  0.000000000E+00  0.000000000E+00  8.694205445E+01  8.694205445E+01  0.000000000E+00  0.00000E+00  9.000E+00
       5    -1     0     0   501     0  0.000000000E+00  0.000000000E+00 -7.239398080E+02  7.239398080E+02  0.000000000E+00  0.00000E+00  9.000E+00
      25     1     1     2     0     0 -1.012443791E+02  9.213504602E+01 -1.978460533E+02  2.711223927E+02  1.250000000E+02  0.00000E+00  9.000E+00
      25     1     1     2     0     0  4.480973224E+01 -1.076384156E+02 -1.051901225E+02  2.007085013E+02  1.250000000E+02  0.00000E+00  9.000E+00
       5     1     1     2   502     0  5.643464691E+01  1.550336954E+01 -3.339615777E+02  3.390509685E+02  5.394796609E-06  0.00000E+00  9.000E+00
#rwgt            1           1   3.5739178246999674E-002           9      325523           0
</event>
<event>
      5   9999  3.79277E-02  4.88372E+01 -1.00000E+00  1.39661E-01
      21    -1     0     0   511   501  0.000000000E+00  0.000000000E+00  2.970375610E+02  2.970375610E+02  0.000000000E+00  0.00000E+00  9.000E+00
      21    -1     0     0   501   502  0.000000000E+00  0.000000000E+00 -2.113577840E+02  2.113577840E+02  0.000000000E+00  0.00000E+00  9.000E+00
      25     1     1     2     0     0 -3.108886269E+01 -1.095574936E+02  6.337501267E+01  1.805844789E+02  1.250000000E+02  0.00000E+00  9.000E+00
      25     1     1     2     0     0 -6.509175073E-01  1.466743238E+02 -8.445749500E+01  2.104087675E+02  1.250000000E+02  0.00000E+00  9.000E+00
      21     1     1     2   511   502  3.173978020E+01 -3.711683025E+01  1.067622594E+02  1.174020986E+02  1.907348633E-06  0.00000E+00  9.000E+00
#rwgt            1           1   3.9096641660576949E-002           9      325616           0
</event>
<event>
      5   9999  3.79277E-02  1.62990E+02 -1.00000E+00  1.14982E-01
      21    -1     0     0   502   501  0.000000000E+00  0.000000000E+00  4.053016327E+02  4.053016327E+02  0.000000000E+00  0.00000E+00  9.000E+00
      21    -1     0     0   501   512  0.000000000E+00  0.000000000E+00 -4.563620114E+02  4.563620114E+02  0.000000000E+00  0.00000E+00  9.000E+00
      25     1     1     2     0     0  4.926510884E+01 -7.802920523E+01 -2.328426705E+02  2.799219838E+02  1.250000000E+02  0.00000E+00  9.000E+00
      25     1     1     2     0     0  1.126723630E+02  5.953914387E+01  3.210611764E+02  3.673489486E+02  1.250000000E+02  0.00000E+00  9.000E+00
      21     1     1     2   502   512 -1.619374718E+02  1.849006136E+01 -1.392788846E+02  2.143927117E+02  2.697398305E-06  0.00000E+00  9.000E+00
#rwgt            2          11   2.2790569198551996E-003           9      325726           0
</event>
<event>
      5   9999  3.79277E-02  2.02868E+01 -1.00000E+00  1.65860E-01
      21    -1     0     0   502   501  0.000000000E+00  0.000000000E+00  8.749967692E+02  8.749967692E+02  0.000000000E+00  0.00000E+00  9.000E+00
      21    -1     0     0   511   502  0.000000000E+00  0.000000000E+00 -6.756814584E+01  6.756814584E+01  0.000000000E+00  0.00000E+00  9.000E+00
      25     1     1     2     0     0 -1.602789127E+02  4.983924044E+01  3.782224207E+02  4.322620493E+02  1.250000000E+02  0.00000E+00  9.000E+00
      25     1     1     2     0     0  1.479706070E+02 -6.596565802E+01  4.414767430E+02  4.865937558E+02  1.250000000E+02  0.00000E+00  9.000E+00
      21     1     1     2   511   501  1.230830572E+01  1.612641758E+01 -1.227054037E+01  2.370910995E+01  7.907449699E-07  0.00000E+00  9.000E+00
#rwgt            1           1   3.4454769921705097E-002           9      325761           0
</event>
<event>
      5   9999  3.79277E-02  2.72866E+01 -1.00000E+00  1.55956E-01
      21    -1     0     0   502   501  0.000000000E+00  0.000000000E+00  1.237041838E+02  1.237041838E+02  0.000000000E+00  0.00000E+00  9.000E+00
      21    -1     0     0   501   512  0.000000000E+00  0.000000000E+00 -8.426858473E+02  8.426858473E+02  0.000000000E+00  0.00000E+00  9.000E+00
      25     1     1     2     0     0 -4.157111271E+01 -1.659633160E+02 -7.963411683E+00  2.120386654E+02  1.250000000E+02  0.00000E+00  9.000E+00
      25     1     1     2     0     0  6.363585420E+01  1.499101624E+02 -4.845800298E+02  5.262750079E+02  1.250000000E+02  0.00000E+00  9.000E+00
      21     1     1     2   502   512 -2.206474149E+01  1.605315364E+01 -2.264382221E+02  2.280763578E+02  3.814697266E-06  0.00000E+00  9.000E+00
#rwgt            1           1   2.9789651917569913E-002           9      325914           0
</event>
<event>
      5   9999  3.79277E-02  2.49857E+01 -1.00000E+00  1.58770E-01
      21    -1     0     0   511   501  0.000000000E+00  0.000000000E+00  9.619231549E+02  9.619231549E+02  0.000000000E+00  0.00000E+00  9.000E+00
      21    -1     0     0   501   502  0.000000000E+00  0.000000000E+00 -2.312957511E+02  2.312957511E+02  0.000000000E+00  0.00000E+00  9.000E+00
      25     1     1     2     0     0  1.090800657E+02 -3.648248067E+01  2.927082744E+02  3.384266036E+02  1.250000000E+02  0.00000E+00  9.000E+00
      25     1     1     2     0     0 -9.128575365E+01  1.894260214E+01 -1.789824310E+02  2.373849650E+02  1.250000000E+02  0.00000E+00  9.000E+00
      21     1     1     2   511   502 -1.779431203E+01  1.753987853E+01  6.169015605E+02  6.174073373E+02  1.078959322E-05  0.00000E+00  9.000E+00
#rwgt            1           1   3.8909451369246700E-002           9      326212           0
</event>
<event>
      5   9999  3.79277E-02  8.71213E+00 -1.00000E+00  2.02943E-01
      21    -1     0     0   502   512  0.000000000E+00  0.000000000E+00  1.830402520E+02  1.830402520E+02  0.000000000E+00  0.00000E+00  9.000E+00
      21    -1     0     0   501   502  0.000000000E+00  0.000000000E+00 -2.599369601E+02  2.599369601E+02  0.000000000E+00  0.00000E+00  9.000E+00
      25     1     1     2     0     0 -5.732108573E+01 -1.475461140E+02  2.596267430E+01  2.033583612E+02  1.250000000E+02  0.00000E+00  9.000E+00
      25     1     1     2     0     0  5.472739802E+01  1.558631998E+02 -1.018774797E+02  2.308515671E+02  1.250000000E+02  0.00000E+00  9.000E+00
      21     1     1     2   501   512  2.593687703E+00 -8.317085828E+00 -9.819027166E-01  8.767283816E+00  2.202651724E-07  0.00000E+00  9.000E+00
#rwgt            1           1   4.3808673199724271E-002           9      326390           0
</event>
<event>
      5   9999  3.79277E-02  7.25088E+01 -1.00000E+00  1.30451E-01
      21    -1     0     0   511   501  0.000000000E+00  0.000000000E+00  8.519821263E+02  8.519821263E+02  0.000000000E+00  0.00000E+00  9.000E+00
      21    -1     0     0   501   502  0.000000000E+00  0.000000000E+00 -7.212317988E+01  7.212317988E+01  0.000000000E+00  0.00000E+00  9.000E+00
      25     1     1     2     0     0 -1.371364391E+02 -1.083561212E+02  3.755604999E+02  4.326871168E+02  1.250000000E+02  0.00000E+00  9.000E+00
      25     1     1     2     0     0  1.214533535E+02  3.756364890E+01  1.707214739E+02  2.468456328E+02  1.250000000E+02  0.00000E+00  9.000E+00
      21     1     1     2   511   502  1.568308561E+01  7.079247225E+01  2.335769726E+02  2.445725565E+02  0.000000000E+00  0.00000E+00  9.000E+00
#rwgt            1           1   3.1994206193843140E-002           9      326720           0
</event>
<event>
      5   9999  3.79277E-02  1.38763E+01 -1.00000E+00  1.80630E-01
       2    -1     0     0   502     0  0.000000000E+00  0.000000000E+00  4.492430141E+02  4.492430141E+02  0.000000000E+00  0.00000E+00  9.000E+00
      21    -1     0     0   501   502  0.000000000E+00  0.000000000E+00 -3.979158318E+02  3.979158318E+02  0.000000000E+00  0.00000E+00  9.000E+00
      25     1     1     2     0     0 -8.410845835E+01 -7.127961728E+01 -3.068535799E+02  3.491978466E+02  1.250000000E+02  0.00000E+00  9.000E+00
      25     1     1     2     0     0  9.470610939E+01  6.232179146E+01  3.234119186E+01  1.718260910E+02  1.250000000E+02  0.00000E+00  9.000E+00
       2     1     1     2   501     0 -1.059765104E+01  8.957825821E+00  3.258395703E+02  3.261349083E+02  5.394796609E-06  0.00000E+00  9.000E+00
#rwgt            1           1   2.8300885354735832E-002           9      326875           0
</event>
<event>
      5   9999  3.79277E-02  3.85683E+01 -1.00000E+00  1.45829E-01
      21    -1     0     0   502   501  0.000000000E+00  0.000000000E+00  7.669772057E+01  7.669772057E+01  0.000000000E+00  0.00000E+00  9.000E+00
      21    -1     0     0   511   502  0.000000000E+00  0.000000000E+00 -7.379196667E+02  7.379196667E+02  0.000000000E+00  0.00000E+00  9.000E+00
      25     1     1     2     0     0  1.216449813E+02 -7.620013294E+01 -3.227337519E+02  3.746812463E+02  1.250000000E+02  0.00000E+00  9.000E+00
      25     1     1     2     0     0 -1.511710703E+02  1.010139190E+02 -2.056707120E+02  3.016321370E+02  1.250000000E+02  0.00000E+00  9.000E+00
      21     1     1     2   511   501  2.952608897E+01 -2.481378603E+01 -1.328174823E+02  1.383040039E+02  1.907348633E-06  0.00000E+00  9.000E+00
#rwgt            1           1   4.4558507195263906E-002           9      327134           0
</event>
<event>
      5   9999  3.79277E-02  3.43235E+01 -1.00000E+00  1.49087E-01
      21    -1     0     0   502   501  0.000000000E+00  0.000000000E+00  4.170396330E+01  4.170396330E+01  0.000000000E+00  0.00000E+00  9.000E+00
      21    -1     0     0   501   512  0.000000000E+00  0.000000000E+00 -1.047908142E+03  1.047908142E+03  0.000000000E+00  0.00000E+00  9.000E+00
      25     1     1     2     0     0  1.467196139E+02  2.084977350E+01 -4.596810933E+02  4.988918376E+02  1.250000000E+02  0.00000E+00  9.000E+00
      25     1     1     2     0     0 -1.161552271E+02 -3.646764893E+01 -3.484770247E+02  3.897219046E+02  1.250000000E+02  0.00000E+00  9.000E+00
      21     1     1     2   502   512 -3.056438676E+01  1.561787543E+01 -1.980460611E+02  2.009983634E+02  3.814697266E-06  0.00000E+00  9.000E+00
#rwgt            1           1   3.7265076094080828E-002           9      327254           0
</event>
<event>
      5   9999  3.79277E-02  8.57706E+01 -1.00000E+00  1.26902E-01
       2    -1     0     0   502     0  0.000000000E+00  0.000000000E+00  1.934270724E+03  1.934270724E+03  0.000000000E+00  0.00000E+00  9.000E+00
      21    -1     0     0   501   502  0.000000000E+00  0.000000000E+00 -3.354856288E+01  3.354856288E+01  0.000000000E+00  0.00000E+00  9.000E+00
      25     1     1     2     0     0 -5.037634053E+01 -7.223981103E+01  3.367188461E+02  3.698120433E+02  1.250000000E+02  0.00000E+00  9.000E+00
      25     1     1     2     0     0  6.073728169E+01  1.573823498E+02  7.296739589E+02  7.592807832E+02  1.250000000E+02  0.00000E+00  9.000E+00
       2     1     1     2   501     0 -1.036094117E+01 -8.514253881E+01  8.343293558E+02  8.387264602E+02  1.078959322E-05  0.00000E+00  9.000E+00
#rwgt            1           1   4.2993901708037310E-002           9      327385           0
</event>
<event>
      5   9999  3.79277E-02  2.42718E+02 -1.00000E+00  1.08671E-01
      21    -1     0     0   502   501  0.000000000E+00  0.000000000E+00  6.797262991E+02  6.797262991E+02  0.000000000E+00  0.00000E+00  9.000E+00
      21    -1     0     0   501   511  0.000000000E+00  0.000000000E+00 -1.222289454E+03  1.222289454E+03  0.000000000E+00  0.00000E+00  9.000E+00
      25     1     1     2     0     0  1.729372795E+02  4.479561794E+01  4.720859399E+02  5.200039276E+02  1.250000000E+02  0.00000E+00  9.000E+00
      25     1     1     2     0     0 -1.045023313E+02  1.880747196E+02  7.953159686E+01  2.612338268E+02  1.250000000E+02  0.00000E+00  9.000E+00
      21     1     1     2   502   511 -6.843494826E+01 -2.328703375E+02 -1.094180692E+03  1.120777999E+03  2.642899792E-05  0.00000E+00  9.000E+00
#rwgt            1           1   3.1850839134204167E-002           9      327510           0
</event>
<event>
      5   9999  3.79277E-02  3.73203E+01 -1.00000E+00  1.46733E-01
      21    -1     0     0   502   501  0.000000000E+00  0.000000000E+00  1.694999866E+02  1.694999866E+02  0.000000000E+00  0.00000E+00  9.000E+00
       2    -1     0     0   501     0  0.000000000E+00  0.000000000E+00 -1.508339189E+03  1.508339189E+03  0.000000000E+00  0.00000E+00  9.000E+00
      25     1     1     2     0     0 -3.002460630E+01 -1.198226614E+02  1.032644786E+02  2.038320380E+02  1.250000000E+02  0.00000E+00  9.000E+00
      25     1     1     2     0     0  5.062150126E+00  1.475657797E+02 -5.863563262E+02  6.174463750E+02  1.250000000E+02  0.00000E+00  9.000E+00
       2     1     1     2   502     0  2.496245617E+01 -2.774311829E+01 -8.557473550E+02  8.565607629E+02  0.000000000E+00  0.00000E+00  9.000E+00
#rwgt            1           1   3.5802487279993980E-002           9      327563           0
</event>
<event>
      5   9999  3.79277E-02  2.31652E+02 -1.00000E+00  1.09374E-01
      21    -1     0     0   502   501  0.000000000E+00  0.000000000E+00  4.793402233E+02  4.793402233E+02  0.000000000E+00  0.00000E+00  9.000E+00
       2    -1     0     0   501     0  0.000000000E+00  0.000000000E+00 -3.359011805E+03  3.359011805E+03  0.000000000E+00  0.00000E+00  9.000E+00
      25     1     1     2     0     0  1.946097491E+02 -3.882521779E+02 -2.531460419E+02  5.179967438E+02  1.250000000E+02  0.00000E+00  9.000E+00
      25     1     1     2     0     0  3.694478023E+01  3.815499410E+02  2.234522196E+02  4.609784905E+02  1.250000000E+02  0.00000E+00  9.000E+00
       2     1     1     2   502     0 -2.315545293E+02  6.702236860E+00 -2.849977760E+03  2.859376794E+03  5.285799584E-05  0.00000E+00  9.000E+00
#rwgt            1           1  0.13436723508524298                9      327730           0
</event>
<event>
      5   9999  3.79277E-02  2.54946E+01 -1.00000E+00  1.58116E-01
      21    -1     0     0   511   501  0.000000000E+00  0.000000000E+00  1.438676826E+02  1.438676826E+02  0.000000000E+00  0.00000E+00  9.000E+00
      21    -1     0     0   501   502  0.000000000E+00  0.000000000E+00 -4.108840996E+02  4.108840996E+02  0.000000000E+00  0.00000E+00  9.000E+00
      25     1     1     2     0     0  6.954692003E+00  3.839908203E+01 -3.484642074E+02  3.722568483E+02  1.250000000E+02  0.00000E+00  9.000E+00
      25     1     1     2     0     0 -2.984230762E+01 -4.962982813E+01  7.041170901E+01  1.547142267E+02  1.250000000E+02  0.00000E+00  9.000E+00
      21     1     1     2   511   502  2.288761562E+01  1.123074610E+01  1.103608139E+01  2.778070732E+01  3.953724850E-07  0.00000E+00  9.000E+00
#rwgt            1           1   4.6284137553503364E-002           9      327899           0
</event>
<event>
      5   9999  3.79277E-02  1.95302E+02 -1.00000E+00  1.12025E-01
      21    -1     0     0   512   501  0.000000000E+00  0.000000000E+00  4.443322774E+02  4.443322774E+02  0.000000000E+00  0.00000E+00  9.000E+00
      21    -1     0     0   501   502  0.000000000E+00  0.000000000E+00 -3.662548102E+02  3.662548102E+02  0.000000000E+00  0.00000E+00  9.000E+00
      25     1     1     2     0     0 -1.643153254E+01  8.177302018E+01 -1.712827368E+02  2.278587238E+02  1.250000000E+02  0.00000E+00  9.000E+00
      25     1     1     2     0     0 -1.780716453E+02 -6.412487067E+01 -4.327241828E+01  2.309090992E+02  1.250000000E+02  0.00000E+00  9.000E+00
      21     1     1     2   512   502  1.945031778E+02 -1.764814951E+01  2.926326223E+02  3.518192647E+02  0.000000000E+00  0.00000E+00  9.000E+00
#rwgt            2          11   2.5114890600030477E-003           9      328143           0
</event>
<event>
      5   9999  3.79277E-02  8.23939E+01 -1.00000E+00  1.27733E-01
      21    -1     0     0   502   501  0.000000000E+00  0.000000000E+00  1.402668775E+02  1.402668775E+02  0.000000000E+00  0.00000E+00  9.000E+00
       2    -1     0     0   501     0  0.000000000E+00  0.000000000E+00 -3.373060118E+03  3.373060118E+03  0.000000000E+00  0.00000E+00  9.000E+00
      25     1     1     2     0     0  4.188277185E+01  2.245048006E+01  6.349572171E+01  1.480368107E+02  1.250000000E+02  0.00000E+00  9.000E+00
      25     1     1     2     0     0 -1.159739912E+02 -5.849558857E+01 -2.053351503E+02  2.732384023E+02  1.250000000E+02  0.00000E+00  9.000E+00
       2     1     1     2   502     0  7.409121933E+01  3.604510851E+01 -3.090953812E+03  3.092051783E+03  0.000000000E+00  0.00000E+00  9.000E+00
#rwgt            2          13   8.5386935266412306E-003           9      328433           0
</event>
<event>
      5   9999  3.79277E-02  2.14431E+02 -1.00000E+00  1.10558E-01
       1    -1     0     0   502     0  0.000000000E+00  0.000000000E+00  2.541041591E+03  2.541041591E+03  0.000000000E+00  0.00000E+00  9.000E+00
      21    -1     0     0   501   502  0.000000000E+00  0.000000000E+00 -2.307039438E+02  2.307039438E+02  0.000000000E+00  0.00000E+00  9.000E+00
      25     1     1     2     0     0  3.485503769E+02 -1.048529870E+02  6.901499336E+02  7.901983580E+02  1.250000000E+02  0.00000E+00  9.000E+00
      25     1     1     2     0     0 -1.925745910E+02 -4.229419157E+01 -9.570651414E+01  2.523063784E+02  1.250000000E+02  0.00000E+00  9.000E+00
       1     1     1     2   501     0 -1.559757858E+02  1.471471786E+02  1.715894227E+03  1.729240798E+03  0.000000000E+00  0.00000E+00  9.000E+00
#rwgt            2          17   3.0187704683416310E-004           9      328512           0
</event>
<event>
      5   9999  3.79277E-02  5.71900E+01 -1.00000E+00  1.35826E-01
      21    -1     0     0   502   501  0.000000000E+00  0.000000000E+00  1.147490618E+03  1.147490618E+03  0.000000000E+00  0.00000E+00  9.000E+00
      21    -1     0     0   511   502  0.000000000E+00  0.000000000E+00 -1.084610798E+02  1.084610798E+02  0.000000000E+00  0.00000E+00  9.000E+00
      25     1     1     2     0     0 -2.886380436E+01  1.773724660E+02  1.212895409E+02  2.502603916E+02  1.250000000E+02  0.00000E+00  9.000E+00
      25     1     1     2     0     0 -2.788989960E+01 -1.844229284E+02  9.214204893E+02  9.483830350E+02  1.250000000E+02  0.00000E+00  9.000E+00
      21     1     1     2   511   501  5.675370396E+01  7.050462352E+00 -3.680491879E+00  5.730827125E+01  5.559551151E-07  0.00000E+00  9.000E+00
#rwgt            2          11   1.8235840531916939E-003           9      328651           0
</event>
<event>
      5   9999  3.79277E-02  4.03084E+01 -1.00000E+00  1.44634E-01
      21    -1     0     0   502   501  0.000000000E+00  0.000000000E+00  8.705620236E+02  8.705620236E+02  0.000000000E+00  0.00000E+00  9.000E+00
      21    -1     0     0   512   502  0.000000000E+00  0.000000000E+00 -6.036436279E+01  6.036436279E+01  0.000000000E+00  0.00000E+00  9.000E+00
      25     1     1     2     0     0 -5.364942565E+01  1.325661343E+02  5.316085186E+02  5.645216187E+02  1.250000000E+02  0.00000E+00  9.000E+00
      25     1     1     2     0     0  9.131918647E+01 -1.182220534E+02  2.502983826E+02  3.171591526E+02  1.250000000E+02  0.00000E+00  9.000E+00
      21     1     1     2   512   501 -3.766976082E+01 -1.434408090E+01  2.829075958E+01  4.924561518E+01  1.011524364E-06  0.00000E+00  9.000E+00
#rwgt            1           1   4.3905284516773613E-002           9      328761           0
</event>
<event>
      5   9999  3.79277E-02  5.41424E+01 -1.00000E+00  1.37132E-01
      21    -1     0     0   502   501  0.000000000E+00  0.000000000E+00  1.689921383E+02  1.689921383E+02  0.000000000E+00  0.00000E+00  9.000E+00
      21    -1     0     0   501   511  0.000000000E+00  0.000000000E+00 -6.336464823E+02  6.336464823E+02  0.000000000E+00  0.00000E+00  9.000E+00
      25     1     1     2     0     0  6.255014226E+01  2.009583039E+02 -2.995051491E+02  3.868140309E+02  1.250000000E+02  0.00000E+00  9.000E+00
      25     1     1     2     0     0 -8.500754316E+01 -2.502235282E+02 -6.128451992E+01  2.986953111E+02  1.250000000E+02  0.00000E+00  9.000E+00
      21     1     1     2   502   511  2.245740090E+01  4.926522435E+01 -1.038646750E+02  1.171292786E+02  1.348699152E-06  0.00000E+00  9.000E+00
#rwgt            1           1   3.6816735214998543E-002           9      328937           0
</event>
<event>
      5   9999 -3.79277E-02  4.59639E+01 -1.00000E+00  1.41194E-01
      21    -1     0     0   502   512  0.000000000E+00  0.000000000E+00  3.906180036E+02  3.906180036E+02  0.000000000E+00  0.00000E+00  9.000E+00
      21    -1     0     0   501   502  0.000000000E+00  0.000000000E+00 -2.118258799E+02  2.118258799E+02  0.000000000E+00  0.00000E+00  9.000E+00
      25     1     1     2     0     0  5.557407568E+01 -1.777577886E+02 -1.554337810E+01  2.248397338E+02  1.250000000E+02  0.00000E+00  9.000E+00
      25     1     1     2     0     0 -1.040707745E+01  1.862795915E+02  5.546095144E+01  2.313207959E+02  1.250000000E+02  0.00000E+00  9.000E+00
      21     1     1     2   501   512 -4.516699822E+01 -8.521802917E+00  1.388745504E+02  1.462833538E+02  1.907348633E-06  0.00000E+00  9.000E+00
#rwgt            1           1  -9.0116870209982256E-002           9      329049           0
</event>
<event>
      5   9999  3.79277E-02  1.04886E+02 -1.00000E+00  1.22903E-01
      21    -1     0     0   502   501  0.000000000E+00  0.000000000E+00  1.372261873E+02  1.372261873E+02  0.000000000E+00  0.00000E+00  9.000E+00
      21    -1     0     0   501   511  0.000000000E+00  0.000000000E+00 -1.015563974E+03  1.015563974E+03  0.000000000E+00  0.00000E+00  9.000E+00
      25     1     1     2     0     0  2.413472061E+02  8.478551414E+01 -3.736393712E+02  4.697535918E+02  1.250000000E+02  0.00000E+00  9.000E+00
      25     1     1     2     0     0 -2.714633266E+02  1.568420700E+01 -1.978542743E+02  3.587612658E+02  1.250000000E+02  0.00000E+00  9.000E+00
      21     1     1     2   502   511  3.011612049E+01 -1.004697211E+02 -3.068441413E+02  3.242753038E+02  3.814697266E-06  0.00000E+00  9.000E+00
#rwgt            1           1   8.7409462863125148E-002           9      329202           0
</event>
<event>
      5   9999  3.79277E-02  5.20320E+01 -1.00000E+00  1.38096E-01
       2    -1     0     0   502     0  0.000000000E+00  0.000000000E+00  9.816898561E+02  9.816898561E+02  0.000000000E+00  0.00000E+00  9.000E+00
      21    -1     0     0   501   502  0.000000000E+00  0.000000000E+00 -4.084549757E+02  4.084549757E+02  0.000000000E+00  0.00000E+00  9.000E+00
      25     1     1     2     0     0  3.455949370E+01  8.280973611E+01 -2.408103099E+01  1.557456486E+02  1.250000000E+02  0.00000E+00  9.000E+00
      25     1     1     2     0     0  3.508519743E+00 -4.733929337E+01 -3.037265750E+02  3.318556174E+02  1.250000000E+02  0.00000E+00  9.000E+00
       2     1     1     2   501     0 -3.806801344E+01 -3.547044274E+01  9.010424864E+02  9.025435658E+02  1.525878906E-05  0.00000E+00  9.000E+00
#rwgt            1           1   4.2656914917527579E-002           9      329325           0
</event>
<event>
      5   9999  3.79277E-02  9.78470E+01 -1.00000E+00  1.24255E-01
      21    -1     0     0   502   501  0.000000000E+00  0.000000000E+00  6.368448027E+02  6.368448027E+02  0.000000000E+00  0.00000E+00  9.000E+00
      21    -1     0     0   501   511  0.000000000E+00  0.000000000E+00 -2.175019927E+02  2.175019927E+02  0.000000000E+00  0.00000E+00  9.000E+00
      25     1     1     2     0     0 -4.536002362E+01 -1.513265919E+02 -7.053604648E+01  2.134422709E+02  1.250000000E+02  0.00000E+00  9.000E+00
      25     1     1     2     0     0  4.782478542E+01  5.351066074E+01  5.191382053E+02  5.387764631E+02  1.250000000E+02  0.00000E+00  9.000E+00
      21     1     1     2   502   511 -2.464761806E+00  9.781593119E+01 -2.925934881E+01  1.021280615E+02  2.523185073E-06  0.00000E+00  9.000E+00
#rwgt            1           1   2.9949087667398486E-002           9      329406           0
</event>
<event>
      5   9999  3.79277E-02  1.07111E+02 -1.00000E+00  1.22501E-01
      21    -1     0     0   502   512  0.000000000E+00  0.000000000E+00  1.572638351E+02  1.572638351E+02  0.000000000E+00  0.00000E+00  9.000E+00
      21    -1     0     0   501   502  0.000000000E+00  0.000000000E+00 -9.451615172E+02  9.451615172E+02  0.000000000E+00  0.00000E+00  9.000E+00
      25     1     1     2     0     0  1.796703074E+02  3.010741949E+01 -6.906594855E+02  7.251368154E+02  1.250000000E+02  0.00000E+00  9.000E+00
      25     1     1     2     0     0 -1.695794569E+02 -1.367420831E+02 -9.951013914E+01  2.701533959E+02  1.250000000E+02  0.00000E+00  9.000E+00
      21     1     1     2   501   512 -1.009085044E+01  1.066346636E+02  2.271942581E+00  1.071351411E+02  2.874031890E-07  0.00000E+00  9.000E+00
#rwgt            1           1  0.18051703168502961                9      329576           0
</event>
<event>
      5   9999  3.79277E-02  1.39676E+02 -1.00000E+00  1.17634E-01
      21    -1     0     0   511   501  0.000000000E+00  0.000000000E+00  4.739560174E+02  4.739560174E+02  0.000000000E+00  0.00000E+00  9.000E+00
      21    -1     0     0   501   502  0.000000000E+00  0.000000000E+00 -1.057788913E+03  1.057788913E+03  0.000000000E+00  0.00000E+00  9.000E+00
      25     1     1     2     0     0  7.948029427E+01 -2.519574692E+02 -6.104101152E+02  6.767755848E+02  1.250000000E+02  0.00000E+00  9.000E+00
      25     1     1     2     0     0 -3.241202479E+01  1.204512929E+02 -3.832591508E+02  4.219853433E+02  1.250000000E+02  0.00000E+00  9.000E+00
      21     1     1     2   511   502 -4.706826948E+01  1.315061763E+02  4.098363699E+02  4.329840026E+02  0.000000000E+00  0.00000E+00  9.000E+00
#rwgt            1           1   3.4876425939423507E-002           9      329755           0
</event>
<event>
      5   9999  3.79277E-02  4.12765E+01 -1.00000E+00  1.43999E-01
      21    -1     0     0   512   501  0.000000000E+00  0.000000000E+00  2.713088330E+02  2.713088330E+02  0.000000000E+00  0.00000E+00  9.000E+00
      21    -1     0     0   501   502  0.000000000E+00  0.000000000E+00 -5.470803861E+02  5.470803861E+02  0.000000000E+00  0.00000E+00  9.000E+00
      25     1     1     2     0     0 -1.945956544E+01 -1.753177653E+02  1.760113198E+02  2.787830307E+02  1.250000000E+02  0.00000E+00  9.000E+00
      25     1     1     2     0     0 -2.052847933E+01  1.855505229E+02 -4.439952235E+02  4.976014203E+02  1.250000000E+02  0.00000E+00  9.000E+00
      21     1     1     2   512   502  3.998804477E+01 -1.023275752E+01 -7.787649457E+00  4.200476801E+01  4.460403188E-07  0.00000E+00  9.000E+00
#rwgt            1           1   3.1686956388326540E-002           9      329840           0
</event>
<event>
      5   9999  3.79277E-02  2.60985E+01 -1.00000E+00  1.57365E-01
      21    -1     0     0   502   501  0.000000000E+00  0.000000000E+00  4.564759612E+01  4.564759612E+01  0.000000000E+00  0.00000E+00  9.000E+00
      21    -1     0     0   501   511  0.000000000E+00  0.000000000E+00 -5.339914949E+02  5.339914949E+02  0.000000000E+00  0.00000E+00  9.000E+00
      25     1     1     2     0     0 -5.994092248E+00 -7.623787590E+01 -1.896826749E+02  2.396928452E+02  1.250000000E+02  0.00000E+00  9.000E+00
      25     1     1     2     0     0  9.903633764E+00  5.043383116E+01 -2.341688691E+02  2.703732837E+02  1.250000000E+02  0.00000E+00  9.000E+00
      21     1     1     2   502   511 -3.909541516E+00  2.580404474E+01 -6.449235480E+01  6.957296218E+01  0.000000000E+00  0.00000E+00  9.000E+00
#rwgt            1           1   3.8891857844302942E-002           9      329921           0
</event>
<event>
      5   9999  3.79277E-02  5.85465E+01 -1.00000E+00  1.35275E-01
      21    -1     0     0   502   501  0.000000000E+00  0.000000000E+00  7.881182871E+01  7.881182871E+01  0.000000000E+00  0.00000E+00  9.000E+00
       1    -1     0     0   501     0  0.000000000E+00  0.000000000E+00 -1.367193025E+03  1.367193025E+03  0.000000000E+00  0.00000E+00  9.000E+00
      25     1     1     2     0     0 -1.920345112E+02 -1.076700440E+02 -4.898959525E+02  5.514464037E+02  1.250000000E+02  0.00000E+00  9.000E+00
      25     1     1     2     0     0  1.350922540E+02  1.212816495E+02 -2.142187572E+02  3.073659570E+02  1.250000000E+02  0.00000E+00  9.000E+00
       1     1     1     2   502     0  5.694225721E+01 -1.361160546E+01 -5.842664863E+02  5.871924927E+02  7.629394531E-06  0.00000E+00  9.000E+00
#rwgt            1           1   2.3122189534708192E-002           9      330021           0
</event>
<event>
      5   9999  3.79277E-02  8.96901E+01 -1.00000E+00  1.25991E-01
      21    -1     0     0   502   501  0.000000000E+00  0.000000000E+00  7.520289166E+02  7.520289166E+02  0.000000000E+00  0.00000E+00  9.000E+00
      21    -1     0     0   511   502  0.000000000E+00  0.000000000E+00 -2.077675065E+03  2.077675065E+03  0.000000000E+00  0.00000E+00  9.000E+00
      25     1     1     2     0     0  1.393813845E+01 -1.436776599E+02  3.780861330E+02  4.235701425E+02  1.250000000E+02  0.00000E+00  9.000E+00
      25     1     1     2     0     0 -1.703283011E+01  2.333143639E+02  2.999754497E+02  4.004197549E+02  1.250000000E+02  0.00000E+00  9.000E+00
      21     1     1     2   511   501  3.094691665E+00 -8.963670400E+01 -2.003707731E+03  2.005714084E+03  3.051757812E-05  0.00000E+00  9.000E+00
#rwgt            1           1   2.4689102456592178E-002           9      330146           0
</event>
<event>
      5   9999  3.85366E-02  1.02150E+02 -1.00000E+00  1.23414E-01
      21    -1     0     0   502   501  0.000000000E+00  0.000000000E+00  3.834087861E+02  3.834087861E+02  0.000000000E+00  0.00000E+00  9.000E+00
      -1    -1     0     0     0   502  0.000000000E+00  0.000000000E+00 -4.069989439E+02  4.069989439E+02  0.000000000E+00  0.00000E+00  9.000E+00
      25     1     1     2     0     0  2.279958242E+02  7.329718980E+00  6.064743729E+01  2.670934898E+02  1.250000000E+02  0.00000E+00  9.000E+00
      25     1     1     2     0     0 -2.427767158E+02 -1.084048854E+02  1.019181548E+02  3.109734123E+02  1.250000000E+02  0.00000E+00  9.000E+00
      -1     1     1     2     0   501  1.478089157E+01  1.010751665E+02 -1.861557498E+02  2.123408279E+02  0.000000000E+00  0.00000E+00  9.000E+00
#rwgt            1           1  0.31817152738535887                9      330207           0
</event>
<event>
      5   9999  3.79277E-02  2.08136E+01 -1.00000E+00  1.64953E-01
      21    -1     0     0   502   501  0.000000000E+00  0.000000000E+00  3.757761204E+02  3.757761204E+02  0.000000000E+00  0.00000E+00  9.000E+00
      21    -1     0     0   501   511  0.000000000E+00  0.000000000E+00 -1.545429751E+02  1.545429751E+02  0.000000000E+00  0.00000E+00  9.000E+00
      25     1     1     2     0     0 -1.614619714E+02 -3.386461236E+01  1.645924536E+02  2.644474541E+02  1.250000000E+02  0.00000E+00  9.000E+00
      25     1     1     2     0     0  1.430605965E+02  4.359068678E+01  9.904452590E+01  2.186350849E+02  1.250000000E+02  0.00000E+00  9.000E+00
      21     1     1     2   502   511  1.840137489E+01 -9.726074421E+00 -4.240383420E+01  4.723655657E+01  8.259061849E-07  0.00000E+00  9.000E+00
#rwgt            1           1   6.3116176908449381E-002           9      330441           0
</event>
<event>
      5   9999  3.79277E-02  7.92503E+01 -1.00000E+00  1.28548E-01
      21    -1     0     0   502   501  0.000000000E+00  0.000000000E+00  1.789638808E+02  1.789638808E+02  0.000000000E+00  0.00000E+00  9.000E+00
      21    -1     0     0   512   502  0.000000000E+00  0.000000000E+00 -1.481026845E+03  1.481026845E+03  0.000000000E+00  0.00000E+00  9.000E+00
      25     1     1     2     0     0 -3.098618099E+02  2.298957295E+01 -5.285578716E+02  6.257325989E+02  1.250000000E+02  0.00000E+00  9.000E+00
      25     1     1     2     0     0  3.802370304E+02  1.345124810E+01 -1.862384841E+02  4.416683239E+02  1.250000000E+02  0.00000E+00  9.000E+00
      21     1     1     2   512   501 -7.037522055E+01 -3.644082105E+01 -5.872666081E+02  5.925898026E+02  1.321449896E-05  0.00000E+00  9.000E+00
#rwgt            1           1   4.1159846291099367E-002           9      330607           0
</event>
<event>
      5   9999  3.79277E-02  1.28401E+02 -1.00000E+00  1.19134E-01
      21    -1     0     0   502   501  0.000000000E+00  0.000000000E+00  1.172171694E+02  1.172171694E+02  0.000000000E+00  0.00000E+00  9.000E+00
      21    -1     0     0   511   502  0.000000000E+00  0.000000000E+00 -6.834414109E+02  6.834414109E+02  0.000000000E+00  0.00000E+00  9.000E+00
      25     1     1     2     0     0 -4.697123011E+01 -1.550446114E+01  1.606324003E+01  1.353872684E+02  1.250000000E+02  0.00000E+00  9.000E+00
      25     1     1     2     0     0 -2.466942789E+01 -9.105231592E+01 -1.599569877E+02  2.238533958E+02  1.250000000E+02  0.00000E+00  9.000E+00
      21     1     1     2   511   501  7.164065801E+01  1.065567771E+02 -4.223304938E+02  4.414179161E+02  0.000000000E+00  0.00000E+00  9.000E+00
#rwgt            1           1  0.13058530454194539                9      330748           0
</event>
<event>
      5   9999  3.79277E-02  5.73043E+01 -1.00000E+00  1.35779E-01
      21    -1     0     0   502   501  0.000000000E+00  0.000000000E+00  4.910276877E+01  4.910276877E+01  0.000000000E+00  0.00000E+00  9.000E+00
       2    -1     0     0   501     0  0.000000000E+00  0.000000000E+00 -2.279129610E+03  2.279129610E+03  0.000000000E+00  0.00000E+00  9.000E+00
      25     1     1     2     0     0 -1.012673542E+02 -1.040577719E+02 -2.207604786E+02  2.923068350E+02  1.250000000E+02  0.00000E+00  9.000E+00
      25     1     1     2     0     0  8.787240228E+01  4.834100572E+01 -4.892436395E+02  5.148230286E+02  1.250000000E+02  0.00000E+00  9.000E+00
       2     1     1     2   502     0  1.339495189E+01  5.571676622E+01 -1.520022723E+03  1.521102515E+03  2.157918644E-05  0.00000E+00  9.000E+00
#rwgt            1           1   4.4221718507499674E-002           9      330841           0
</event>
<event>
      5   9999  3.79277E-02  3.73039E+01 -1.00000E+00  1.46745E-01
      21    -1     0     0   511   501  0.000000000E+00  0.000000000E+00  4.484980085E+01  4.484980085E+01  0.000000000E+00  0.00000E+00  9.000E+00
      21    -1     0     0   501   502  0.000000000E+00  0.000000000E+00 -1.924836911E+03  1.924836911E+03  0.000000000E+00  0.00000E+00  9.000E+00
      25     1     1     2     0     0 -1.523473593E+02 -1.044814337E+02 -4.433210458E+02  4.962707301E+02  1.250000000E+02  0.00000E+00  9.000E+00
      25     1     1     2     0     0  1.790554896E+02  7.843804798E+01 -1.406305416E+03  1.425318673E+03  1.250000000E+02  0.00000E+00  9.000E+00
      21     1     1     2   511   502 -2.670813027E+01  2.604338570E+01 -3.036064803E+01  4.809730876E+01  1.545128989E-06  0.00000E+00  9.000E+00
#rwgt            1           1   1.3660481895032066E-002           9      330956           0
</event>
<event>
      5   9999  3.79277E-02  2.43341E+01 -1.00000E+00  1.59634E-01
      21    -1     0     0   502   501  0.000000000E+00  0.000000000E+00  7.507825034E+01  7.507825034E+01  0.000000000E+00  0.00000E+00  9.000E+00
      21    -1     0     0   512   502  0.000000000E+00  0.000000000E+00 -8.051098791E+02  8.051098791E+02  0.000000000E+00  0.00000E+00  9.000E+00
      25     1     1     2     0     0  1.479840359E+02 -4.264079238E+01 -2.448376155E+02  3.150999366E+02  1.250000000E+02  0.00000E+00  9.000E+00
      25     1     1     2     0     0 -1.358882754E+02  2.152581854E+01 -1.794336149E+02  2.583610002E+02  1.250000000E+02  0.00000E+00  9.000E+00
      21     1     1     2   512   501 -1.209576045E+01  2.111497384E+01 -3.057603983E+02  3.067271927E+02  0.000000000E+00  0.00000E+00  9.000E+00
#rwgt            1           1   3.1594796681167096E-002           9      331102           0
</event>
<event>
      5   9999  3.79277E-02  1.52485E+01 -1.00000E+00  1.76714E-01
       2    -1     0     0   502     0  0.000000000E+00  0.000000000E+00  9.247612206E+02  9.247612206E+02  0.000000000E+00  0.00000E+00  9.000E+00
      21    -1     0     0   501   502  0.000000000E+00  0.000000000E+00 -1.593685493E+02  1.593685493E+02  0.000000000E+00  0.00000E+00  9.000E+00
      25     1     1     2     0     0 -7.388897363E+01 -6.049080114E+01 -9.883576915E+01  1.857746665E+02  1.250000000E+02  0.00000E+00  9.000E+00
      25     1     1     2     0     0  6.861346412E+01  4.618397581E+01  3.142461773E+02  3.481614956E+02  1.250000000E+02  0.00000E+00  9.000E+00
       2     1     1     2   501     0  5.275509513E+00  1.430682533E+01  5.499822631E+02  5.501936077E+02  1.078959322E-05  0.00000E+00  9.000E+00
#rwgt            1           1   4.0521319019096481E-002           9      331281           0
</event>
<event>
      5   9999  3.79277E-02  3.06708E+01 -1.00000E+00  1.52376E-01
      21    -1     0     0   502   501  0.000000000E+00  0.000000000E+00  1.672239072E+03  1.672239072E+03  0.000000000E+00  0.00000E+00  9.000E+00
      21    -1     0     0   501   511  0.000000000E+00  0.000000000E+00 -4.312068030E+01  4.312068030E+01  0.000000000E+00  0.00000E+00  9.000E+00
      25     1     1     2     0     0 -2.362723444E+01  6.352672461E+01  1.500858034E+03  1.507578764E+03  1.250000000E+02  0.00000E+00  9.000E+00
      25     1     1     2     0     0  1.004213544E+01 -3.602871910E+01  8.890663546E+01  1.578869941E+02  1.250000000E+02  0.00000E+00  9.000E+00
      21     1     1     2   502   511  1.358509900E+01 -2.749800551E+01  3.935372247E+01  4.989399457E+01  6.743495762E-07  0.00000E+00  9.000E+00
#rwgt            1           1   4.7174849612554332E-002           9      331512           0
</event>
<event>
      5   9999  3.79277E-02  7.07632E+00 -1.00000E+00  2.14890E-01
      21    -1     0     0   502   501  0.000000000E+00  0.000000000E+00  2.300138769E+02  2.300138769E+02  0.000000000E+00  0.00000E+00  9.000E+00
      21    -1     0     0   501   512  0.000000000E+00  0.000000000E+00 -2.393995824E+02  2.393995824E+02  0.000000000E+00  0.00000E+00  9.000E+00
      25     1     1     2     0     0 -1.433329571E+02  7.821152989E+01  1.369039044E+01  2.060917436E+02  1.250000000E+02  0.00000E+00  9.000E+00
      25     1     1     2     0     0  1.363651431E+02 -7.697708623E+01  3.621398445E+01  2.036108463E+02  1.250000000E+02  0.00000E+00  9.000E+00
      21     1     1     2   502   512  6.967813987E+00 -1.234443661E+00 -5.929008043E+01  5.971086936E+01  6.743495762E-07  0.00000E+00  9.000E+00
#rwgt            1           1   4.2207068643982097E-002           9      331841           0
</event>
<event>
      5   9999  3.79277E-02  1.63127E+01 -1.00000E+00  1.74018E-01
      21    -1     0     0   502   511  0.000000000E+00  0.000000000E+00  1.098916830E+02  1.098916830E+02  0.000000000E+00  0.00000E+00  9.000E+00
      21    -1     0     0   501   502  0.000000000E+00  0.000000000E+00 -6.395931358E+02  6.395931358E+02  0.000000000E+00  0.00000E+00  9.000E+00
      25     1     1     2     0     0  1.382382640E+02 -1.059745680E+02 -1.411742344E+02  2.567013657E+02  1.250000000E+02  0.00000E+00  9.000E+00
      25     1     1     2     0     0 -1.415559454E+02  9.000276418E+01 -4.132384957E+02  4.631734422E+02  1.250000000E+02  0.00000E+00  9.000E+00
      21     1     1     2   501   511  3.317681445E+00  1.597180383E+01  2.471127717E+01  2.961001093E+01  7.539457465E-07  0.00000E+00  9.000E+00
#rwgt            1           1   4.8305487216913176E-002           9      332144           0
</event>
<event>
      5   9999  3.79277E-02  2.08021E+01 -1.00000E+00  1.64972E-01
      21    -1     0     0   502   501  0.000000000E+00  0.000000000E+00  9.696490789E+01  9.696490789E+01  0.000000000E+00  0.00000E+00  9.000E+00
      21    -1     0     0   512   502  0.000000000E+00  0.000000000E+00 -3.661269806E+02  3.661269806E+02  0.000000000E+00  0.00000E+00  9.000E+00
      25     1     1     2     0     0 -1.124838194E+02  1.162197803E+01 -1.986660080E+02  2.605395608E+02  1.250000000E+02  0.00000E+00  9.000E+00
      25     1     1     2     0     0  9.662402194E+01  1.838788477E+00 -3.565685168E+01  1.619752877E+02  1.250000000E+02  0.00000E+00  9.000E+00
      21     1     1     2   512   501  1.585979744E+01 -1.346076650E+01 -3.483921301E+01  4.057703997E+01  0.000000000E+00  0.00000E+00  9.000E+00
#rwgt            1           1   4.1571291055642494E-002           9      332331           0
</event>
<event>
      5   9999  3.79277E-02  1.53357E+01 -1.00000E+00  1.76483E-01
      21    -1     0     0   502   501  0.000000000E+00  0.000000000E+00  3.237877250E+02  3.237877250E+02  0.000000000E+00  0.00000E+00  9.000E+00
      21    -1     0     0   501   511  0.000000000E+00  0.000000000E+00 -1.520688854E+02  1.520688854E+02  0.000000000E+00  0.00000E+00  9.000E+00
      25     1     1     2     0     0 -1.157668569E+01  1.581209432E+02  3.994407136E+01  2.058076315E+02  1.250000000E+02  0.00000E+00  9.000E+00
      25     1     1     2     0     0  2.439415413E+01 -1.497008651E+02  1.492554985E+02  2.467947074E+02  1.250000000E+02  0.00000E+00  9.000E+00
      21     1     1     2   502   511 -1.281746844E+01 -8.420078142E+00 -1.748073032E+01  2.325427156E+01  3.371747881E-07  0.00000E+00  9.000E+00
#rwgt            2          11   1.1433373851119776E-003           9      332512           0
</event>
<event>
      5   9999  3.79277E-02  7.32310E+01 -1.00000E+00  1.30236E-01
      21    -1     0     0   502   501  0.000000000E+00  0.000000000E+00  2.923704250E+03  2.923704250E+03  0.000000000E+00  0.00000E+00  9.000E+00
      21    -1     0     0   501   512  0.000000000E+00  0.000000000E+00 -1.073594042E+03  1.073594042E+03  0.000000000E+00  0.00000E+00  9.000E+00
      25     1     1     2     0     0  1.277469663E+00 -9.076487420E+01  3.702388424E+02  4.011753915E+02  1.250000000E+02  0.00000E+00  9.000E+00
      25     1     1     2     0     0 -3.373078395E+01  2.511759369E+01  2.535013847E+03  2.538442212E+03  1.250000000E+02  0.00000E+00  9.000E+00
      21     1     1     2   502   512  3.245331429E+01  6.564728051E+01 -1.055142482E+03  1.057680689E+03  2.157918644E-05  0.00000E+00  9.000E+00
#rwgt            1           1   3.0971443812766220E-002           9      332562           0
</event>
<event>
      5   9999  3.79277E-02  1.72611E+01 -1.00000E+00  1.71825E-01
      21    -1     0     0   502   511  0.000000000E+00  0.000000000E+00  2.964715875E+02  2.964715875E+02  0.000000000E+00  0.00000E+00  9.000E+00
      21    -1     0     0   501   502  0.000000000E+00  0.000000000E+00 -3.650921762E+02  3.650921762E+02  0.000000000E+00  0.00000E+00  9.000E+00
      25     1     1     2     0     0  9.531957867E+01 -1.095451920E+02 -2.253828485E+02  2.958181866E+02  1.250000000E+02  0.00000E+00  9.000E+00
      25     1     1     2     0     0 -1.067767066E+02  9.663472392E+01 -1.670174454E+01  1.914248761E+02  1.250000000E+02  0.00000E+00  9.000E+00
      21     1     1     2   501   511  1.145712789E+01  1.291046806E+01  1.734640043E+02  1.743207009E+02  3.303624740E-06  0.00000E+00  9.000E+00
#rwgt            1           1   4.3136282476528405E-002           9      332622           0
</event>
<event>
      5   9999  3.79277E-02  1.05110E+02 -1.00000E+00  1.22862E-01
       2    -1     0     0   502     0  0.000000000E+00  0.000000000E+00  3.710165220E+03  3.710165220E+03  0.000000000E+00  0.00000E+00  9.000E+00
      21    -1     0     0   501   502  0.000000000E+00  0.000000000E+00 -8.763007800E+02  8.763007800E+02  0.000000000E+00  0.00000E+00  9.000E+00
      25     1     1     2     0     0  6.127088693E+01 -1.268540330E+02 -1.719063591E+02  2.549958109E+02  1.250000000E+02  0.00000E+00  9.000E+00
      25     1     1     2     0     0 -1.643954420E+02  1.065203571E+02 -6.417036735E+02  6.824815400E+02  1.250000000E+02  0.00000E+00  9.000E+00
       2     1     1     2   501     0  1.031245551E+02  2.033367594E+01  3.647474473E+03  3.648988649E+03  0.000000000E+00  0.00000E+00  9.000E+00
#rwgt            1           1   2.9422389041227504E-002           9      332792           0
</event>
<event>
      5   9999  3.79277E-02  1.03233E+01 -1.00000E+00  1.94173E-01
      21    -1     0     0   502   511  0.000000000E+00  0.000000000E+00  2.775796594E+02  2.775796594E+02  0.000000000E+00  0.00000E+00  9.000E+00
      21    -1     0     0   501   502  0.000000000E+00  0.000000000E+00 -1.888178597E+02  1.888178597E+02  0.000000000E+00  0.00000E+00  9.000E+00
      25     1     1     2     0     0  5.785463947E+00  8.254499197E+01 -1.254499352E+02  1.954733576E+02  1.250000000E+02  0.00000E+00  9.000E+00
      25     1     1     2     0     0 -1.760185205E+00 -9.205115007E+01  1.965458273E+02  2.504631205E+02  1.250000000E+02  0.00000E+00  9.000E+00
      21     1     1     2   501   511 -4.025278742E+00  9.506158101E+00  1.766590758E+01  2.046104106E+01  3.371747881E-07  0.00000E+00  9.000E+00
#rwgt            1           1   6.9323592337883724E-002           9      332871           0
</event>
<event>
      5   9999  3.79277E-02  1.09615E+01 -1.00000E+00  1.91258E-01
      21    -1     0     0   502   512  0.000000000E+00  0.000000000E+00  9.009875042E+02  9.009875042E+02  0.000000000E+00  0.00000E+00  9.000E+00
      21    -1     0     0   501   502  0.000000000E+00  0.000000000E+00 -6.523221452E+01  6.523221452E+01  0.000000000E+00  0.00000E+00  9.000E+00
      25     1     1     2     0     0 -1.127351478E+02 -4.227088000E+01  3.009469949E+02  3.474048569E+02  1.250000000E+02  0.00000E+00  9.000E+00
      25     1     1     2     0     0  1.045398691E+02  4.955049303E+01  1.310355352E+02  2.148933388E+02  1.250000000E+02  0.00000E+00  9.000E+00
      21     1     1     2   501   512  8.195278673E+00 -7.279613027E+00  4.037727596E+02  4.039215230E+02  0.000000000E+00  0.00000E+00  9.000E+00
#rwgt            1           1   4.1745685806762370E-002           9      333097           0
</event>
<event>
      5   9999  3.79277E-02  6.49834E+01 -1.00000E+00  1.32877E-01
       2    -1     0     0   502     0  0.000000000E+00  0.000000000E+00  3.014964409E+03  3.014964409E+03  0.000000000E+00  0.00000E+00  9.000E+00
      21    -1     0     0   501   502  0.000000000E+00  0.000000000E+00 -8.127837140E+02  8.127837140E+02  0.000000000E+00  0.00000E+00  9.000E+00
      25     1     1     2     0     0  1.281197112E+02 -1.946349780E+02 -3.092853588E+02  4.069150627E+02  1.250000000E+02  0.00000E+00  9.000E+00
      25     1     1     2     0     0 -1.928559647E+02  2.002968271E+02 -4.031806416E+02  5.054620380E+02  1.250000000E+02  0.00000E+00  9.000E+00
       2     1     1     2   501     0  6.473625346E+01 -5.661849084E+00  2.914646695E+03  2.915371022E+03  0.000000000E+00  0.00000E+00  9.000E+00
#rwgt            1           1   3.9320839116095962E-002           9      333358           0
</event>
<event>
      5   9999  3.79277E-02  2.68099E+01 -1.00000E+00  1.56510E-01
      21    -1     0     0   511   501  0.000000000E+00  0.000000000E+00  3.639609579E+02  3.639609579E+02  0.000000000E+00  0.00000E+00  9.000E+00
      21    -1     0     0   501   502  0.000000000E+00  0.000000000E+00 -5.301127491E+02  5.301127491E+02  0.000000000E+00  0.00000E+00  9.000E+00
      25     1     1     2     0     0 -7.666638924E+01 -3.717997859E+02 -6.164720021E+01  4.043985575E+02  1.250000000E+02  0.00000E+00  9.000E+00
      25     1     1     2     0     0  6.046169790E+01  3.504414687E+02 -1.740133407E+02  4.151752433E+02  1.250000000E+02  0.00000E+00  9.000E+00
      21     1     1     2   511   502  1.620469133E+01  2.135831719E+01  6.950874974E+01  7.449990621E+01  1.348699152E-06  0.00000E+00  9.000E+00
#rwgt            1           1   5.9785644210480250E-002           9      333498           0
</event>
<event>
      5   9999  3.79277E-02  8.87557E+01 -1.00000E+00  1.26204E-01
      21    -1     0     0   502   501  0.000000000E+00  0.000000000E+00  1.406119469E+03  1.406119469E+03  0.000000000E+00  0.00000E+00  9.000E+00
      21    -1     0     0   501   512  0.000000000E+00  0.000000000E+00 -1.412336099E+02  1.412336099E+02  0.000000000E+00  0.00000E+00  9.000E+00
      25     1     1     2     0     0 -3.830301600E+01  7.673091631E+01  1.236335924E+03  1.245594746E+03  1.250000000E+02  0.00000E+00  9.000E+00
      25     1     1     2     0     0 -1.795094550E+01 -1.453827169E+02  6.854710356E+01  2.044066443E+02  1.250000000E+02  0.00000E+00  9.000E+00
      21     1     1     2   502   512  5.625396150E+01  6.865180061E+01 -3.999716801E+01  9.735168905E+01  3.015782986E-06  0.00000E+00  9.000E+00
#rwgt            1           1   4.0195103374126143E-002           9      333669           0
</event>
<event>
      5   9999  3.79277E-02  1.64603E+01 -1.00000E+00  1.73665E-01
      21    -1     0     0   502   501  0.000000000E+00  0.000000000E+00  2.589461628E+02  2.589461628E+02  0.000000000E+00  0.00000E+00  9.000E+00
      21    -1     0     0   501   511  0.000000000E+00  0.000000000E+00 -1.544921847E+02  1.544921847E+02  0.000000000E+00  0.00000E+00  9.000E+00
      25     1     1     2     0     0  8.239680848E+01  1.150336374E+02  3.839116184E+00  1.888430846E+02  1.250000000E+02  0.00000E+00  9.000E+00
      25     1     1     2     0     0 -8.985275219E+01 -1.003588259E+02  9.678084315E+01  2.076943490E+02  1.250000000E+02  0.00000E+00  9.000E+00
      21     1     1     2   502   511  7.455943714E+00 -1.467481155E+01  3.834018814E+00  1.690091391E+01  2.384185791E-07  0.00000E+00  9.000E+00
#rwgt            1           1   4.1465446813432831E-002           9      333767           0
</event>
<event>
      5   9999  3.79277E-02  1.12600E+01 -1.00000E+00  1.89982E-01
      21    -1     0     0   502   512  0.000000000E+00  0.000000000E+00  2.007990382E+03  2.007990382E+03  0.000000000E+00  0.00000E+00  9.000E+00
      21    -1     0     0   501   502  0.000000000E+00  0.000000000E+00 -1.980063813E+01  1.980063813E+01  0.000000000E+00  0.00000E+00  9.000E+00
      25     1     1     2     0     0 -1.098716182E+02  1.944778949E+01  4.563549638E+02  4.861428205E+02  1.250000000E+02  0.00000E+00  9.000E+00
      25     1     1     2     0     0  9.937501959E+01 -2.352333783E+01  1.382829504E+03  1.392218079E+03  1.250000000E+02  0.00000E+00  9.000E+00
      21     1     1     2   501   512  1.049659864E+01  4.075548338E+00  1.490052762E+02  1.494301209E+02  1.907348633E-06  0.00000E+00  9.000E+00
#rwgt            1           1  0.12679568963957397                9      333937           0
</event>
<event>
      5   9999  3.79277E-02  1.31664E+01 -1.00000E+00  1.82890E-01
      21    -1     0     0   502   501  0.000000000E+00  0.000000000E+00  1.042324336E+03  1.042324336E+03  0.000000000E+00  0.00000E+00  9.000E+00
      21    -1     0     0   501   511  0.000000000E+00  0.000000000E+00 -5.466615802E+01  5.466615802E+01  0.000000000E+00  0.00000E+00  9.000E+00
      25     1     1     2     0     0  6.435884849E+01 -1.131357675E+02  8.272612033E+02  8.467159274E+02  1.250000000E+02  0.00000E+00  9.000E+00
      25     1     1     2     0     0 -7.156554875E+01  1.021168094E+02  1.579095303E+02  2.368752631E+02  1.250000000E+02  0.00000E+00  9.000E+00
      21     1     1     2   502   511  7.206700260E+00  1.101895804E+01  2.487444927E+00  1.339930398E+01  4.225208425E-07  0.00000E+00  9.000E+00
#rwgt            1           1   2.3035825716800323E-002           9      334169           0
</event>
<event>
      5   9999  3.79277E-02  7.03445E+01 -1.00000E+00  1.31113E-01
      21    -1     0     0   502   501  0.000000000E+00  0.000000000E+00  1.391104007E+03  1.391104007E+03  0.000000000E+00  0.00000E+00  9.000E+00
      21    -1     0     0   501   512  0.000000000E+00  0.000000000E+00 -6.889654132E+01  6.889654132E+01  0.000000000E+00  0.00000E+00  9.000E+00
      25     1     1     2     0     0 -9.425743504E+01 -1.271166982E+00  3.029823950E+02  3.410416567E+02  1.250000000E+02  0.00000E+00  9.000E+00
      25     1     1     2     0     0  3.332546978E+01  3.642288661E+01  1.037589125E+03  1.046256854E+03  1.250000000E+02  0.00000E+00  9.000E+00
      21     1     1     2   502   512  6.093196526E+01 -3.515171963E+01 -1.836405379E+01  7.270203749E+01  1.066240300E-06  0.00000E+00  9.000E+00
#rwgt            1           1   5.4616574969566643E-002           9      334491           0
</event>
<event>
      5   9999  3.79277E-02  1.09896E+02 -1.00000E+00  1.22012E-01
      -1    -1     0     0     0   501  0.000000000E+00  0.000000000E+00  6.415531278E+02  6.415531278E+02  0.000000000E+00  0.00000E+00  9.000E+00
      21    -1     0     0   501   502  0.000000000E+00  0.000000000E+00 -1.617721632E+02  1.617721632E+02  0.000000000E+00  0.00000E+00  9.000E+00
      25     1     1     2     0     0 -4.391777031E+01 -1.648606399E+02  8.558118933E+01  2.281599025E+02  1.250000000E+02  0.00000E+00  9.000E+00
      25     1     1     2     0     0  7.097212077E+01  5.834723567E+01 -1.081098068E+01  1.555098683E+02  1.250000000E+02  0.00000E+00  9.000E+00
      -1     1     1     2     0   502 -2.705435045E+01  1.065134042E+02  4.050107560E+02  4.196555202E+02  5.394796609E-06  0.00000E+00  9.000E+00
#rwgt            1           1   5.0272528294657899E-002           9      334573           0
</event>
<event>
      5   9999  3.79277E-02  5.32729E+01 -1.00000E+00  1.37522E-01
      21    -1     0     0   502   501  0.000000000E+00  0.000000000E+00  5.961226829E+01  5.961226829E+01  0.000000000E+00  0.00000E+00  9.000E+00
      21    -1     0     0   511   502  0.000000000E+00  0.000000000E+00 -1.008630326E+03  1.008630326E+03  0.000000000E+00  0.00000E+00  9.000E+00
      25     1     1     2     0     0 -9.837755232E+01 -6.046148356E+01 -6.709103734E+02  6.921556638E+02  1.250000000E+02  0.00000E+00  9.000E+00
      25     1     1     2     0     0  1.104310111E+02  8.570122198E+00 -1.106056973E+02  2.003174368E+02  1.250000000E+02  0.00000E+00  9.000E+00
      21     1     1     2   511   501 -1.205345881E+01  5.189136137E+01 -1.675019872E+02  1.757694939E+02  3.814697266E-06  0.00000E+00  9.000E+00
#rwgt            1           1   5.6226567870013719E-002           9      334679           0
</event>
<event>
      5   9999  3.79277E-02  2.03872E+01 -1.00000E+00  1.65685E-01
      21    -1     0     0   502   501  0.000000000E+00  0.000000000E+00  5.021797296E+02  5.021797296E+02  0.000000000E+00  0.00000E+00  9.000E+00
      21    -1     0     0   501   512  0.000000000E+00  0.000000000E+00 -1.075359986E+02  1.075359986E+02  0.000000000E+00  0.00000E+00  9.000E+00
      25     1     1     2     0     0  2.467352589E+01  1.109359765E+02  1.110628216E+02  2.021769623E+02  1.250000000E+02  0.00000E+00  9.000E+00
      25     1     1     2     0     0 -4.489989540E+01 -1.134916956E+02  3.206949112E+02  3.651939096E+02  1.250000000E+02  0.00000E+00  9.000E+00
      21     1     1     2   502   512  2.022636951E+01  2.555719143E+00 -3.711400180E+01  4.234485628E+01  4.768371582E-07  0.00000E+00  9.000E+00
#rwgt            1           1   4.3451031105258373E-002           9      334769           0
</event>
<event>
      5   9999  3.79277E-02  1.53519E+02 -1.00000E+00  1.15996E-01
      21    -1     0     0   502   511  0.000000000E+00  0.000000000E+00  5.675452323E+01  5.675452323E+01  0.000000000E+00  0.00000E+00  9.000E+00
      21    -1     0     0   501   502  0.000000000E+00  0.000000000E+00 -1.327993457E+03  1.327993457E+03  0.000000000E+00  0.00000E+00  9.000E+00
      25     1     1     2     0     0  8.089529366E+01  8.118337242E+01 -7.225505621E+02  7.421853565E+02  1.250000000E+02  0.00000E+00  9.000E+00
      25     1     1     2     0     0  7.227956669E+01 -9.146075795E+01 -2.104538551E+02  2.711184817E+02  1.250000000E+02  0.00000E+00  9.000E+00
      21     1     1     2   501   511 -1.531748603E+02  1.027738553E+01 -3.382345166E+02  3.714441421E+02  8.529922400E-06  0.00000E+00  9.000E+00
#rwgt            1           1   5.0931379880469009E-002           9      335016           0
</event>
<event>
      5   9999  3.79277E-02  7.61818E+01 -1.00000E+00  1.29386E-01
      21    -1     0     0   502   512  0.000000000E+00  0.000000000E+00  5.906388861E+01  5.906388861E+01  0.000000000E+00  0.00000E+00  9.000E+00
      21    -1     0     0   501   502  0.000000000E+00  0.000000000E+00 -3.295734440E+03  3.295734440E+03  0.000000000E+00  0.00000E+00  9.000E+00
      25     1     1     2     0     0 -1.325353490E+01  5.879681836E+01 -2.507368879E+03  2.511206168E+03  1.250000000E+02  0.00000E+00  9.000E+00
      25     1     1     2     0     0 -4.433073127E+01 -1.086738945E+02 -7.461261881E+02  7.655746324E+02  1.250000000E+02  0.00000E+00  9.000E+00
      21     1     1     2   501   512  5.758426617E+01  4.987707619E+01  1.682451558E+01  7.801752857E+01  2.511895598E-06  0.00000E+00  9.000E+00
#rwgt            1           1   1.0564515809468634E-002           9      335074           0
</event>
<event>
      5   9999  3.79277E-02  1.23410E+02 -1.00000E+00  1.19854E-01
      21    -1     0     0   502   501  0.000000000E+00  0.000000000E+00  3.009416906E+02  3.009416906E+02  0.000000000E+00  0.00000E+00  9.000E+00
      21    -1     0     0   511   502  0.000000000E+00  0.000000000E+00 -5.798048603E+02  5.798048603E+02  0.000000000E+00  0.00000E+00  9.000E+00
      25     1     1     2     0     0 -2.728254126E+02 -1.072288387E+02  1.315126984E+02  3.447496475E+02  1.250000000E+02  0.00000E+00  9.000E+00
      25     1     1     2     0     0  1.810076839E+02  2.476887108E+01 -2.663143341E+02  3.463027622E+02  1.250000000E+02  0.00000E+00  9.000E+00
      21     1     1     2   511   501  9.181772876E+01  8.245996765E+01 -1.440615341E+02  1.896941411E+02  3.303624740E-06  0.00000E+00  9.000E+00
#rwgt            1           1   2.2213156158819095E-002           9      335139           0
</event>
<event>
      5   9999  3.79277E-02  3.70972E+01 -1.00000E+00  1.46899E-01
      21    -1     0     0   502   501  0.000000000E+00  0.000000000E+00  2.886693209E+03  2.886693209E+03  0.000000000E+00  0.00000E+00  9.000E+00
      21    -1     0     0   501   512  0.000000000E+00  0.000000000E+00 -6.370046350E+02  6.370046350E+02  0.000000000E+00  0.00000E+00  9.000E+00
      25     1     1     2     0     0  2.632205379E+02 -8.838446136E+01  1.414862815E+03  1.447259013E+03  1.250000000E+02  0.00000E+00  9.000E+00
      25     1     1     2     0     0 -2.327143811E+02  1.094930853E+02  1.441016115E+03  1.469114415E+03  1.250000000E+02  0.00000E+00  9.000E+00
      21     1     1     2   502   512 -3.050615686E+01 -2.110862398E+01 -6.061903560E+02  6.073244169E+02  0.000000000E+00  0.00000E+00  9.000E+00
#rwgt            1           1   4.6804729627299868E-002           9      335245           0
</event>
<event>
      5   9999  3.79277E-02  3.95322E+01 -1.00000E+00  1.45158E-01
      21    -1     0     0   502   501  0.000000000E+00  0.000000000E+00  7.199277864E+01  7.199277864E+01  0.000000000E+00  0.00000E+00  9.000E+00
       1    -1     0     0   501     0  0.000000000E+00  0.000000000E+00 -1.512081607E+03  1.512081607E+03  0.000000000E+00  0.00000E+00  9.000E+00
      25     1     1     2     0     0 -1.803041564E+02 -1.215219990E+01 -6.685075821E+02  7.036935783E+02  1.250000000E+02  0.00000E+00  9.000E+00
      25     1     1     2     0     0  1.457123290E+02  3.128858085E+01 -1.220230117E+02  2.296207166E+02  1.250000000E+02  0.00000E+00  9.000E+00
       1     1     1     2   502     0  3.459182738E+01 -1.913638095E+01 -6.495582348E+02  6.507600910E+02  1.078959322E-05  0.00000E+00  9.000E+00
#rwgt            1           1   4.5830560566514633E-002           9      335378           0
</event>
<event>
      5   9999  3.79277E-02  2.57033E+01 -1.00000E+00  1.57854E-01
      21    -1     0     0   502   501  0.000000000E+00  0.000000000E+00  1.578874886E+03  1.578874886E+03  0.000000000E+00  0.00000E+00  9.000E+00
      21    -1     0     0   501   511  0.000000000E+00  0.000000000E+00 -8.736958391E+01  8.736958391E+01  0.000000000E+00  0.00000E+00  9.000E+00
      25     1     1     2     0     0 -3.045320072E+02 -8.995377463E+01  6.406588483E+02  7.258789051E+02  1.250000000E+02  0.00000E+00  9.000E+00
      25     1     1     2     0     0  3.281974162E+02  9.998410308E+01  8.316578872E+02  9.082897149E+02  1.250000000E+02  0.00000E+00  9.000E+00
      21     1     1     2   502   511 -2.366540901E+01 -1.003032845E+01  1.918856708E+01  3.207585040E+01  4.768371582E-07  0.00000E+00  9.000E+00
#rwgt            1           1  0.32695285302851207                9      335508           0
</event>
<event>
      5   9999  3.79277E-02  5.03371E+01 -1.00000E+00  1.38909E-01
      21    -1     0     0   502   512  0.000000000E+00  0.000000000E+00  4.793377699E+02  4.793377699E+02  0.000000000E+00  0.00000E+00  9.000E+00
      21    -1     0     0   501   502  0.000000000E+00  0.000000000E+00 -2.468889880E+02  2.468889880E+02  0.000000000E+00  0.00000E+00  9.000E+00
      25     1     1     2     0     0 -1.696675460E+02 -2.654068799E+01 -2.003359583E+01  2.133490784E+02  1.250000000E+02  0.00000E+00  9.000E+00
      25     1     1     2     0     0  1.279218095E+02  5.466752823E+01 -5.996541218E+01  1.964010658E+02  1.250000000E+02  0.00000E+00  9.000E+00
      21     1     1     2   501   512  4.174573647E+01 -2.812684024E+01  3.124477898E+02  3.164766137E+02  3.814697266E-06  0.00000E+00  9.000E+00
#rwgt            1           1   4.5697428953284117E-002           9      335705           0
</event>
<event>
      5   9999  3.79277E-02  7.36987E+01 -1.00000E+00  1.30098E-01
      21    -1     0     0   502   501  0.000000000E+00  0.000000000E+00  1.026114254E+03  1.026114254E+03  0.000000000E+00  0.00000E+00  9.000E+00
      21    -1     0     0   511   502  0.000000000E+00  0.000000000E+00 -7.762450912E+01  7.762450912E+01  0.000000000E+00  0.00000E+00  9.000E+00
      25     1     1     2     0     0 -1.567344065E+02 -1.368598342E+02  7.182533182E+02  7.581616697E+02  1.250000000E+02  0.00000E+00  9.000E+00
      25     1     1     2     0     0  9.685918580E+01  9.388949076E+01  1.598816050E+02  2.436884609E+02  1.250000000E+02  0.00000E+00  9.000E+00
      21     1     1     2   511   501  5.987522070E+01  4.297034349E+01  7.035482141E+01  1.018886322E+02  1.348699152E-06  0.00000E+00  9.000E+00
#rwgt            1           1   3.9145402753636580E-002           9      335823           0
</event>
<event>
      5   9999  3.79277E-02  1.61881E+01 -1.00000E+00  1.74321E-01
      21    -1     0     0   512   501  0.000000000E+00  0.000000000E+00  4.275080811E+02  4.275080811E+02  0.000000000E+00  0.00000E+00  9.000E+00
      21    -1     0     0   501   502  0.000000000E+00  0.000000000E+00 -9.431614433E+01  9.431614433E+01  0.000000000E+00  0.00000E+00  9.000E+00
      25     1     1     2     0     0 -1.142223815E+02  1.361670730E+01  3.611445289E+01  1.736704375E+02  1.250000000E+02  0.00000E+00  9.000E+00
      25     1     1     2     0     0  1.053679320E+02 -6.483813964E-02  2.532766241E+02  3.014572169E+02  1.250000000E+02  0.00000E+00  9.000E+00
      21     1     1     2   512   502  8.854449502E+00 -1.355186916E+01  4.380085971E+01  4.669657102E+01  6.743495762E-07  0.00000E+00  9.000E+00
#rwgt            1           1   4.2854817409325098E-002           9      335932           0
</event>
<event>
      5   9999  3.79277E-02  1.66273E+01 -1.00000E+00  1.73271E-01
      21    -1     0     0   502   511  0.000000000E+00  0.000000000E+00  1.601055451E+03  1.601055451E+03  0.000000000E+00  0.00000E+00  9.000E+00
      21    -1     0     0   501   502  0.000000000E+00  0.000000000E+00 -4.578140991E+01  4.578140991E+01  0.000000000E+00  0.00000E+00  9.000E+00
      25     1     1     2     0     0  6.380259027E+01  9.539135723E+01  1.708450779E+02  2.407972637E+02  1.250000000E+02  0.00000E+00  9.000E+00
      25     1     1     2     0     0 -5.548819667E+01 -1.097905363E+02  7.077248045E+02  7.291311958E+02  1.250000000E+02  0.00000E+00  9.000E+00
      21     1     1     2   501   511 -8.314393598E+00  1.439917904E+01  6.767041591E+02  6.769084018E+02  7.629394531E-06  0.00000E+00  9.000E+00
#rwgt            1           1   3.2925005252498064E-002           9      336114           0
</event>
<event>
      5   9999  3.79277E-02  3.05346E+01 -1.00000E+00  1.52509E-01
      21    -1     0     0   502   501  0.000000000E+00  0.000000000E+00  1.991980877E+02  1.991980877E+02  0.000000000E+00  0.00000E+00  9.000E+00
      21    -1     0     0   501   512  0.000000000E+00  0.000000000E+00 -2.819865108E+02  2.819865108E+02  0.000000000E+00  0.00000E+00  9.000E+00
      25     1     1     2     0     0  1.648480375E+01  1.055444928E+02  1.168596373E+02  2.017239786E+02  1.250000000E+02  0.00000E+00  9.000E+00
      25     1     1     2     0     0 -4.397604608E+01 -9.225574140E+01 -1.851360879E+02  2.456529778E+02  1.250000000E+02  0.00000E+00  9.000E+00
      21     1     1     2   502   512  2.749124233E+01 -1.328875136E+01 -1.451197253E+01  3.380764210E+01  6.529361695E-07  0.00000E+00  9.000E+00
#rwgt            1           1   3.1334139760999073E-002           9      336259           0
</event>
<event>
      5   9999  3.79277E-02  8.35127E+01 -1.00000E+00  1.27453E-01
      21    -1     0     0   502   501  0.000000000E+00  0.000000000E+00  7.469061218E+02  7.469061218E+02  0.000000000E+00  0.00000E+00  9.000E+00
      21    -1     0     0   511   502  0.000000000E+00  0.000000000E+00 -2.018963380E+02  2.018963380E+02  0.000000000E+00  0.00000E+00  9.000E+00
      25     1     1     2     0     0  2.667179667E+01  2.272017203E+02  2.469690292E+02  3.590970730E+02  1.250000000E+02  0.00000E+00  9.000E+00
      25     1     1     2     0     0 -3.387399639E+01 -1.440002022E+02  4.079968928E+02  4.516303471E+02  1.250000000E+02  0.00000E+00  9.000E+00
      21     1     1     2   511   501  7.202199726E+00 -8.320151801E+01 -1.099561382E+02  1.380750398E+02  1.348699152E-06  0.00000E+00  9.000E+00
#rwgt            1           1   5.8545337569457043E-003           9      336408           0
</event>
<event>
      5   9999  3.79277E-02  2.00202E+01 -1.00000E+00  1.66333E-01
      21    -1     0     0   512   501  0.000000000E+00  0.000000000E+00  1.215952431E+02  1.215952431E+02  0.000000000E+00  0.00000E+00  9.000E+00
      21    -1     0     0   501   502  0.000000000E+00  0.000000000E+00 -7.092183529E+02  7.092183529E+02  0.000000000E+00  0.00000E+00  9.000E+00
      25     1     1     2     0     0  4.817958491E+01  1.171326712E+02 -5.821421092E+02  6.087329221E+02  1.250000000E+02  0.00000E+00  9.000E+00
      25     1     1     2     0     0 -5.561481737E+01 -1.357210026E+02 -2.474802700E+01  1.942952992E+02  1.250000000E+02  0.00000E+00  9.000E+00
      21     1     1     2   512   502  7.435232466E+00  1.858833141E+01  1.926702635E+01  2.778537477E+01  3.371747881E-07  0.00000E+00  9.000E+00
#rwgt            1           1   4.7092423737327332E-002           9      336464           0
</event>
<event>
      5   9999  3.79277E-02  4.29121E+01 -1.00000E+00  1.42972E-01
      21    -1     0     0   502   511  0.000000000E+00  0.000000000E+00  4.809242102E+02  4.809242102E+02  0.000000000E+00  0.00000E+00  9.000E+00
      21    -1     0     0   501   502  0.000000000E+00  0.000000000E+00 -2.251862444E+02  2.251862444E+02  0.000000000E+00  0.00000E+00  9.000E+00
      25     1     1     2     0     0 -1.370445801E+02  1.871397333E+02  2.109888774E+02  3.375556296E+02  1.250000000E+02  0.00000E+00  9.000E+00
      25     1     1     2     0     0  1.498160792E+02 -1.461722574E+02 -6.365307783E+01  2.519680550E+02  1.250000000E+02  0.00000E+00  9.000E+00
      21     1     1     2   501   511 -1.277149905E+01 -4.096747588E+01  1.084021663E+02  1.165867699E+02  2.336015456E-06  0.00000E+00  9.000E+00
#rwgt            1           1   3.7415734166834490E-002           9      336797           0
</event>
<event>
      5   9999  3.79277E-02  3.95581E+01 -1.00000E+00  1.45140E-01
      21    -1     0     0   502   501  0.000000000E+00  0.000000000E+00  2.368106644E+02  2.368106644E+02  0.000000000E+00  0.00000E+00  9.000E+00
      21    -1     0     0   501   512  0.000000000E+00  0.000000000E+00 -1.972486089E+02  1.972486089E+02  0.000000000E+00  0.00000E+00  9.000E+00
      25     1     1     2     0     0 -1.260462464E+02  3.668394940E+01  5.044614845E+01  1.881573338E+02  1.250000000E+02  0.00000E+00  9.000E+00
      25     1     1     2     0     0  1.249842027E+02  2.859844394E+00  4.019067255E+01  1.812995306E+02  1.250000000E+02  0.00000E+00  9.000E+00
      21     1     1     2   502   512  1.062043707E+00 -3.954379380E+01 -5.107476551E+01  6.460240891E+01  9.536743164E-07  0.00000E+00  9.000E+00
#rwgt            1           1   5.0819388214052380E-002           9      336930           0
</event>
<event>
      5   9999  3.79277E-02  9.63925E+01 -1.00000E+00  1.24550E-01
      21    -1     0     0   511   501  0.000000000E+00  0.000000000E+00  1.064574644E+02  1.064574644E+02  0.000000000E+00  0.00000E+00  9.000E+00
      21    -1     0     0   501   502  0.000000000E+00  0.000000000E+00 -6.194472759E+02  6.194472759E+02  0.000000000E+00  0.00000E+00  9.000E+00
      25     1     1     2     0     0 -6.055686534E+01 -9.046039682E+01 -3.329283686E+02  3.719092846E+02  1.250000000E+02  0.00000E+00  9.000E+00
      25     1     1     2     0     0  2.536394058E-01  1.656603296E+02 -1.104103538E+02  2.350720217E+02  1.250000000E+02  0.00000E+00  9.000E+00
      21     1     1     2   511   502  6.030322593E+01 -7.519993282E+01 -6.965108908E+01  1.189234340E+02  2.132480600E-06  0.00000E+00  9.000E+00
#rwgt            1           1   3.5729918493951074E-002           9      337090           0
</event>
<event>
      5   9999  3.79277E-02  5.44574E+01 -1.00000E+00  1.36992E-01
      21    -1     0     0   502   501  0.000000000E+00  0.000000000E+00  7.249518254E+02  7.249518254E+02  0.000000000E+00  0.00000E+00  9.000E+00
      21    -1     0     0   501   512  0.000000000E+00  0.000000000E+00 -2.238962492E+02  2.238962492E+02  0.000000000E+00  0.00000E+00  9.000E+00
      25     1     1     2     0     0  2.433976944E+02  9.987671661E+01  2.659755065E+02  3.944436160E+02  1.250000000E+02  0.00000E+00  9.000E+00
      25     1     1     2     0     0 -2.277373395E+02 -4.771963444E+01  3.433606927E+02  4.332009056E+02  1.250000000E+02  0.00000E+00  9.000E+00
      21     1     1     2   502   512 -1.566035493E+01 -5.215708217E+01 -1.082806231E+02  1.212035530E+02  1.907348633E-06  0.00000E+00  9.000E+00
#rwgt            1           1   3.5556206614354630E-002           9      337141           0
</event>
<event>
      5   9999  3.79277E-02  2.54048E+01 -1.00000E+00  1.58230E-01
       2    -1     0     0   502     0  0.000000000E+00  0.000000000E+00  2.951746200E+02  2.951746200E+02  0.000000000E+00  0.00000E+00  9.000E+00
      21    -1     0     0   501   502  0.000000000E+00  0.000000000E+00 -3.458993058E+02  3.458993058E+02  0.000000000E+00  0.00000E+00  9.000E+00
      25     1     1     2     0     0 -1.734008675E+02  6.288612915E+01  1.659828455E+02  2.778449767E+02  1.250000000E+02  0.00000E+00  9.000E+00
      25     1     1     2     0     0  1.493743780E+02 -5.463194496E+01 -2.498454970E+02  3.214733684E+02  1.250000000E+02  0.00000E+00  9.000E+00
       2     1     1     2   501     0  2.402648948E+01 -8.254184190E+00  3.313796563E+01  4.175558070E+01  0.000000000E+00  0.00000E+00  9.000E+00
#rwgt            1           1   2.9551851646854848E-002           9      337367           0
</event>
<event>
      5   9999  3.79277E-02  2.97619E+01 -1.00000E+00  1.53281E-01
      21    -1     0     0   511   501  0.000000000E+00  0.000000000E+00  2.040804589E+02  2.040804589E+02  0.000000000E+00  0.00000E+00  9.000E+00
      21    -1     0     0   501   502  0.000000000E+00  0.000000000E+00 -3.015156711E+02  3.015156711E+02  0.000000000E+00  0.00000E+00  9.000E+00
      25     1     1     2     0     0  1.344996557E+02  2.281309397E+01 -1.917172705E+02  2.664415629E+02  1.250000000E+02  0.00000E+00  9.000E+00
      25     1     1     2     0     0 -1.410374186E+02  6.221906989E+00  7.145241218E+01  2.016450167E+02  1.250000000E+02  0.00000E+00  9.000E+00
      21     1     1     2   511   502  6.537762890E+00 -2.903500095E+01  2.282964612E+01  3.750955033E+01  3.371747881E-07  0.00000E+00  9.000E+00
#rwgt            1           1   3.4424190287200583E-002           9      337543           0
</event>
<event>
      5   9999  3.79277E-02  8.97030E+01 -1.00000E+00  1.25988E-01
      21    -1     0     0   512   501  0.000000000E+00  0.000000000E+00  2.133009016E+02  2.133009016E+02  0.000000000E+00  0.00000E+00  9.000E+00
      21    -1     0     0   501   502  0.000000000E+00  0.000000000E+00 -4.567418931E+02  4.567418931E+02  0.000000000E+00  0.00000E+00  9.000E+00
      25     1     1     2     0     0  2.034118066E+02  3.856061005E+01 -1.625152072E+02  2.913751470E+02  1.250000000E+02  0.00000E+00  9.000E+00
      25     1     1     2     0     0 -2.139622121E+02 -1.276410077E+02 -4.654291430E+01  2.826009518E+02  1.250000000E+02  0.00000E+00  9.000E+00
      21     1     1     2   512   502  1.055040557E+01  8.908039768E+01 -3.438287003E+01  9.606669590E+01  8.259061849E-07  0.00000E+00  9.000E+00
#rwgt            2          11   3.1191408219624459E-003           9      337683           0
</event>
<event>
      5   9999  3.79277E-02  7.12424E+01 -1.00000E+00  1.30835E-01
       2    -1     0     0   502     0  0.000000000E+00  0.000000000E+00  1.762093816E+02  1.762093816E+02  0.000000000E+00  0.00000E+00  9.000E+00
      21    -1     0     0   501   502  0.000000000E+00  0.000000000E+00 -8.215289583E+02  8.215289583E+02  0.000000000E+00  0.00000E+00  9.000E+00
      25     1     1     2     0     0  4.464377736E+01  3.192510855E+01 -7.099366382E+02  7.229435038E+02  1.250000000E+02  0.00000E+00  9.000E+00
      25     1     1     2     0     0 -1.084556186E+02 -2.466246752E-01 -1.711110594E+01  1.663744932E+02  1.250000000E+02  0.00000E+00  9.000E+00
       2     1     1     2   501     0  6.381184123E+01 -3.167848387E+01  8.172816737E+01  1.084203429E+02  1.907348633E-06  0.00000E+00  9.000E+00
#rwgt            1           1   4.0005479513909738E-002           9      337703           0
</event>
<event>
      5   9999  3.79277E-02  1.93295E+01 -1.00000E+00  1.67600E-01
      21    -1     0     0   511   501  0.000000000E+00  0.000000000E+00  7.263931150E+02  7.263931150E+02  0.000000000E+00  0.00000E+00  9.000E+00
      21    -1     0     0   501   502  0.000000000E+00  0.000000000E+00 -6.279655557E+01  6.279655557E+01  0.000000000E+00  0.00000E+00  9.000E+00
      25     1     1     2     0     0 -8.573471655E+01  8.360234246E+01  1.203753119E+02  2.108435652E+02  1.250000000E+02  0.00000E+00  9.000E+00
      25     1     1     2     0     0  7.718114384E+01 -1.009362597E+02  4.714996552E+02  5.040654544E+02  1.250000000E+02  0.00000E+00  9.000E+00
      21     1     1     2   511   502  8.553572705E+00  1.733391725E+01  7.172159237E+01  7.428065095E+01  9.536743164E-07  0.00000E+00  9.000E+00
#rwgt            1           1   3.3868961302916827E-002           9      337853           0
</event>
<event>
      5   9999  3.79277E-02  2.64460E+01 -1.00000E+00  1.56943E-01
      21    -1     0     0   512   501  0.000000000E+00  0.000000000E+00  1.734473466E+03  1.734473466E+03  0.000000000E+00  0.00000E+00  9.000E+00
      21    -1     0     0   501   502  0.000000000E+00  0.000000000E+00 -2.434671941E+01  2.434671941E+01  0.000000000E+00  0.00000E+00  9.000E+00
      25     1     1     2     0     0  3.474233712E+01  7.815489580E+01  1.320657198E+03  1.329313979E+03  1.250000000E+02  0.00000E+00  9.000E+00
      25     1     1     2     0     0 -1.318688879E+01 -6.283315912E+01  2.433194468E+02  2.809826563E+02  1.250000000E+02  0.00000E+00  9.000E+00
      21     1     1     2   512   502 -2.155544833E+01 -1.532173669E+01  1.461501009E+02  1.485235502E+02  3.303624740E-06  0.00000E+00  9.000E+00
#rwgt            1           1   2.7399217323389274E-002           9      338225           0
</event>
<event>
      5   9999  3.79277E-02  3.70069E+01 -1.00000E+00  1.46967E-01
      21    -1     0     0   502   501  0.000000000E+00  0.000000000E+00  2.844617696E+02  2.844617696E+02  0.000000000E+00  0.00000E+00  9.000E+00
      21    -1     0     0   511   502  0.000000000E+00  0.000000000E+00 -1.329639788E+02  1.329639788E+02  0.000000000E+00  0.00000E+00  9.000E+00
      25     1     1     2     0     0  2.263537110E+01  6.853388966E+01  1.258534769E+02  1.915028765E+02  1.250000000E+02  0.00000E+00  9.000E+00
      25     1     1     2     0     0  1.467098674E+00 -9.661561684E+01  6.594992700E+01  1.712049143E+02  1.250000000E+02  0.00000E+00  9.000E+00
      21     1     1     2   511   501 -2.410246977E+01  2.808172718E+01 -4.030561311E+01  5.471795774E+01  0.000000000E+00  0.00000E+00  9.000E+00
#rwgt            1           1   3.4698767604999972E-002           9      338411           0
</event>
<event>
      5   9999  3.79277E-02  3.80570E+00 -1.00000E+00  2.68672E-01
      21    -1     0     0   502   501  0.000000000E+00  0.000000000E+00  7.414360054E+02  7.414360054E+02  0.000000000E+00  0.00000E+00  9.000E+00
      21    -1     0     0   512   502  0.000000000E+00  0.000000000E+00 -1.149915697E+02  1.149915697E+02  0.000000000E+00  0.00000E+00  9.000E+00
      25     1     1     2     0     0  9.227705145E+01 -8.658405074E+01  9.751273905E+01  2.028437486E+02  1.250000000E+02  0.00000E+00  9.000E+00
      25     1     1     2     0     0 -9.589580771E+01  8.540594609E+01  5.776025949E+02  6.047643666E+02  1.250000000E+02  0.00000E+00  9.000E+00
      21     1     1     2   512   501  3.618756266E+00  1.178104648E+00 -4.867089822E+01  4.881945986E+01  6.743495762E-07  0.00000E+00  9.000E+00
#rwgt            1           1   4.3935116963579865E-002           9      338546           0
</event>
<event>
      5   9999  3.79277E-02  3.08649E+01 -1.00000E+00  1.52187E-01
      21    -1     0     0   502   501  0.000000000E+00  0.000000000E+00  2.332650544E+02  2.332650544E+02  0.000000000E+00  0.00000E+00  9.000E+00
      21    -1     0     0   511   502  0.000000000E+00  0.000000000E+00 -2.488613852E+02  2.488613852E+02  0.000000000E+00  0.00000E+00  9.000E+00
      25     1     1     2     0     0  6.658938013E+01 -1.092057515E+02 -8.219811484E+01  1.968287880E+02  1.250000000E+02  0.00000E+00  9.000E+00
      25     1     1     2     0     0 -9.713743123E+01  1.136166459E+02  1.162043228E+02  2.268763262E+02  1.250000000E+02  0.00000E+00  9.000E+00
      21     1     1     2   511   501  3.054805111E+01 -4.410894356E+00 -4.960253873E+01  5.842132542E+01  0.000000000E+00  0.00000E+00  9.000E+00
#rwgt            1           1   3.6112256361338212E-002           9      339089           0
</event>
<event>
      5   9999  3.79277E-02  3.66002E+02 -1.00000E+00  1.02860E-01
       1    -1     0     0   502     0  0.000000000E+00  0.000000000E+00  2.715203522E+03  2.715203522E+03  0.000000000E+00  0.00000E+00  9.000E+00
      21    -1     0     0   501   502  0.000000000E+00  0.000000000E+00 -1.692965012E+03  1.692965012E+03  0.000000000E+00  0.00000E+00  9.000E+00
      25     1     1     2     0     0  1.272180375E+02 -2.309313761E+02 -4.312865801E+01  2.949556080E+02  1.250000000E+02  0.00000E+00  9.000E+00
      25     1     1     2     0     0  4.304102653E+01 -9.305870913E+01 -1.506642791E+03  1.515292036E+03  1.250000000E+02  0.00000E+00  9.000E+00
       1     1     1     2   501     0 -1.702590641E+02  3.239900852E+02  2.572009959E+03  2.597920891E+03  3.051757812E-05  0.00000E+00  9.000E+00
#rwgt            2          17   5.1235481328346264E-003           9      339313           0
</event>
<event>
      5   9999  3.79277E-02  2.62012E+01 -1.00000E+00  1.57239E-01
      21    -1     0     0   502   501  0.000000000E+00  0.000000000E+00  7.073398368E+01  7.073398368E+01  0.000000000E+00  0.00000E+00  9.000E+00
      21    -1     0     0   511   502  0.000000000E+00  0.000000000E+00 -6.038357256E+02  6.038357256E+02  0.000000000E+00  0.00000E+00  9.000E+00
      25     1     1     2     0     0  6.060396334E+00 -1.210176579E+02 -9.376895503E+01  1.977362356E+02  1.250000000E+02  0.00000E+00  9.000E+00
      25     1     1     2     0     0  4.322018144E+00  9.696133423E+01 -3.918580672E+02  4.226084772E+02  1.250000000E+02  0.00000E+00  9.000E+00
      21     1     1     2   511   501 -1.038241448E+01  2.405632366E+01 -4.747471971E+01  5.422499655E+01  0.000000000E+00  0.00000E+00  9.000E+00
#rwgt            1           1   3.7059494256880383E-002           9      339437           0
</event>
<event>
      5   9999  3.79277E-02  1.10215E+01 -1.00000E+00  1.90998E-01
      21    -1     0     0   502   512  0.000000000E+00  0.000000000E+00  1.235138578E+02  1.235138578E+02  0.000000000E+00  0.00000E+00  9.000E+00
      21    -1     0     0   501   502  0.000000000E+00  0.000000000E+00 -6.545196964E+02  6.545196964E+02  0.000000000E+00  0.00000E+00  9.000E+00
      25     1     1     2     0     0 -2.414206454E+02 -3.991402781E+01 -2.828736802E+02  3.943597046E+02  1.250000000E+02  0.00000E+00  9.000E+00
      25     1     1     2     0     0  2.496490184E+02  3.258137884E+01 -2.427839837E+02  3.714232645E+02  1.250000000E+02  0.00000E+00  9.000E+00
      21     1     1     2   501   512 -8.228373042E+00  7.332648974E+00 -5.348174680E+00  1.225058514E+01  2.384185791E-07  0.00000E+00  9.000E+00
#rwgt            1           1   4.1282037517667881E-002           9      339614           0
</event>
<event>
      5   9999  3.79277E-02  1.18058E+01 -1.00000E+00  1.87776E-01
      21    -1     0     0   502   501  0.000000000E+00  0.000000000E+00  1.322702194E+03  1.322702194E+03  0.000000000E+00  0.00000E+00  9.000E+00
      21    -1     0     0   511   502  0.000000000E+00  0.000000000E+00 -1.947784545E+02  1.947784545E+02  0.000000000E+00  0.00000E+00  9.000E+00
      25     1     1     2     0     0 -6.458053664E+01 -1.633064100E+02  6.557816038E+02  6.903000370E+02  1.250000000E+02  0.00000E+00  9.000E+00
      25     1     1     2     0     0  5.553638832E+01  1.557182711E+02  6.329087025E+02  6.659811530E+02  1.250000000E+02  0.00000E+00  9.000E+00
      21     1     1     2   511   501  9.044148319E+00  7.588138900E+00 -1.607665667E+02  1.611994586E+02  6.031565972E-06  0.00000E+00  9.000E+00
#rwgt            1           1   4.0155631931460344E-002           9      340003           0
</event>
<event>
      5   9999  3.79277E-02  1.53704E+01 -1.00000E+00  1.76391E-01
      21    -1     0     0   502   512  0.000000000E+00  0.000000000E+00  3.845616415E+01  3.845616415E+01  0.000000000E+00  0.00000E+00  9.000E+00
      21    -1     0     0   501   502  0.000000000E+00  0.000000000E+00 -3.394885269E+03  3.394885269E+03  0.000000000E+00  0.00000E+00  9.000E+00
      25     1     1     2     0     0  1.415957627E+02 -1.778945934E+02 -2.226544245E+03  2.241611055E+03  1.250000000E+02  0.00000E+00  9.000E+00
      25     1     1     2     0     0 -1.262673161E+02  1.790288004E+02 -1.143627568E+03  1.171112190E+03  1.250000000E+02  0.00000E+00  9.000E+00
      21     1     1     2   501   512 -1.532844657E+01 -1.134207034E+00  1.374270777E+01  2.061818898E+01  1.735713456E-06  0.00000E+00  9.000E+00
#rwgt            1           1   1.7853218363079851E-002           9      340288           0
</event>
<event>
      5   9999  3.79277E-02  2.42496E+01 -1.00000E+00  1.59749E-01
      21    -1     0     0   502   501  0.000000000E+00  0.000000000E+00  3.483898161E+01  3.483898161E+01  0.000000000E+00  0.00000E+00  9.000E+00
      21    -1     0     0   501   511  0.000000000E+00  0.000000000E+00 -1.168533936E+03  1.168533936E+03  0.000000000E+00  0.00000E+00  9.000E+00
      25     1     1     2     0     0 -3.563057015E+01  1.127753988E+02 -3.180346247E+02  3.616059328E+02  1.250000000E+02  0.00000E+00  9.000E+00
      25     1     1     2     0     0  2.187619264E+01 -1.327468953E+02 -7.293428115E+02  7.521078664E+02  1.250000000E+02  0.00000E+00  9.000E+00
      21     1     1     2   502   511  1.375437752E+01  1.997149653E+01 -8.631751849E+01  8.965911874E+01  0.000000000E+00  0.00000E+00  9.000E+00
#rwgt            1           1   3.8051222712176105E-002           9      340574           0
</event>
<event>
      5   9999  3.79277E-02  6.13757E+01 -1.00000E+00  1.34179E-01
      21    -1     0     0   502   501  0.000000000E+00  0.000000000E+00  5.899576074E+02  5.899576074E+02  0.000000000E+00  0.00000E+00  9.000E+00
       2    -1     0     0   501     0  0.000000000E+00  0.000000000E+00 -1.700903454E+03  1.700903454E+03  0.000000000E+00  0.00000E+00  9.000E+00
      25     1     1     2     0     0 -2.582712790E+01  1.046327132E+02  2.924625765E+02  3.358190046E+02  1.250000000E+02  0.00000E+00  9.000E+00
      25     1     1     2     0     0  8.007587433E+01 -1.333389656E+02  2.390789443E+02  3.114083605E+02  1.250000000E+02  0.00000E+00  9.000E+00
       2     1     1     2   502     0 -5.424874643E+01  2.870625243E+01 -1.642487367E+03  1.643633696E+03  0.000000000E+00  0.00000E+00  9.000E+00
#rwgt            1           1   4.0025549293469173E-002           9      340946           0
</event>
<event>
      5   9999  3.79277E-02  4.20493E+01 -1.00000E+00  1.43507E-01
      21    -1     0     0   502   501  0.000000000E+00  0.000000000E+00  3.172486582E+02  3.172486582E+02  0.000000000E+00  0.00000E+00  9.000E+00
      21    -1     0     0   501   511  0.000000000E+00  0.000000000E+00 -4.329966880E+02  4.329966880E+02  0.000000000E+00  0.00000E+00  9.000E+00
      25     1     1     2     0     0  3.797485694E+00  1.607980212E+01  2.677548767E+02  2.959571843E+02  1.250000000E+02  0.00000E+00  9.000E+00
      25     1     1     2     0     0  1.307302620E+01  2.243686017E+01 -8.624256926E+01  1.540684830E+02  1.250000000E+02  0.00000E+00  9.000E+00
      21     1     1     2   502   511 -1.687051189E+01 -3.851666229E+01 -2.972603372E+02  3.002196788E+02  5.394796609E-06  0.00000E+00  9.000E+00
#rwgt            1           1   3.7128208402353799E-002           9      341085           0
</event>
<event>
      5   9999  3.79277E-02  6.97400E+01 -1.00000E+00  1.31303E-01
      21    -1     0     0   502   501  0.000000000E+00  0.000000000E+00  1.304635736E+02  1.304635736E+02  0.000000000E+00  0.00000E+00  9.000E+00
      21    -1     0     0   501   512  0.000000000E+00  0.000000000E+00 -4.771378055E+02  4.771378055E+02  0.000000000E+00  0.00000E+00  9.000E+00
      25     1     1     2     0     0  5.255955451E+01 -1.297644001E+02 -2.181015331E+02  2.877404821E+02  1.250000000E+02  0.00000E+00  9.000E+00
      25     1     1     2     0     0  9.549094651E+00  1.614846930E+02 -4.202109284E+01  2.087085612E+02  1.250000000E+02  0.00000E+00  9.000E+00
      21     1     1     2   502   512 -6.210864916E+01 -3.172029285E+01 -8.655160601E+01  1.111523359E+02  9.536743164E-07  0.00000E+00  9.000E+00
#rwgt            1           1   3.2069390045964499E-002           9      341169           0
</event>
<event>
      5   9999  3.79277E-02  6.62124E+01 -1.00000E+00  1.32456E-01
      21    -1     0     0   511   501  0.000000000E+00  0.000000000E+00  7.359449047E+01  7.359449047E+01  0.000000000E+00  0.00000E+00  9.000E+00
      21    -1     0     0   501   502  0.000000000E+00  0.000000000E+00 -1.808857839E+03  1.808857839E+03  0.000000000E+00  0.00000E+00  9.000E+00
      25     1     1     2     0     0  1.295941126E+02  2.242567978E+02 -7.281047519E+02  7.828456266E+02  1.250000000E+02  0.00000E+00  9.000E+00
      25     1     1     2     0     0 -1.766215215E+02 -2.708669672E+02 -9.528896410E+02  1.013995929E+03  1.250000000E+02  0.00000E+00  9.000E+00
      21     1     1     2   511   502  4.702740890E+01  4.661016936E+01 -5.426895551E+01  8.561077391E+01  2.023048729E-06  0.00000E+00  9.000E+00
#rwgt            1           1  0.44407232563301741                9      341261           0
</event>
<event>
      5   9999  3.79277E-02  2.50690E+01 -1.00000E+00  1.58661E-01
      21    -1     0     0   512   501  0.000000000E+00  0.000000000E+00  4.671769169E+01  4.671769169E+01  0.000000000E+00  0.00000E+00  9.000E+00
      21    -1     0     0   501   502  0.000000000E+00  0.000000000E+00 -1.117667117E+03  1.117667117E+03  0.000000000E+00  0.00000E+00  9.000E+00
      25     1     1     2     0     0  1.044561809E+02  8.557758759E+01 -2.287019274E+02  2.935373721E+02  1.250000000E+02  0.00000E+00  9.000E+00
      25     1     1     2     0     0 -8.930086485E+01 -1.055468838E+02 -8.024549024E+02  8.238165206E+02  1.250000000E+02  0.00000E+00  9.000E+00
      21     1     1     2   512   502 -1.515531607E+01  1.996929626E+01 -3.979259503E+01  4.703091555E+01  4.768371582E-07  0.00000E+00  9.000E+00
#rwgt            1           1   4.0904123943837342E-002           9      341391           0
</event>
<event>
      5   9999  3.79277E-02  2.60651E+01 -1.00000E+00  1.57406E-01
      21    -1     0     0   502   501  0.000000000E+00  0.000000000E+00  2.029935677E+01  2.029935677E+01  0.000000000E+00  0.00000E+00  9.000E+00
       2    -1     0     0   501     0  0.000000000E+00  0.000000000E+00 -1.419811416E+03  1.419811416E+03  0.000000000E+00  0.00000E+00  9.000E+00
      25     1     1     2     0     0 -1.857252091E+01 -8.369175803E+01 -4.898153182E+02  5.127312111E+02  1.250000000E+02  0.00000E+00  9.000E+00
      25     1     1     2     0     0 -7.454270446E+00  8.510515830E+01 -7.081665444E+02  7.241707732E+02  1.250000000E+02  0.00000E+00  9.000E+00
       2     1     1     2   502     0  2.602679135E+01 -1.413400270E+00 -2.015301966E+02  2.032087884E+02  3.814697266E-06  0.00000E+00  9.000E+00
#rwgt            1           1   2.6258408368962823E-002           9      341511           0
</event>
<event>
      5   9999  3.79277E-02  2.65559E+02 -1.00000E+00  1.07342E-01
      21    -1     0     0   502   501  0.000000000E+00  0.000000000E+00  2.819311428E+02  2.819311428E+02  0.000000000E+00  0.00000E+00  9.000E+00
      21    -1     0     0   501   511  0.000000000E+00  0.000000000E+00 -7.456330197E+02  7.456330197E+02  0.000000000E+00  0.00000E+00  9.000E+00
      25     1     1     2     0     0 -3.491065896E+02  1.428492345E+02 -1.637385314E+02  4.297867161E+02  1.250000000E+02  0.00000E+00  9.000E+00
      25     1     1     2     0     0  1.166769446E+02 -1.440442545E+01  3.002427981E+01  1.742052073E+02  1.250000000E+02  0.00000E+00  9.000E+00
      21     1     1     2   502   511  2.324296450E+02 -1.284448090E+02 -3.299876253E+02  4.235722391E+02  5.394796609E-06  0.00000E+00  9.000E+00
#rwgt            1           1   3.0107771335595081E-002           9      341660           0
</event>
<event>
      5   9999  3.79277E-02  1.02586E+01 -1.00000E+00  1.94484E-01
      21    -1     0     0   512   501  0.000000000E+00  0.000000000E+00  2.346602153E+02  2.346602153E+02  0.000000000E+00  0.00000E+00  9.000E+00
      21    -1     0     0   501   502  0.000000000E+00  0.000000000E+00 -1.897567176E+02  1.897567176E+02  0.000000000E+00  0.00000E+00  9.000E+00
      25     1     1     2     0     0 -1.291729716E+02 -8.882060908E+01 -2.416230116E+01  2.019494342E+02  1.250000000E+02  0.00000E+00  9.000E+00
      25     1     1     2     0     0  1.315839632E+02  7.884937574E+01  5.560716684E+01  2.055449353E+02  1.250000000E+02  0.00000E+00  9.000E+00
      21     1     1     2   512   502 -2.410991638E+00  9.971233347E+00  1.345863200E+01  1.692256335E+01  0.000000000E+00  0.00000E+00  9.000E+00
#rwgt            1           1   3.7903987493878175E-002           9      341738           0
</event>
<event>
      5   9999 -3.79277E-02  2.24007E+02 -1.00000E+00  1.09885E-01
      21    -1     0     0   502   501  0.000000000E+00  0.000000000E+00  2.159718919E+02  2.159718919E+02  0.000000000E+00  0.00000E+00  9.000E+00
      21    -1     0     0   501   511  0.000000000E+00  0.000000000E+00 -9.681541678E+02  9.681541678E+02  0.000000000E+00  0.00000E+00  9.000E+00
      25     1     1     2     0     0 -2.101573114E+02  1.544622517E+02 -4.464055706E+02  5.319094060E+02  1.250000000E+02  0.00000E+00  9.000E+00
      25     1     1     2     0     0  2.701236513E+02  6.136928142E+01 -4.302100435E+01  3.069344922E+02  1.250000000E+02  0.00000E+00  9.000E+00
      21     1     1     2   502   511 -5.996633993E+01 -2.158315331E+02 -2.627557010E+02  3.452821615E+02  3.814697266E-06  0.00000E+00  9.000E+00
#rwgt            1           1 -0.13784886212390368                9      341975           0
</event>
<event>
      5   9999  3.79277E-02  1.64559E+02 -1.00000E+00  1.14821E-01
      21    -1     0     0   512   501  0.000000000E+00  0.000000000E+00  1.236832013E+02  1.236832013E+02  0.000000000E+00  0.00000E+00  9.000E+00
      21    -1     0     0   501   502  0.000000000E+00  0.000000000E+00 -1.143695481E+03  1.143695481E+03  0.000000000E+00  0.00000E+00  9.000E+00
      25     1     1     2     0     0  1.224406707E+02 -8.516408491E+01 -6.714617158E+02  6.990926083E+02  1.250000000E+02  0.00000E+00  9.000E+00
      25     1     1     2     0     0 -7.674428852E+01  2.432505974E+02 -2.294938047E+02  3.651752256E+02  1.250000000E+02  0.00000E+00  9.000E+00
      21     1     1     2   512   502 -4.569638220E+01 -1.580865125E+02 -1.190567588E+02  2.031108480E+02  3.015782986E-06  0.00000E+00  9.000E+00
#rwgt            1           1   4.2802847675837252E-002           9      342135           0
</event>
<event>
      5   9999  3.79277E-02  1.71554E+01 -1.00000E+00  1.72061E-01
      21    -1     0     0   502   511  0.000000000E+00  0.000000000E+00  6.117759922E+02  6.117759922E+02  0.000000000E+00  0.00000E+00  9.000E+00
      21    -1     0     0   501   502  0.000000000E+00  0.000000000E+00 -2.667171757E+02  2.667171757E+02  0.000000000E+00  0.00000E+00  9.000E+00
      25     1     1     2     0     0 -1.842768356E+02  2.435665850E+02  3.383363560E+02  4.726300067E+02  1.250000000E+02  0.00000E+00  9.000E+00
      25     1     1     2     0     0  1.857330089E+02 -2.606600949E+02 -4.943438443E+01  3.471443418E+02  1.250000000E+02  0.00000E+00  9.000E+00
      21     1     1     2   501   511 -1.456173287E+00  1.709350991E+01  5.615684494E+01  5.871881943E+01  6.743495762E-07  0.00000E+00  9.000E+00
#rwgt            1           1   2.8622297592030419E-002           9      342219           0
</event>
<event>
      5   9999  3.79277E-02  1.57310E+01 -1.00000E+00  1.75459E-01
      21    -1     0     0   502   501  0.000000000E+00  0.000000000E+00  4.288492197E+02  4.288492197E+02  0.000000000E+00  0.00000E+00  9.000E+00
       2    -1     0     0   501     0  0.000000000E+00  0.000000000E+00 -1.785412078E+03  1.785412078E+03  0.000000000E+00  0.00000E+00  9.000E+00
      25     1     1     2     0     0  9.720035975E+01  2.840077421E+02 -2.130113254E+02  3.887250085E+02  1.250000000E+02  0.00000E+00  9.000E+00
      25     1     1     2     0     0 -8.926568141E+01 -2.704245133E+02  2.700267983E+02  4.118704299E+02  1.250000000E+02  0.00000E+00  9.000E+00
       2     1     1     2   502     0 -7.934678347E+00 -1.358322877E+01 -1.413578332E+03  1.413665860E+03  2.642899792E-05  0.00000E+00  9.000E+00
#rwgt            1           1   3.4917283436047004E-002           9      342462           0
</event>
<event>
      5   9999 -3.79909E-02  4.78952E+01 -1.00000E+00  1.40150E-01
      21    -1     0     0   502   501  0.000000000E+00  0.000000000E+00  1.367425144E+02  1.367425144E+02  0.000000000E+00  0.00000E+00  9.000E+00
      21    -1     0     0   501   511  0.000000000E+00  0.000000000E+00 -5.146687031E+02  5.146687031E+02  0.000000000E+00  0.00000E+00  9.000E+00
      25     1     1     2     0     0  1.598091571E+02  1.752716446E+01 -2.685326869E+02  3.370177623E+02  1.250000000E+02  0.00000E+00  9.000E+00
      25     1     1     2     0     0 -1.952529803E+02  1.468601779E+01 -4.917447469E+01  2.374500672E+02  1.250000000E+02  0.00000E+00  9.000E+00
      21     1     1     2   502   511  3.544382323E+01 -3.221318225E+01 -6.021902718E+01  7.694338796E+01  1.348699152E-06  0.00000E+00  9.000E+00
#rwgt            1           1 -0.30376598675233685                9      342670           0
</event>
<event>
      5   9999  3.79277E-02  2.81317E+01 -1.00000E+00  1.55005E-01
      21    -1     0     0   512   501  0.000000000E+00  0.000000000E+00  4.884473865E+02  4.884473865E+02  0.000000000E+00  0.00000E+00  9.000E+00
      21    -1     0     0   501   502  0.000000000E+00  0.000000000E+00 -4.545551650E+02  4.545551650E+02  0.000000000E+00  0.00000E+00  9.000E+00
      25     1     1     2     0     0  1.789885189E+01  1.598712988E+02 -7.195681335E+01  2.160601400E+02  1.250000000E+02  0.00000E+00  9.000E+00
      25     1     1     2     0     0 -7.565380117E+00 -1.860363600E+02 -2.694650537E+02  3.505754946E+02  1.250000000E+02  0.00000E+00  9.000E+00
      21     1     1     2   512   502 -1.033347177E+01  2.616506114E+01  3.753140886E+02  3.763669169E+02  5.394796609E-06  0.00000E+00  9.000E+00
#rwgt            1           1  0.17740874827227643                9      342826           0
</event>
<event>
      5   9999  3.79277E-02  8.43597E+00 -1.00000E+00  2.04702E-01
      21    -1     0     0   502   511  0.000000000E+00  0.000000000E+00  6.135174642E+02  6.135174642E+02  0.000000000E+00  0.00000E+00  9.000E+00
      21    -1     0     0   501   502  0.000000000E+00  0.000000000E+00 -5.135930122E+01  5.135930122E+01  0.000000000E+00  0.00000E+00  9.000E+00
      25     1     1     2     0     0 -6.966392439E+01  8.108813496E+01  1.707647604E+02  2.370948152E+02  1.250000000E+02  0.00000E+00  9.000E+00
      25     1     1     2     0     0  7.537229324E+01 -7.487684236E+01  3.759667289E+02  4.101993483E+02  1.250000000E+02  0.00000E+00  9.000E+00
      21     1     1     2   501   511 -5.708368851E+00 -6.211292600E+00  1.542667367E+01  1.758260195E+01  0.000000000E+00  0.00000E+00  9.000E+00
#rwgt            1           1   4.0854159058232406E-002           9      342964           0
</event>
<event>
      5   9999  3.79277E-02  2.00596E+01 -1.00000E+00  1.66263E-01
      21    -1     0     0   502   501  0.000000000E+00  0.000000000E+00  7.742646957E+01  7.742646957E+01  0.000000000E+00  0.00000E+00  9.000E+00
      21    -1     0     0   501   512  0.000000000E+00  0.000000000E+00 -1.119650329E+03  1.119650329E+03  0.000000000E+00  0.00000E+00  9.000E+00
      25     1     1     2     0     0  1.824323924E+02 -1.030305048E+02 -1.905496717E+02  3.095658898E+02  1.250000000E+02  0.00000E+00  9.000E+00
      25     1     1     2     0     0 -1.629876451E+02  9.810205211E+01 -8.079868643E+02  8.394383587E+02  1.250000000E+02  0.00000E+00  9.000E+00
      21     1     1     2   502   512 -1.944474734E+01  4.928452733E+00 -4.368732295E+01  4.807254967E+01  6.743495762E-07  0.00000E+00  9.000E+00
#rwgt            1           1   4.1304459666478853E-002           9      343349           0
</event>
<event>
      5   9999  3.79277E-02  6.14931E+01 -1.00000E+00  1.34135E-01
      21    -1     0     0   511   501  0.000000000E+00  0.000000000E+00  8.324010721E+02  8.324010721E+02  0.000000000E+00  0.00000E+00  9.000E+00
      21    -1     0     0   501   502  0.000000000E+00  0.000000000E+00 -3.907043287E+02  3.907043287E+02  0.000000000E+00  0.00000E+00  9.000E+00
      25     1     1     2     0     0  6.119427613E+01  9.878989450E+01  2.124688681E+02  2.725292693E+02  1.250000000E+02  0.00000E+00  9.000E+00
      25     1     1     2     0     0 -2.627025078E+00 -8.004758960E+01 -3.436821465E+02  3.743753940E+02  1.250000000E+02  0.00000E+00  9.000E+00
      21     1     1     2   511   502 -5.856725105E+01 -1.874230490E+01  5.729100217E+02  5.762007375E+02  0.000000000E+00  0.00000E+00  9.000E+00
#rwgt            1           1   3.7155437050995034E-002           9      343589           0
</event>
<event>
      5   9999  3.79277E-02  2.88233E+01 -1.00000E+00  1.54257E-01
      21    -1     0     0   502   501  0.000000000E+00  0.000000000E+00  7.783252297E+02  7.783252297E+02  0.000000000E+00  0.00000E+00  9.000E+00
      21    -1     0     0   512   502  0.000000000E+00  0.000000000E+00 -1.705366975E+02  1.705366975E+02  0.000000000E+00  0.00000E+00  9.000E+00
      25     1     1     2     0     0  1.036102410E+02 -1.027814559E+02  4.298692220E+02  4.708626740E+02  1.250000000E+02  0.00000E+00  9.000E+00
      25     1     1     2     0     0 -1.263756349E+02  8.510327064E+01  2.964696756E+02  3.559952757E+02  1.250000000E+02  0.00000E+00  9.000E+00
      21     1     1     2   512   501  2.276539391E+01  1.767818528E+01 -1.185503654E+02  1.220039775E+02  3.015782986E-06  0.00000E+00  9.000E+00
#rwgt            1           1   3.0505283571029548E-002           9      343692           0
</event>
<event>
      5   9999  3.79277E-02  7.47280E+01 -1.00000E+00  1.29799E-01
      21    -1     0     0   502   511  0.000000000E+00  0.000000000E+00  1.668226481E+02  1.668226481E+02  0.000000000E+00  0.00000E+00  9.000E+00
      21    -1     0     0   501   502  0.000000000E+00  0.000000000E+00 -6.166022183E+02  6.166022183E+02  0.000000000E+00  0.00000E+00  9.000E+00
      25     1     1     2     0     0 -1.418356583E+02  8.251632152E+01 -4.888613148E+02  5.306003038E+02  1.250000000E+02  0.00000E+00  9.000E+00
      25     1     1     2     0     0  1.000538236E+02 -2.056026022E+01 -1.267506728E+01  1.619232820E+02  1.250000000E+02  0.00000E+00  9.000E+00
      21     1     1     2   501   511  4.178183470E+01 -6.195606130E+01  5.175681187E+01  9.090128062E+01  1.348699152E-06  0.00000E+00  9.000E+00
#rwgt            1           1   4.7219496583332715E-002           9      343894           0
</event>
<event>
      5   9999  3.79277E-02  1.03191E+02 -1.00000E+00  1.23217E-01
      21    -1     0     0   502   501  0.000000000E+00  0.000000000E+00  6.834124255E+01  6.834124255E+01  0.000000000E+00  0.00000E+00  9.000E+00
       2    -1     0     0   501     0  0.000000000E+00  0.000000000E+00 -1.969605370E+03  1.969605370E+03  0.000000000E+00  0.00000E+00  9.000E+00
      25     1     1     2     0     0  1.595271597E+02  1.529772337E+02 -4.189796123E+02  4.899182220E+02  1.250000000E+02  0.00000E+00  9.000E+00
      25     1     1     2     0     0 -2.329698036E+02 -8.048899292E+01 -6.102914534E+02  6.699507933E+02  1.250000000E+02  0.00000E+00  9.000E+00
       2     1     1     2   502     0  7.344264389E+01 -7.248824080E+01 -8.719930620E+02  8.780775975E+02  1.525878906E-05  0.00000E+00  9.000E+00
#rwgt            1           1   3.3213868424154733E-002           9      343994           0
</event>
<event>
      5   9999  3.79277E-02  1.20915E+01 -1.00000E+00  1.86682E-01
      21    -1     0     0   502   501  0.000000000E+00  0.000000000E+00  4.865336297E+01  4.865336297E+01  0.000000000E+00  0.00000E+00  9.000E+00
      21    -1     0     0   501   511  0.000000000E+00  0.000000000E+00 -1.315062479E+03  1.315062479E+03  0.000000000E+00  0.00000E+00  9.000E+00
      25     1     1     2     0     0  6.216395333E+01 -1.440383643E+02 -2.365968826E+02  3.101846101E+02  1.250000000E+02  0.00000E+00  9.000E+00
      25     1     1     2     0     0 -6.913056542E+01  1.539212085E+02 -9.623631405E+02  9.850068973E+02  1.250000000E+02  0.00000E+00  9.000E+00
      21     1     1     2   502   511  6.966612097E+00 -9.882844199E+00 -6.744909279E+01  6.852433445E+01  9.536743164E-07  0.00000E+00  9.000E+00
#rwgt            1           1   3.9782835885317024E-002           9      344088           0
</event>
<event>
      5   9999  3.79277E-02  8.09371E+01 -1.00000E+00  1.28105E-01
      21    -1     0     0   502   512  0.000000000E+00  0.000000000E+00  1.060987784E+03  1.060987784E+03  0.000000000E+00  0.00000E+00  9.000E+00
      21    -1     0     0   501   502  0.000000000E+00  0.000000000E+00 -1.258899879E+02  1.258899879E+02  0.000000000E+00  0.00000E+00  9.000E+00
      25     1     1     2     0     0 -1.014133383E+02  2.373302486E+02  3.875774568E+02  4.821323440E+02  1.250000000E+02  0.00000E+00  9.000E+00
      25     1     1     2     0     0  2.162661490E+01 -2.237327921E+02  1.472291931E+02  2.963536874E+02  1.250000000E+02  0.00000E+00  9.000E+00
      21     1     1     2   501   512  7.978672339E+01 -1.359745653E+01  4.002911459E+02  4.083917403E+02  5.394796609E-06  0.00000E+00  9.000E+00
#rwgt            1           1   3.8188267206374499E-002           9      344321           0
</event>
<event>
      5   9999  3.79277E-02  1.09272E+02 -1.00000E+00  1.22120E-01
      21    -1     0     0   511   501  0.000000000E+00  0.000000000E+00  1.296734305E+03  1.296734305E+03  0.000000000E+00  0.00000E+00  9.000E+00
      21    -1     0     0   501   502  0.000000000E+00  0.000000000E+00 -1.421925586E+02  1.421925586E+02  0.000000000E+00  0.00000E+00  9.000E+00
      25     1     1     2     0     0  4.522806327E+01  7.738409223E+01 -5.374990532E+01  1.629353484E+02  1.250000000E+02  0.00000E+00  9.000E+00
      25     1     1     2     0     0 -8.356321046E+01  2.494302302E+01  1.561958940E+02  2.182363898E+02  1.250000000E+02  0.00000E+00  9.000E+00
      21     1     1     2   511   502  3.833514719E+01 -1.023271153E+02  1.052095758E+03  1.057755125E+03  1.525878906E-05  0.00000E+00  9.000E+00
#rwgt            1           1   2.8275493088947935E-002           9      344453           0
</event>
<event>
      5   9999  3.79277E-02  4.18002E+01 -1.00000E+00  1.43664E-01
      21    -1     0     0   512   501  0.000000000E+00  0.000000000E+00  5.692724184E+02  5.692724184E+02  0.000000000E+00  0.00000E+00  9.000E+00
      21    -1     0     0   501   502  0.000000000E+00  0.000000000E+00 -1.379264378E+02  1.379264378E+02  0.000000000E+00  0.00000E+00  9.000E+00
      25     1     1     2     0     0  9.781314807E+01  9.584182354E+01 -2.370900872E+01  1.869229364E+02  1.250000000E+02  0.00000E+00  9.000E+00
      25     1     1     2     0     0 -1.383974934E+02 -8.583346230E+01  4.117296145E+02  4.600733908E+02  1.250000000E+02  0.00000E+00  9.000E+00
      21     1     1     2   512   502  4.058434536E+01 -1.000836125E+01  4.332537482E+01  6.020252890E+01  1.430511475E-06  0.00000E+00  9.000E+00
#rwgt            1           1   2.2502860718273079E-002           9      344526           0
</event>
<event>
      5   9999  3.79277E-02  1.69892E+01 -1.00000E+00  1.72436E-01
      21    -1     0     0   511   501  0.000000000E+00  0.000000000E+00  2.560139491E+02  2.560139491E+02  0.000000000E+00  0.00000E+00  9.000E+00
      21    -1     0     0   501   502  0.000000000E+00  0.000000000E+00 -2.484516934E+02  2.484516934E+02  0.000000000E+00  0.00000E+00  9.000E+00
      25     1     1     2     0     0  3.491915359E+01 -2.048310316E+02  6.193551923E+01  2.502720666E+02  1.250000000E+02  0.00000E+00  9.000E+00
      25     1     1     2     0     0 -2.398708890E+01  1.918262762E+02 -5.657553255E+01  2.370622103E+02  1.250000000E+02  0.00000E+00  9.000E+00
      21     1     1     2   511   502 -1.093206469E+01  1.300475533E+01  2.202269037E+00  1.713136564E+01  1.712013080E-07  0.00000E+00  9.000E+00
#rwgt            1           1   3.0455800947416938E-002           9      344789           0
</event>
<event>
      5   9999  3.79277E-02  1.47881E+01 -1.00000E+00  1.77968E-01
      21    -1     0     0   502   501  0.000000000E+00  0.000000000E+00  1.261888950E+03  1.261888950E+03  0.000000000E+00  0.00000E+00  9.000E+00
      21    -1     0     0   512   502  0.000000000E+00  0.000000000E+00 -8.052436327E+01  8.052436327E+01  0.000000000E+00  0.00000E+00  9.000E+00
      25     1     1     2     0     0 -7.845374210E+01  2.436734806E+02  4.144062098E+02  5.028809616E+02  1.250000000E+02  0.00000E+00  9.000E+00
      25     1     1     2     0     0  9.268385432E+01 -2.476974803E+02  7.706417124E+02  8.242924163E+02  1.250000000E+02  0.00000E+00  9.000E+00
      21     1     1     2   512   501 -1.423011222E+01  4.023999703E+00 -3.683335558E+00  1.523993531E+01  5.527507362E-07  0.00000E+00  9.000E+00
#rwgt            1           1   3.6598173051648225E-002           9      344975           0
</event>
<event>
      5   9999  3.79277E-02  9.12390E+01 -1.00000E+00  1.25646E-01
      21    -1     0     0   502   501  0.000000000E+00  0.000000000E+00  7.733523951E+02  7.733523951E+02  0.000000000E+00  0.00000E+00  9.000E+00
      21    -1     0     0   501   511  0.000000000E+00  0.000000000E+00 -8.285177285E+01  8.285177285E+01  0.000000000E+00  0.00000E+00  9.000E+00
      25     1     1     2     0     0  1.011519580E+02 -1.519788292E+02  3.511864290E+02  4.150737176E+02  1.250000000E+02  0.00000E+00  9.000E+00
      25     1     1     2     0     0 -1.245040358E+02  6.377890325E+01  2.574360165E+02  3.185393320E+02  1.250000000E+02  0.00000E+00  9.000E+00
      21     1     1     2   502   511  2.335207774E+01  8.819992595E+01  8.187817673E+01  1.225911183E+02  2.336015456E-06  0.00000E+00  9.000E+00
#rwgt            1           1   3.5540320606878492E-002           9      345175           0
</event>
<event>
      5   9999  3.79277E-02  2.01311E+01 -1.00000E+00  1.66135E-01
      21    -1     0     0   502   501  0.000000000E+00  0.000000000E+00  3.377697362E+02  3.377697362E+02  0.000000000E+00  0.00000E+00  9.000E+00
      21    -1     0     0   501   512  0.000000000E+00  0.000000000E+00 -1.251728520E+02  1.251728520E+02  0.000000000E+00  0.00000E+00  9.000E+00
      25     1     1     2     0     0  5.224135926E+01 -1.116936767E+02  7.438560939E+01  1.906904715E+02  1.250000000E+02  0.00000E+00  9.000E+00
      25     1     1     2     0     0 -3.706571122E+01  9.846643787E+01  1.692576846E+02  2.352502288E+02  1.250000000E+02  0.00000E+00  9.000E+00
      21     1     1     2   502   512 -1.517564804E+01  1.322723888E+01 -3.104640986E+01  3.700188788E+01  7.539457465E-07  0.00000E+00  9.000E+00
#rwgt            1           1   3.8545792116721420E-002           9      345228           0
</event>
<event>
      5   9999  3.79277E-02  1.71594E+02 -1.00000E+00  1.14125E-01
      21    -1     0     0   502   501  0.000000000E+00  0.000000000E+00  5.988402405E+02  5.988402405E+02  0.000000000E+00  0.00000E+00  9.000E+00
      21    -1     0     0   511   502  0.000000000E+00  0.000000000E+00 -2.123534340E+02  2.123534340E+02  0.000000000E+00  0.00000E+00  9.000E+00
      25     1     1     2     0     0  1.026677945E+02 -2.028308886E+02  3.263722245E+02  4.169231036E+02  1.250000000E+02  0.00000E+00  9.000E+00
      25     1     1     2     0     0  6.500963908E+01  1.663794846E+02  3.064825853E+01  2.201651694E+02  1.250000000E+02  0.00000E+00  9.000E+00
      21     1     1     2   511   501 -1.676774335E+02  3.645140401E+01  2.946632342E+01  1.741054014E+02  3.693564745E-06  0.00000E+00  9.000E+00
#rwgt            2          11   2.5034548804733661E-003           9      345412           0
</event>
<event>
      5   9999  3.79277E-02  7.52128E+01 -1.00000E+00  1.29660E-01
      21    -1     0     0   502   512  0.000000000E+00  0.000000000E+00  5.368433356E+02  5.368433356E+02  0.000000000E+00  0.00000E+00  9.000E+00
      21    -1     0     0   501   502  0.000000000E+00  0.000000000E+00 -1.316429224E+02  1.316429224E+02  0.000000000E+00  0.00000E+00  9.000E+00
      25     1     1     2     0     0 -1.475409369E+02  1.605777610E+02  1.793392646E+02  3.087735695E+02  1.250000000E+02  0.00000E+00  9.000E+00
      25     1     1     2     0     0  1.167243750E+02 -9.196795653E+01  1.148023047E+02  2.255820337E+02  1.250000000E+02  0.00000E+00  9.000E+00
      21     1     1     2   501   512  3.081656184E+01 -6.860980447E+01  1.110588438E+02  1.341306548E+02  2.336015456E-06  0.00000E+00  9.000E+00
#rwgt            1           1   3.8480620741626920E-002           9      345447           0
</event>
<event>
      5   9999  3.79277E-02  7.41399E+01 -1.00000E+00  1.29969E-01
      21    -1     0     0   502   501  0.000000000E+00  0.000000000E+00  7.475590789E+02  7.475590789E+02  0.000000000E+00  0.00000E+00  9.000E+00
      21    -1     0     0   501   511  0.000000000E+00  0.000000000E+00 -1.033767570E+03  1.033767570E+03  0.000000000E+00  0.00000E+00  9.000E+00
      25     1     1     2     0     0  6.071671881E+01  1.754236219E+02  2.731054330E+02  3.530885789E+02  1.250000000E+02  0.00000E+00  9.000E+00
      25     1     1     2     0     0 -1.335603780E+02 -1.892265419E+02  3.930290139E+02  4.730135986E+02  1.250000000E+02  0.00000E+00  9.000E+00
      21     1     1     2   502   511  7.284365920E+01  1.380292004E+01 -9.523429375E+02  9.552244709E+02  0.000000000E+00  0.00000E+00  9.000E+00
#rwgt            1           1  0.12209183297550621                9      345663           0
</event>
<event>
      5   9999  3.79277E-02  1.63634E+01 -1.00000E+00  1.73897E-01
      21    -1     0     0   502   512  0.000000000E+00  0.000000000E+00  4.872350684E+02  4.872350684E+02  0.000000000E+00  0.00000E+00  9.000E+00
      21    -1     0     0   501   502  0.000000000E+00  0.000000000E+00 -1.806491014E+02  1.806491014E+02  0.000000000E+00  0.00000E+00  9.000E+00
      25     1     1     2     0     0  2.353364172E+02 -1.633886216E+01  9.022420638E+01  2.818077271E+02  1.250000000E+02  0.00000E+00  9.000E+00
      25     1     1     2     0     0 -2.194693326E+02  1.233936360E+01  1.054724248E+02  2.739862774E+02  1.250000000E+02  0.00000E+00  9.000E+00
      21     1     1     2   501   512 -1.586708458E+01  3.999498555E+00  1.108893357E+02  1.120901652E+02  1.348699152E-06  0.00000E+00  9.000E+00
#rwgt            1           1   4.0964846564692133E-002           9      345815           0
</event>
<event>
      5   9999  3.79277E-02  1.62809E+01 -1.00000E+00  1.74095E-01
      21    -1     0     0   502   501  0.000000000E+00  0.000000000E+00  5.612885958E+02  5.612885958E+02  0.000000000E+00  0.00000E+00  9.000E+00
      21    -1     0     0   511   502  0.000000000E+00  0.000000000E+00 -1.157223073E+02  1.157223073E+02  0.000000000E+00  0.00000E+00  9.000E+00
      25     1     1     2     0     0 -7.897406005E+01 -1.022213661E+02  4.499218145E+02  4.845005150E+02  1.250000000E+02  0.00000E+00  9.000E+00
      25     1     1     2     0     0  8.003662827E+01  8.597518234E+01 -1.632182067E+01  1.723049496E+02  1.250000000E+02  0.00000E+00  9.000E+00
      21     1     1     2   511   501 -1.062568221E+00  1.624618380E+01  1.196629469E+01  2.020543857E+01  2.920019320E-07  0.00000E+00  9.000E+00
#rwgt            1           1   2.7172877072326056E-002           9      346017           0
</event>
<event>
      5   9999  3.79277E-02  3.17108E+01 -1.00000E+00  1.51386E-01
      21    -1     0     0   502   512  0.000000000E+00  0.000000000E+00  1.740135168E+03  1.740135168E+03  0.000000000E+00  0.00000E+00  9.000E+00
      21    -1     0     0   501   502  0.000000000E+00  0.000000000E+00 -2.072577446E+02  2.072577446E+02  0.000000000E+00  0.00000E+00  9.000E+00
      25     1     1     2     0     0  6.465179928E+01 -1.517990990E+02 -5.242131215E+01  2.135317671E+02  1.250000000E+02  0.00000E+00  9.000E+00
      25     1     1     2     0     0 -8.088043420E+01  1.245556759E+02  5.298147552E+01  2.012157990E+02  1.250000000E+02  0.00000E+00  9.000E+00
      21     1     1     2   501   512  1.622863492E+01  2.724342311E+01  1.532317260E+03  1.532645346E+03  2.157918644E-05  0.00000E+00  9.000E+00
#rwgt            1           1   3.9681900995789603E-002           9      346211           0
</event>
<event>
      5   9999  3.79277E-02  7.21713E+01 -1.00000E+00  1.30552E-01
      -3    -1     0     0     0   501  0.000000000E+00  0.000000000E+00  8.162119680E+02  8.162119680E+02  0.000000000E+00  0.00000E+00  9.000E+00
      21    -1     0     0   501   502  0.000000000E+00  0.000000000E+00 -1.050982740E+02  1.050982740E+02  0.000000000E+00  0.00000E+00  9.000E+00
      25     1     1     2     0     0  1.116214553E+02 -7.912092072E+01  3.849695044E+02  4.272540095E+02  1.250000000E+02  0.00000E+00  9.000E+00
      25     1     1     2     0     0 -8.841565215E+01  1.474596933E+02  6.376100930E+01  2.219282655E+02  1.250000000E+02  0.00000E+00  9.000E+00
      -3     1     1     2     0   502 -2.320580312E+01 -6.833877262E+01  2.623831803E+02  2.721279671E+02  3.814697266E-06  0.00000E+00  9.000E+00
#rwgt            1           1   4.4120836521589123E-002           9      346862           0
</event>
<event>
      5   9999  3.79277E-02  2.63870E+01 -1.00000E+00  1.57014E-01
      21    -1     0     0   511   501  0.000000000E+00  0.000000000E+00  4.629175717E+02  4.629175717E+02  0.000000000E+00  0.00000E+00  9.000E+00
      21    -1     0     0   501   502  0.000000000E+00  0.000000000E+00 -1.428236407E+02  1.428236407E+02  0.000000000E+00  0.00000E+00  9.000E+00
      25     1     1     2     0     0  2.473909788E+01 -2.621165469E+01  3.875713084E+02  4.088222021E+02  1.250000000E+02  0.00000E+00  9.000E+00
      25     1     1     2     0     0 -2.750093512E+01  5.245370474E+01 -8.760702761E+01  1.637305221E+02  1.250000000E+02  0.00000E+00  9.000E+00
      21     1     1     2   511   502  2.761837247E+00 -2.624205005E+01  2.012965017E+01  3.318848824E+01  5.331201500E-07  0.00000E+00  9.000E+00
#rwgt            1           1   4.5015962067596518E-002           9      346939           0
</event>
<event>
      5   9999 -3.79277E-02  1.23736E+02 -1.00000E+00  1.19806E-01
      21    -1     0     0   512   501  0.000000000E+00  0.000000000E+00  6.538055246E+02  6.538055246E+02  0.000000000E+00  0.00000E+00  9.000E+00
      21    -1     0     0   501   502  0.000000000E+00  0.000000000E+00 -1.632172643E+02  1.632172643E+02  0.000000000E+00  0.00000E+00  9.000E+00
      25     1     1     2     0     0 -6.731410284E+01 -1.653944018E+02  1.424815167E+02  2.604082933E+02  1.250000000E+02  0.00000E+00  9.000E+00
      25     1     1     2     0     0  1.889138494E+02  1.882853066E+02  1.710977074E+02  3.406453062E+02  1.250000000E+02  0.00000E+00  9.000E+00
      21     1     1     2   512   502 -1.215997465E+02 -2.289090478E+01  1.770090362E+02  2.159691894E+02  3.814697266E-06  0.00000E+00  9.000E+00
#rwgt            1           1 -0.20554964800231951                9      347139           0
</event>
<event>
      5   9999  3.79277E-02  4.85166E+01 -1.00000E+00  1.39826E-01
      21    -1     0     0   502   501  0.000000000E+00  0.000000000E+00  1.938102439E+02  1.938102439E+02  0.000000000E+00  0.00000E+00  9.000E+00
      21    -1     0     0   511   502  0.000000000E+00  0.000000000E+00 -3.821019081E+02  3.821019081E+02  0.000000000E+00  0.00000E+00  9.000E+00
      25     1     1     2     0     0  9.386779981E+01 -9.937838715E+01  1.585039685E+01  1.859125137E+02  1.250000000E+02  0.00000E+00  9.000E+00
      25     1     1     2     0     0 -1.341702199E+02  1.263890360E+02 -4.980086161E+01  2.282125372E+02  1.250000000E+02  0.00000E+00  9.000E+00
      21     1     1     2   511   501  4.030242011E+01 -2.701064882E+01 -1.543411994E+02  1.617871010E+02  2.697398305E-06  0.00000E+00  9.000E+00
#rwgt            1           1   3.0972232948656413E-002           9      347195           0
</event>
<event>
      5   9999  3.79277E-02  1.77308E+01 -1.00000E+00  1.70803E-01
      21    -1     0     0   502   501  0.000000000E+00  0.000000000E+00  2.223273622E+02  2.223273622E+02  0.000000000E+00  0.00000E+00  9.000E+00
      21    -1     0     0   501   512  0.000000000E+00  0.000000000E+00 -1.123340473E+03  1.123340473E+03  0.000000000E+00  0.00000E+00  9.000E+00
      25     1     1     2     0     0  9.510259158E+00  1.448912502E+02 -4.270087437E+01  1.962964189E+02  1.250000000E+02  0.00000E+00  9.000E+00
      25     1     1     2     0     0 -2.131869679E+01 -1.581177898E+02  7.483342653E+01  2.160573165E+02  1.250000000E+02  0.00000E+00  9.000E+00
      21     1     1     2   502   512  1.180843763E+01  1.322653958E+01 -9.331456626E+02  9.333140994E+02  0.000000000E+00  0.00000E+00  9.000E+00
#rwgt            1           1   4.9993711186805172E-002           9      347433           0
</event>
<event>
      5   9999  3.79277E-02  1.17832E+02 -1.00000E+00  1.20705E-01
      21    -1     0     0   502   501  0.000000000E+00  0.000000000E+00  4.972188019E+02  4.972188019E+02  0.000000000E+00  0.00000E+00  9.000E+00
      21    -1     0     0   501   511  0.000000000E+00  0.000000000E+00 -3.033831321E+03  3.033831321E+03  0.000000000E+00  0.00000E+00  9.000E+00
      25     1     1     2     0     0 -2.135671592E+02  4.807988725E+01  2.531230166E+02  3.572378320E+02  1.250000000E+02  0.00000E+00  9.000E+00
      25     1     1     2     0     0  1.665362896E+02  5.995917661E+01  1.293426872E+02  2.523568294E+02  1.250000000E+02  0.00000E+00  9.000E+00
      21     1     1     2   502   511  4.703086963E+01 -1.080390639E+02 -2.919078223E+03  2.921455461E+03  4.315837288E-05  0.00000E+00  9.000E+00
#rwgt            1           1   4.1325681805747375E-002           9      347610           0
</event>
<event>
      5   9999  3.79277E-02  1.16528E+01 -1.00000E+00  1.88379E-01
      21    -1     0     0   502   501  0.000000000E+00  0.000000000E+00  7.980254371E+02  7.980254371E+02  0.000000000E+00  0.00000E+00  9.000E+00
      21    -1     0     0   501   512  0.000000000E+00  0.000000000E+00 -6.361156444E+01  6.361156444E+01  0.000000000E+00  0.00000E+00  9.000E+00
      25     1     1     2     0     0 -1.509802519E+02 -7.987776735E+01  4.173896852E+02  4.679900036E+02  1.250000000E+02  0.00000E+00  9.000E+00
      25     1     1     2     0     0  1.587586811E+02  8.855441786E+01  3.082335895E+02  3.790503258E+02  1.250000000E+02  0.00000E+00  9.000E+00
      21     1     1     2   502   512 -7.778429266E+00 -8.676650517E+00  8.790597956E+00  1.459667217E+01  0.000000000E+00  0.00000E+00  9.000E+00
#rwgt            1           1   5.2068428878477693E-002           9      347660           0
</event>
<event>
      5   9999 -3.79277E-02  2.55749E+01 -1.00000E+00  1.58015E-01
      21    -1     0     0   511   501  0.000000000E+00  0.000000000E+00  3.195556880E+02  3.195556880E+02  0.000000000E+00  0.00000E+00  9.000E+00
      21    -1     0     0   501   502  0.000000000E+00  0.000000000E+00 -2.208042905E+02  2.208042905E+02  0.000000000E+00  0.00000E+00  9.000E+00
      25     1     1     2     0     0  1.315470577E+02  1.593661157E+02  2.599237715E+01  2.429049010E+02  1.250000000E+02  0.00000E+00  9.000E+00
      25     1     1     2     0     0 -1.519122800E+02 -1.438957928E+02  2.725610623E+01  2.452574878E+02  1.250000000E+02  0.00000E+00  9.000E+00
      21     1     1     2   511   502  2.036522227E+01 -1.547032293E+01  4.550291418E+01  5.219758968E+01  6.743495762E-07  0.00000E+00  9.000E+00
#rwgt            1           1  -2.8483867639826854E-002           9      347994           0
</event>
<event>
      5   9999  3.79277E-02  4.91825E+01 -1.00000E+00  1.39485E-01
       2    -1     0     0   502     0  0.000000000E+00  0.000000000E+00  1.946732118E+03  1.946732118E+03  0.000000000E+00  0.00000E+00  9.000E+00
      21    -1     0     0   501   502  0.000000000E+00  0.000000000E+00 -1.654722828E+02  1.654722828E+02  0.000000000E+00  0.00000E+00  9.000E+00
      25     1     1     2     0     0  1.641155349E+02 -2.712132599E+02  4.152810911E+02  5.371907722E+02  1.250000000E+02  0.00000E+00  9.000E+00
      25     1     1     2     0     0 -1.179148607E+02  2.543486644E+02  1.223959584E+02  3.304586632E+02  1.250000000E+02  0.00000E+00  9.000E+00
       2     1     1     2   501     0 -4.620067419E+01  1.686459546E+01  1.243582786E+03  1.244554965E+03  1.525878906E-05  0.00000E+00  9.000E+00
#rwgt            1           1   3.2511536573545295E-002           9      348180           0
</event>
<event>
      5   9999  3.79277E-02  1.19773E+02 -1.00000E+00  1.20403E-01
       2    -1     0     0   502     0  0.000000000E+00  0.000000000E+00  2.650763966E+03  2.650763966E+03  0.000000000E+00  0.00000E+00  9.000E+00
      21    -1     0     0   501   502  0.000000000E+00  0.000000000E+00 -2.778288245E+01  2.778288245E+01  0.000000000E+00  0.00000E+00  9.000E+00
      25     1     1     2     0     0  1.627567257E+02 -4.205695641E+01  6.473473745E+02  6.803985322E+02  1.250000000E+02  0.00000E+00  9.000E+00
      25     1     1     2     0     0 -5.481589748E+01  9.396472496E+01  1.427228941E+03  1.436816481E+03  1.250000000E+02  0.00000E+00  9.000E+00
       2     1     1     2   501     0 -1.079408282E+02 -5.190776856E+01  5.484047688E+02  5.613318352E+02  1.321449896E-05  0.00000E+00  9.000E+00
#rwgt            1           1  0.20474812052712804                9      348337           0
</event>
<event>
      5   9999  3.79277E-02  2.59658E+01 -1.00000E+00  1.57528E-01
      21    -1     0     0   511   501  0.000000000E+00  0.000000000E+00  9.160202349E+01  9.160202349E+01  0.000000000E+00  0.00000E+00  9.000E+00
      21    -1     0     0   501   502  0.000000000E+00  0.000000000E+00 -6.859352743E+02  6.859352743E+02  0.000000000E+00  0.00000E+00  9.000E+00
      25     1     1     2     0     0 -6.944478316E+01 -6.100948267E+01 -5.532053139E+02  5.746354098E+02  1.250000000E+02  0.00000E+00  9.000E+00
      25     1     1     2     0     0  8.968372690E+01  7.727632372E+01 -4.081540963E+01  1.769341650E+02  1.250000000E+02  0.00000E+00  9.000E+00
      21     1     1     2   511   502 -2.023894374E+01 -1.626684105E+01 -3.125272313E-01  2.596772294E+01  5.578241284E-07  0.00000E+00  9.000E+00
#rwgt            1           1   3.8855700397378179E-002           9      348456           0
</event>
<event>
      5   9999  3.79277E-02  2.42238E+01 -1.00000E+00  1.59784E-01
      21    -1     0     0   502   501  0.000000000E+00  0.000000000E+00  8.102180145E+02  8.102180145E+02  0.000000000E+00  0.00000E+00  9.000E+00
      21    -1     0     0   512   502  0.000000000E+00  0.000000000E+00 -3.857914862E+02  3.857914862E+02  0.000000000E+00  0.00000E+00  9.000E+00
      25     1     1     2     0     0 -3.438142266E+01 -1.885371790E+00  7.740446267E+01  1.510036016E+02  1.250000000E+02  0.00000E+00  9.000E+00
      25     1     1     2     0     0  2.668399304E+01  2.485365486E+01  6.894924764E+02  7.016798519E+02  1.250000000E+02  0.00000E+00  9.000E+00
      21     1     1     2   512   501  7.697429626E+00 -2.296828307E+01 -3.424704107E+02  3.433260472E+02  5.394796609E-06  0.00000E+00  9.000E+00
#rwgt            1           1   4.1353134178873131E-002           9      348601           0
</event>
<event>
      5   9999  3.79277E-02  7.97013E+01 -1.00000E+00  1.28428E-01
      21    -1     0     0   502   501  0.000000000E+00  0.000000000E+00  2.737002913E+02  2.737002913E+02  0.000000000E+00  0.00000E+00  9.000E+00
      21    -1     0     0   511   502  0.000000000E+00  0.000000000E+00 -3.363035011E+02  3.363035011E+02  0.000000000E+00  0.00000E+00  9.000E+00
      25     1     1     2     0     0 -1.531647901E+02 -6.054426658E+01 -3.903862807E+01  2.104140576E+02  1.250000000E+02  0.00000E+00  9.000E+00
      25     1     1     2     0     0  1.246151925E+02 -1.386826876E+01  1.346499718E+02  2.224340127E+02  1.250000000E+02  0.00000E+00  9.000E+00
      21     1     1     2   511   501  2.854959764E+01  7.441253534E+01 -1.582145536E+02  1.771557222E+02  0.000000000E+00  0.00000E+00  9.000E+00
#rwgt            1           1   2.5184594152185099E-002           9      348803           0
</event>
<event>
      5   9999  3.79277E-02  4.56638E+01 -1.00000E+00  1.41361E-01
      21    -1     0     0   512   501  0.000000000E+00  0.000000000E+00  4.420198164E+02  4.420198164E+02  0.000000000E+00  0.00000E+00  9.000E+00
      21    -1     0     0   501   502  0.000000000E+00  0.000000000E+00 -1.473996421E+02  1.473996421E+02  0.000000000E+00  0.00000E+00  9.000E+00
      25     1     1     2     0     0  1.426744984E+02  6.891799649E+01  2.238996067E+01  2.030566745E+02  1.250000000E+02  0.00000E+00  9.000E+00
      25     1     1     2     0     0 -1.580662726E+02 -2.592639771E+01  1.407252876E+02  2.471552775E+02  1.250000000E+02  0.00000E+00  9.000E+00
      21     1     1     2   512   502  1.539177423E+01 -4.299159878E+01  1.315049260E+02  1.392075064E+02  1.907348633E-06  0.00000E+00  9.000E+00
#rwgt            1           1   9.4324033519124620E-002           9      348884           0
</event>
<event>
      5   9999  3.79277E-02  6.01201E+01 -1.00000E+00  1.34657E-01
      21    -1     0     0   511   501  0.000000000E+00  0.000000000E+00  7.683639310E+01  7.683639310E+01  0.000000000E+00  0.00000E+00  9.000E+00
      21    -1     0     0   501   502  0.000000000E+00  0.000000000E+00 -6.823615380E+02  6.823615380E+02  0.000000000E+00  0.00000E+00  9.000E+00
      25     1     1     2     0     0  7.882852779E+00 -1.655891680E+02 -4.090279308E+02  4.587055266E+02  1.250000000E+02  0.00000E+00  9.000E+00
      25     1     1     2     0     0 -2.392030138E+01  1.076475809E+02 -1.532808808E+02  2.264513434E+02  1.250000000E+02  0.00000E+00  9.000E+00
      21     1     1     2   511   502  1.603744860E+01  5.794158709E+01 -4.321633326E+01  7.404106112E+01  1.066240300E-06  0.00000E+00  9.000E+00
#rwgt            1           1   3.1545302824227968E-002           9      348968           0
</event>
<event>
      5   9999  3.79277E-02  3.14825E+01 -1.00000E+00  1.51599E-01
      21    -1     0     0   502   501  0.000000000E+00  0.000000000E+00  2.619810408E+02  2.619810408E+02  0.000000000E+00  0.00000E+00  9.000E+00
      21    -1     0     0   501   512  0.000000000E+00  0.000000000E+00 -6.119607590E+02  6.119607590E+02  0.000000000E+00  0.00000E+00  9.000E+00
      25     1     1     2     0     0 -2.654086126E+02 -1.907590029E+02 -3.526061206E+02  4.967764136E+02  1.250000000E+02  0.00000E+00  9.000E+00
      25     1     1     2     0     0  2.339263594E+02  1.906366384E+02  3.912190458E+01  3.289671609E+02  1.250000000E+02  0.00000E+00  9.000E+00
      21     1     1     2   502   512  3.148225325E+01  1.223644992E-01 -3.649550213E+01  4.819822527E+01  4.768371582E-07  0.00000E+00  9.000E+00
#rwgt            1           1   3.8493827645806729E-002           9      349068           0
</event>
<event>
      5   9999  3.79277E-02  1.95333E+01 -1.00000E+00  1.67220E-01
      21    -1     0     0   502   501  0.000000000E+00  0.000000000E+00  5.468768996E+01  5.468768996E+01  0.000000000E+00  0.00000E+00  9.000E+00
       1    -1     0     0   501     0  0.000000000E+00  0.000000000E+00 -2.300353994E+03  2.300353994E+03  0.000000000E+00  0.00000E+00  9.000E+00
      25     1     1     2     0     0 -1.736246935E+02 -1.340824157E+02 -3.321985211E+02  4.172582963E+02  1.250000000E+02  0.00000E+00  9.000E+00
      25     1     1     2     0     0  1.931472669E+02  1.347301180E+02 -1.476443611E+03  1.500322902E+03  1.250000000E+02  0.00000E+00  9.000E+00
       1     1     1     2   502     0 -1.952257336E+01 -6.477023075E-01 -4.370241717E+02  4.374604863E+02  5.394796609E-06  0.00000E+00  9.000E+00
#rwgt            1           1   2.8481440135900669E-002           9      349204           0
</event>
<event>
      5   9999  3.79277E-02  2.95210E+01 -1.00000E+00  1.53527E-01
      21    -1     0     0   502   511  0.000000000E+00  0.000000000E+00  8.788844681E+01  8.788844681E+01  0.000000000E+00  0.00000E+00  9.000E+00
      21    -1     0     0   501   502  0.000000000E+00  0.000000000E+00 -1.205285754E+03  1.205285754E+03  0.000000000E+00  0.00000E+00  9.000E+00
      25     1     1     2     0     0 -1.261299488E+02 -7.599764077E+01 -7.215794039E+01  2.061945047E+02  1.250000000E+02  0.00000E+00  9.000E+00
      25     1     1     2     0     0  9.668667962E+01  7.385688783E+01 -1.042876344E+03  1.057364281E+03  1.250000000E+02  0.00000E+00  9.000E+00
      21     1     1     2   501   511  2.944326922E+01  2.140752942E+00 -2.363022624E+00  2.961541493E+01  6.447228090E-07  0.00000E+00  9.000E+00
#rwgt            1           1   4.2552888280959177E-002           9      349372           0
</event>
<event>
      5   9999 -3.79277E-02  1.01073E+02 -1.00000E+00  1.23620E-01
      21    -1     0     0   502   501  0.000000000E+00  0.000000000E+00  8.998932390E+02  8.998932390E+02  0.000000000E+00  0.00000E+00  9.000E+00
      21    -1     0     0   501   512  0.000000000E+00  0.000000000E+00 -8.361816015E+01  8.361816015E+01  0.000000000E+00  0.00000E+00  9.000E+00
      25     1     1     2     0     0  8.455905338E+00  7.838097065E+01  7.056219708E+02  7.209316504E+02  1.250000000E+02  0.00000E+00  9.000E+00
      25     1     1     2     0     0  5.133617530E+01  3.109282874E+00  4.686303509E+01  1.430601782E+02  1.250000000E+02  0.00000E+00  9.000E+00
      21     1     1     2   502   512 -5.979208064E+01 -8.149025353E+01  6.379007295E+01  1.195195705E+02  2.939421655E-06  0.00000E+00  9.000E+00
#rwgt            1           1  -6.5415370901277447E-003           9      349531           0
</event>
<event>
      5   9999  3.79277E-02  3.52455E+01 -1.00000E+00  1.48333E-01
      21    -1     0     0   502   501  0.000000000E+00  0.000000000E+00  7.905369706E+01  7.905369706E+01  0.000000000E+00  0.00000E+00  9.000E+00
      21    -1     0     0   511   502  0.000000000E+00  0.000000000E+00 -8.096750638E+02  8.096750638E+02  0.000000000E+00  0.00000E+00  9.000E+00
      25     1     1     2     0     0  1.219824973E+02  8.104721751E+01 -8.630600433E+01  2.110026244E+02  1.250000000E+02  0.00000E+00  9.000E+00
      25     1     1     2     0     0 -9.057002595E+01 -6.506276985E+01 -4.484626446E+02  4.787273099E+02  1.250000000E+02  0.00000E+00  9.000E+00
      21     1     1     2   511   501 -3.141247132E+01 -1.598444766E+01 -1.958527179E+02  1.989988267E+02  2.697398305E-06  0.00000E+00  9.000E+00
#rwgt            1           1   3.5950179668620678E-002           9      349771           0
</event>
<event>
      5   9999  3.79277E-02  2.90511E+02 -1.00000E+00  1.06048E-01
       3    -1     0     0   502     0  0.000000000E+00  0.000000000E+00  7.009186556E+02  7.009186556E+02  0.000000000E+00  0.00000E+00  9.000E+00
      21    -1     0     0   501   502  0.000000000E+00  0.000000000E+00 -2.851979597E+02  2.851979597E+02  0.000000000E+00  0.00000E+00  9.000E+00
      25     1     1     2     0     0  1.510094396E+02  5.135367780E+01  1.525861198E+02  2.536702092E+02  1.250000000E+02  0.00000E+00  9.000E+00
      25     1     1     2     0     0 -2.642337831E+01  2.110863896E+02 -1.010108696E+02  2.666155557E+02  1.250000000E+02  0.00000E+00  9.000E+00
       3     1     1     2   501     0 -1.245860613E+02 -2.624400674E+02  3.641454456E+02  4.658308504E+02  5.394796609E-06  0.00000E+00  9.000E+00
#rwgt            2          19   2.2201449470575111E-005           9      349883           0
</event>
<event>
      5   9999  3.79277E-02  2.94640E+01 -1.00000E+00  1.53586E-01
      21    -1     0     0   511   501  0.000000000E+00  0.000000000E+00  4.216669011E+01  4.216669011E+01  0.000000000E+00  0.00000E+00  9.000E+00
      21    -1     0     0   501   502  0.000000000E+00  0.000000000E+00 -1.070807198E+03  1.070807198E+03  0.000000000E+00  0.00000E+00  9.000E+00
      25     1     1     2     0     0 -9.444556298E+01  7.856108730E+00 -2.919643284E+02  3.314360449E+02  1.250000000E+02  0.00000E+00  9.000E+00
      25     1     1     2     0     0  8.893739640E+01  2.108849335E+01 -7.359496887E+02  7.520648438E+02  1.250000000E+02  0.00000E+00  9.000E+00
      21     1     1     2   511   502  5.508166576E+00 -2.894460208E+01 -7.264905484E-01  2.947299912E+01  1.178605553E-06  0.00000E+00  9.000E+00
#rwgt            1           1   4.2094810490412811E-002           9      349917           0
</event>
<event>
      5   9999  3.79277E-02  2.49368E+01 -1.00000E+00  1.58833E-01
      21    -1     0     0   502   501  0.000000000E+00  0.000000000E+00  1.123773778E+02  1.123773778E+02  0.000000000E+00  0.00000E+00  9.000E+00
      21    -1     0     0   501   512  0.000000000E+00  0.000000000E+00 -2.961100344E+03  2.961100344E+03  0.000000000E+00  0.00000E+00  9.000E+00
      25     1     1     2     0     0 -9.122464086E+00  6.222295965E+01  5.608607337E+01  1.507500039E+02  1.250000000E+02  0.00000E+00  9.000E+00
      25     1     1     2     0     0  1.879109299E+01 -8.520910171E+01 -6.445749066E+02  6.623560270E+02  1.250000000E+02  0.00000E+00  9.000E+00
      21     1     1     2   502   512 -9.668628907E+00  2.298614206E+01 -2.260234133E+03  2.260371691E+03  5.285799584E-05  0.00000E+00  9.000E+00
#rwgt            1           1   3.9209185051982842E-002           9      350031           0
</event>
<event>
      5   9999  3.79277E-02  2.52166E+01 -1.00000E+00  1.58471E-01
      21    -1     0     0   502   501  0.000000000E+00  0.000000000E+00  1.627033784E+02  1.627033784E+02  0.000000000E+00  0.00000E+00  9.000E+00
      21    -1     0     0   511   502  0.000000000E+00  0.000000000E+00 -2.743947359E+02  2.743947359E+02  0.000000000E+00  0.00000E+00  9.000E+00
      25     1     1     2     0     0  9.059530190E+01  6.852929691E+01 -7.497829081E+00  1.690709635E+02  1.250000000E+02  0.00000E+00  9.000E+00
      25     1     1     2     0     0 -1.125778322E+02 -8.088427148E+01 -2.922535696E+01  1.889316150E+02  1.250000000E+02  0.00000E+00  9.000E+00
      21     1     1     2   511   501  2.198253028E+01  1.235497457E+01 -7.496817149E+01  7.909553572E+01  1.651812370E-06  0.00000E+00  9.000E+00
#rwgt            1           1   3.8412121369584926E-002           9      350474           0
</event>
<event>
      5   9999  3.79277E-02  1.40366E+02 -1.00000E+00  1.17548E-01
      21    -1     0     0   502   501  0.000000000E+00  0.000000000E+00  3.951112005E+02  3.951112005E+02  0.000000000E+00  0.00000E+00  9.000E+00
      21    -1     0     0   512   502  0.000000000E+00  0.000000000E+00 -2.145960540E+02  2.145960540E+02  0.000000000E+00  0.00000E+00  9.000E+00
      25     1     1     2     0     0 -8.103190161E+01  1.500629528E+02  5.842647211E+01  2.193711729E+02  1.250000000E+02  0.00000E+00  9.000E+00
      25     1     1     2     0     0  1.053484891E+02 -1.181902815E+01  1.755180797E+02  2.401449351E+02  1.250000000E+02  0.00000E+00  9.000E+00
      21     1     1     2   512   501 -2.431658749E+01 -1.382439246E+02 -5.342940528E+01  1.501911464E+02  2.861022949E-06  0.00000E+00  9.000E+00
#rwgt            1           1   4.4300858146196928E-002           9      350653           0
</event>
<event>
      5   9999 -3.79277E-02  1.16919E+02 -1.00000E+00  1.20850E-01
       2    -1     0     0   502     0  0.000000000E+00  0.000000000E+00  1.655353470E+03  1.655353470E+03  0.000000000E+00  0.00000E+00  9.000E+00
      21    -1     0     0   501   502  0.000000000E+00  0.000000000E+00 -2.503103774E+02  2.503103774E+02  0.000000000E+00  0.00000E+00  9.000E+00
      25     1     1     2     0     0  1.729440255E+02 -1.214099531E+02 -1.345251758E+02  2.799500591E+02  1.250000000E+02  0.00000E+00  9.000E+00
      25     1     1     2     0     0 -1.067266322E+02  2.177699868E+02  4.250592846E+02  5.050888403E+02  1.250000000E+02  0.00000E+00  9.000E+00
       2     1     1     2   501     0 -6.621739333E+01 -9.636003368E+01  1.114508984E+03  1.120624948E+03  2.642899792E-05  0.00000E+00  9.000E+00
#rwgt            1           1  -1.6569267551374979E-002           9      350695           0
</event>
<event>
      5   9999  3.79277E-02  7.69638E+01 -1.00000E+00  1.29168E-01
      21    -1     0     0   502   501  0.000000000E+00  0.000000000E+00  2.318280684E+02  2.318280684E+02  0.000000000E+00  0.00000E+00  9.000E+00
       5    -1     0     0   501     0  0.000000000E+00  0.000000000E+00 -2.173374104E+03  2.173374104E+03  0.000000000E+00  0.00000E+00  9.000E+00
      25     1     1     2     0     0 -2.214226895E+02 -1.340442127E+02  1.080418507E+01  2.876414240E+02  1.250000000E+02  0.00000E+00  9.000E+00
      25     1     1     2     0     0  2.306984318E+02  2.104469933E+02 -2.643405158E+02  4.277973957E+02  1.250000000E+02  0.00000E+00  9.000E+00
       5     1     1     2   502     0 -9.275742251E+00 -7.640278065E+01 -1.688009705E+03  1.689763353E+03  2.157918644E-05  0.00000E+00  9.000E+00
#rwgt            1           1  0.11581899960318763                9      350792           0
</event>
<event>
      5   9999  3.79277E-02  1.59591E+01 -1.00000E+00  1.74885E-01
      21    -1     0     0   511   501  0.000000000E+00  0.000000000E+00  2.422750133E+02  2.422750133E+02  0.000000000E+00  0.00000E+00  9.000E+00
      21    -1     0     0   501   502  0.000000000E+00  0.000000000E+00 -3.493312741E+02  3.493312741E+02  0.000000000E+00  0.00000E+00  9.000E+00
      25     1     1     2     0     0 -1.277178751E+01  1.235629949E+02 -2.428733922E+02  3.000723528E+02  1.250000000E+02  0.00000E+00  9.000E+00
      25     1     1     2     0     0 -3.078147318E+00 -1.254260621E+02  2.416377240E+01  1.787457970E+02  1.250000000E+02  0.00000E+00  9.000E+00
      21     1     1     2   511   502  1.584993483E+01  1.863067153E+00  1.116533589E+02  1.127881377E+02  1.348699152E-06  0.00000E+00  9.000E+00
#rwgt            1           1   3.6661577688841658E-002           9      350887           0
</event>
<event>
      5   9999  3.79277E-02  4.62616E+01 -1.00000E+00  1.41029E-01
      21    -1     0     0   502   501  0.000000000E+00  0.000000000E+00  1.069386896E+02  1.069386896E+02  0.000000000E+00  0.00000E+00  9.000E+00
       2    -1     0     0   501     0  0.000000000E+00  0.000000000E+00 -6.901922426E+02  6.901922426E+02  0.000000000E+00  0.00000E+00  9.000E+00
      25     1     1     2     0     0  2.016539561E+02  3.342871669E+01 -1.268953135E+02  2.711258337E+02  1.250000000E+02  0.00000E+00  9.000E+00
      25     1     1     2     0     0 -1.621948539E+02 -5.757653409E+01 -3.434435456E+02  4.039810601E+02  1.250000000E+02  0.00000E+00  9.000E+00
       2     1     1     2   502     0 -3.945910220E+01  2.414781740E+01 -1.129146940E+02  1.220240384E+02  0.000000000E+00  0.00000E+00  9.000E+00
#rwgt            1           1   4.1221873899536451E-002           9      351165           0
</event>
<event>
      5   9999  3.79277E-02  1.09895E+02 -1.00000E+00  1.22013E-01
      21    -1     0     0   502   511  0.000000000E+00  0.000000000E+00  8.481327884E+01  8.481327884E+01  0.000000000E+00  0.00000E+00  9.000E+00
      21    -1     0     0   501   502  0.000000000E+00  0.000000000E+00 -2.602767351E+03  2.602767351E+03  0.000000000E+00  0.00000E+00  9.000E+00
      25     1     1     2     0     0  7.583384112E+01  7.453108881E+01 -6.612441404E+02  6.813035064E+02  1.250000000E+02  0.00000E+00  9.000E+00
      25     1     1     2     0     0 -1.834669315E+02 -9.671062271E+01 -1.878668263E+03  1.894210258E+03  1.250000000E+02  0.00000E+00  9.000E+00
      21     1     1     2   501   511  1.076330904E+02  2.217953390E+01  2.195833167E+01  1.120668649E+02  2.987376234E-06  0.00000E+00  9.000E+00
#rwgt            1           1   5.5139555911548677E-002           9      351330           0
</event>
<event>
      5   9999  3.79277E-02  8.01919E+01 -1.00000E+00  1.28299E-01
      21    -1     0     0   502   501  0.000000000E+00  0.000000000E+00  2.880828302E+02  2.880828302E+02  0.000000000E+00  0.00000E+00  9.000E+00
       2    -1     0     0   501     0  0.000000000E+00  0.000000000E+00 -6.423837316E+02  6.423837316E+02  0.000000000E+00  0.00000E+00  9.000E+00
      25     1     1     2     0     0 -6.901936963E+01  1.020084572E+02 -2.062069399E+01  1.766907234E+02  1.250000000E+02  0.00000E+00  9.000E+00
      25     1     1     2     0     0  1.334943745E+02 -5.432501184E+01  1.628370895E+02  2.508243861E+02  1.250000000E+02  0.00000E+00  9.000E+00
       2     1     1     2   502     0 -6.447500487E+01 -4.768344532E+01 -4.965172969E+02  5.029514523E+02  0.000000000E+00  0.00000E+00  9.000E+00
#rwgt            1           1   1.7440451290595974E-002           9      351418           0
</event>
<event>
      5   9999  3.79277E-02  1.58408E+02 -1.00000E+00  1.15463E-01
       2    -1     0     0   502     0  0.000000000E+00  0.000000000E+00  2.990966792E+03  2.990966792E+03  0.000000000E+00  0.00000E+00  9.000E+00
      21    -1     0     0   501   502  0.000000000E+00  0.000000000E+00 -5.041252455E+02  5.041252455E+02  0.000000000E+00  0.00000E+00  9.000E+00
      25     1     1     2     0     0 -6.058282308E+01  2.487135398E+02 -6.486477428E+01  2.921662922E+02  1.250000000E+02  0.00000E+00  9.000E+00
      25     1     1     2     0     0  2.147227318E+02 -2.121893570E+02 -2.408305115E+02  4.058996305E+02  1.250000000E+02  0.00000E+00  9.000E+00
       2     1     1     2   501     0 -1.541399087E+02 -3.652418283E+01  2.792536833E+03  2.797026115E+03  4.315837288E-05  0.00000E+00  9.000E+00
#rwgt            1           1   2.9450715316579175E-002           9      351509           0
</event>
<event>
      5   9999  3.79277E-02  8.98818E+01 -1.00000E+00  1.25948E-01
      21    -1     0     0   502   501  0.000000000E+00  0.000000000E+00  3.398850436E+02  3.398850436E+02  0.000000000E+00  0.00000E+00  9.000E+00
      21    -1     0     0   501   511  0.000000000E+00  0.000000000E+00 -5.084256057E+02  5.084256057E+02  0.000000000E+00  0.00000E+00  9.000E+00
      25     1     1     2     0     0  1.217866027E+02  1.130754437E+02  8.851942681E+01  2.260060209E+02  1.250000000E+02  0.00000E+00  9.000E+00
      25     1     1     2     0     0 -1.074340947E+02 -2.018039256E+02  8.071441741E+01  2.727759635E+02  1.250000000E+02  0.00000E+00  9.000E+00
      21     1     1     2   502   511 -1.435250795E+01  8.872848190E+01 -3.377744063E+02  3.495286649E+02  3.814697266E-06  0.00000E+00  9.000E+00
#rwgt            1           1   3.2329402839497680E-002           9      351588           0
</event>
<event>
      5   9999  3.79277E-02  3.82624E+01 -1.00000E+00  1.46047E-01
      21    -1     0     0   512   501  0.000000000E+00  0.000000000E+00  1.035001149E+03  1.035001149E+03  0.000000000E+00  0.00000E+00  9.000E+00
      21    -1     0     0   501   502  0.000000000E+00  0.000000000E+00 -9.993306366E+01  9.993306366E+01  0.000000000E+00  0.00000E+00  9.000E+00
      25     1     1     2     0     0  6.530382196E+01  1.928160969E+02  1.426218546E+02  2.782240640E+02  1.250000000E+02  0.00000E+00  9.000E+00
      25     1     1     2     0     0 -1.035216458E+02 -1.909705698E+02  4.758922552E+02  5.378521435E+02  1.250000000E+02  0.00000E+00  9.000E+00
      21     1     1     2   512   502  3.821782381E+01 -1.845527061E+00  3.165539758E+02  3.188580054E+02  3.814697266E-06  0.00000E+00  9.000E+00
#rwgt            1           1   3.6334808557414500E-002           9      351674           0
</event>
<event>
      5   9999  3.79277E-02  7.21155E+01 -1.00000E+00  1.30569E-01
      21    -1     0     0   502   511  0.000000000E+00  0.000000000E+00  1.321211298E+03  1.321211298E+03  0.000000000E+00  0.00000E+00  9.000E+00
      21    -1     0     0   501   502  0.000000000E+00  0.000000000E+00 -9.314943728E+01  9.314943728E+01  0.000000000E+00  0.00000E+00  9.000E+00
      25     1     1     2     0     0 -1.575213680E+02  5.751005309E+01  8.028991152E+02  8.296941465E+02  1.250000000E+02  0.00000E+00  9.000E+00
      25     1     1     2     0     0  2.249514388E+02 -8.308024296E+01  1.697986302E+02  3.193149721E+02  1.250000000E+02  0.00000E+00  9.000E+00
      21     1     1     2   501   511 -6.743007085E+01  2.557018988E+01  2.553641158E+02  2.653516171E+02  5.394796609E-06  0.00000E+00  9.000E+00
#rwgt            1           1   2.4558241336792772E-002           9      351853           0
</event>
<event>
      5   9999  3.79277E-02  3.73835E+01 -1.00000E+00  1.46686E-01
      21    -1     0     0   502   501  0.000000000E+00  0.000000000E+00  1.475810867E+02  1.475810867E+02  0.000000000E+00  0.00000E+00  9.000E+00
       3    -1     0     0   501     0  0.000000000E+00  0.000000000E+00 -8.755875925E+02  8.755875925E+02  0.000000000E+00  0.00000E+00  9.000E+00
      25     1     1     2     0     0  1.417615016E+02  6.788432077E+01 -7.228521956E+02  7.502298988E+02  1.250000000E+02  0.00000E+00  9.000E+00
      25     1     1     2     0     0 -1.096230206E+02 -4.878862494E+01  7.166530857E+01  1.875058746E+02  1.250000000E+02  0.00000E+00  9.000E+00
       3     1     1     2   502     0 -3.213848101E+01 -1.909569583E+01 -7.681961878E+01  8.543290578E+01  0.000000000E+00  0.00000E+00  9.000E+00
#rwgt            1           1   5.3614778966541085E-002           9      351996           0
</event>
<event>
      5   9999  3.79277E-02  3.77306E+01 -1.00000E+00  1.46431E-01
      21    -1     0     0   502   501  0.000000000E+00  0.000000000E+00  6.863486103E+02  6.863486103E+02  0.000000000E+00  0.00000E+00  9.000E+00
      21    -1     0     0   511   502  0.000000000E+00  0.000000000E+00 -5.483426187E+02  5.483426187E+02  0.000000000E+00  0.00000E+00  9.000E+00
      25     1     1     2     0     0 -1.528625118E+02  3.617373370E+02 -1.358529721E+02  4.339376436E+02  1.250000000E+02  0.00000E+00  9.000E+00
      25     1     1     2     0     0  1.152531079E+02 -3.647595627E+02  4.597883477E+02  6.110344853E+02  1.250000000E+02  0.00000E+00  9.000E+00
      21     1     1     2   511   501  3.760940388E+01  3.022225748E+00 -1.859293840E+02  1.897191001E+02  3.814697266E-06  0.00000E+00  9.000E+00
#rwgt            1           1  0.11590979312259440                9      352164           0
</event>
<event>
      5   9999  3.79277E-02  5.92834E+01 -1.00000E+00  1.34983E-01
      21    -1     0     0   502   512  0.000000000E+00  0.000000000E+00  1.524360955E+02  1.524360955E+02  0.000000000E+00  0.00000E+00  9.000E+00
      21    -1     0     0   501   502  0.000000000E+00  0.000000000E+00 -4.758794944E+02  4.758794944E+02  0.000000000E+00  0.00000E+00  9.000E+00
      25     1     1     2     0     0 -5.633159155E+01  7.650081496E+01 -9.790167193E+00  1.573101086E+02  1.250000000E+02  0.00000E+00  9.000E+00
      25     1     1     2     0     0  7.939345824E+01 -1.311146791E+02 -3.496030389E+02  4.016735803E+02  1.250000000E+02  0.00000E+00  9.000E+00
      21     1     1     2   501   512 -2.306186669E+01  5.461386413E+01  3.594980721E+01  6.933190095E+01  0.000000000E+00  0.00000E+00  9.000E+00
#rwgt            1           1   3.7841613106372601E-002           9      352335           0
</event>
<event>
      5   9999  3.79277E-02  1.94188E+02 -1.00000E+00  1.12116E-01
      21    -1     0     0   502   501  0.000000000E+00  0.000000000E+00  9.550118905E+01  9.550118905E+01  0.000000000E+00  0.00000E+00  9.000E+00
      21    -1     0     0   501   511  0.000000000E+00  0.000000000E+00 -1.118422476E+03  1.118422476E+03  0.000000000E+00  0.00000E+00  9.000E+00
      25     1     1     2     0     0  1.938468165E+02 -4.706808061E+01 -5.332924359E+02  5.829389459E+02  1.250000000E+02  0.00000E+00  9.000E+00
      25     1     1     2     0     0 -5.042429789E-01  6.516797874E+01 -4.862304994E+01  1.491184787E+02  1.250000000E+02  0.00000E+00  9.000E+00
      21     1     1     2   502   511 -1.933425735E+02 -1.809989813E+01 -4.410058013E+02  4.818662406E+02  9.344061824E-06  0.00000E+00  9.000E+00
#rwgt            2          11   1.3973440081552176E-003           9      352476           0
</event>
<event>
      5   9999  3.79277E-02  1.04278E+02 -1.00000E+00  1.23015E-01
      21    -1     0     0   502   501  0.000000000E+00  0.000000000E+00  9.784329303E+02  9.784329303E+02  0.000000000E+00  0.00000E+00  9.000E+00
      21    -1     0     0   512   502  0.000000000E+00  0.000000000E+00 -1.484785807E+02  1.484785807E+02  0.000000000E+00  0.00000E+00  9.000E+00
      25     1     1     2     0     0 -2.321076574E+02  1.719463350E+01  5.389987474E+02  6.002618343E+02  1.250000000E+02  0.00000E+00  9.000E+00
      25     1     1     2     0     0  2.893207831E+02  6.998652225E+01  2.686728180E+02  4.200175139E+02  1.250000000E+02  0.00000E+00  9.000E+00
      21     1     1     2   512   501 -5.721312572E+01 -8.718115576E+01  2.228278412E+01  1.066321628E+02  2.286830675E-06  0.00000E+00  9.000E+00
#rwgt            1           1  0.11814953317254993                9      352526           0
</event>
<event>
      5   9999  3.79277E-02  1.56273E+02 -1.00000E+00  1.15693E-01
      21    -1     0     0   511   501  0.000000000E+00  0.000000000E+00  1.148866477E+02  1.148866477E+02  0.000000000E+00  0.00000E+00  9.000E+00
      21    -1     0     0   501   502  0.000000000E+00  0.000000000E+00 -1.038662249E+03  1.038662249E+03  0.000000000E+00  0.00000E+00  9.000E+00
      25     1     1     2     0     0 -6.533808824E+01 -2.962564230E+02 -5.532060745E+02  6.431942901E+02  1.250000000E+02  0.00000E+00  9.000E+00
      25     1     1     2     0     0  1.473881380E+01  1.484020121E+02 -2.012331957E+02  2.799288997E+02  1.250000000E+02  0.00000E+00  9.000E+00
      21     1     1     2   511   502  5.059927444E+01  1.478544109E+02 -1.693363315E+02  2.304257072E+02  2.697398305E-06  0.00000E+00  9.000E+00
#rwgt            2          11   2.3152507404402534E-003           9      352732           0
</event>
<event>
      5   9999  3.79277E-02  1.18232E+01 -1.00000E+00  1.87708E-01
      21    -1     0     0   502   501  0.000000000E+00  0.000000000E+00  3.206733137E+02  3.206733137E+02  0.000000000E+00  0.00000E+00  9.000E+00
      21    -1     0     0   501   512  0.000000000E+00  0.000000000E+00 -3.254917324E+02  3.254917324E+02  0.000000000E+00  0.00000E+00  9.000E+00
      25     1     1     2     0     0 -2.171240938E+02  1.776946543E+02 -3.536731353E+00  3.071738445E+02  1.250000000E+02  0.00000E+00  9.000E+00
      25     1     1     2     0     0  2.146409371E+02 -1.892541439E+02  2.182820999E+01  3.130324802E+02  1.250000000E+02  0.00000E+00  9.000E+00
      21     1     1     2   502   512  2.483156616E+00  1.155948966E+01 -2.310989725E+01  2.595872144E+01  4.768371582E-07  0.00000E+00  9.000E+00
#rwgt            1           1   3.7635716270472810E-002           9      352797           0
</event>
<event>
      5   9999  3.79277E-02  3.73951E+01 -1.00000E+00  1.46678E-01
      21    -1     0     0   511   501  0.000000000E+00  0.000000000E+00  7.280481601E+02  7.280481601E+02  0.000000000E+00  0.00000E+00  9.000E+00
      21    -1     0     0   501   502  0.000000000E+00  0.000000000E+00 -7.625606640E+01  7.625606640E+01  0.000000000E+00  0.00000E+00  9.000E+00
      25     1     1     2     0     0  6.261216904E+01 -2.503575559E+01  3.570355101E+02  3.842478735E+02  1.250000000E+02  0.00000E+00  9.000E+00
      25     1     1     2     0     0 -5.161732159E+01 -1.070651093E+01  1.350743531E+01  1.363320508E+02  1.250000000E+02  0.00000E+00  9.000E+00
      21     1     1     2   511   502 -1.099484744E+01  3.574226651E+01  2.812491482E+02  2.837243022E+02  3.814697266E-06  0.00000E+00  9.000E+00
#rwgt            1           1   2.8265011353886788E-002           9      353190           0
</event>
<event>
      5   9999  3.79277E-02  1.06657E+02 -1.00000E+00  1.22582E-01
       2    -1     0     0   502     0  0.000000000E+00  0.000000000E+00  2.981160657E+03  2.981160657E+03  0.000000000E+00  0.00000E+00  9.000E+00
      21    -1     0     0   501   502  0.000000000E+00  0.000000000E+00 -7.171141405E+01  7.171141405E+01  0.000000000E+00  0.00000E+00  9.000E+00
      25     1     1     2     0     0  2.579124478E+02 -1.065440567E+02  5.848653908E+02  6.599719631E+02  1.250000000E+02  0.00000E+00  9.000E+00
      25     1     1     2     0     0 -2.405737319E+02  1.306149880E+00  5.315551855E+02  5.967020544E+02  1.250000000E+02  0.00000E+00  9.000E+00
       2     1     1     2   501     0 -1.733871587E+01  1.052379068E+02  1.793028667E+03  1.796198054E+03  0.000000000E+00  0.00000E+00  9.000E+00
#rwgt            1           1   3.3465291125356102E-002           9      353323           0
</event>
<event>
      5   9999  3.79277E-02  3.17520E+01 -1.00000E+00  1.51347E-01
      21    -1     0     0   511   501  0.000000000E+00  0.000000000E+00  7.178066616E+01  7.178066616E+01  0.000000000E+00  0.00000E+00  9.000E+00
      21    -1     0     0   501   502  0.000000000E+00  0.000000000E+00 -1.320089302E+03  1.320089302E+03  0.000000000E+00  0.00000E+00  9.000E+00
      25     1     1     2     0     0  1.296767848E+02  1.627085363E+02 -8.467679890E+02  8.808695497E+02  1.250000000E+02  0.00000E+00  9.000E+00
      25     1     1     2     0     0 -1.061479591E+02 -1.840295487E+02 -4.097736361E+02  4.781983865E+02  1.250000000E+02  0.00000E+00  9.000E+00
      21     1     1     2   511   502 -2.352882569E+01  2.132101243E+01  8.232989054E+00  3.280203223E+01  1.435469935E-06  0.00000E+00  9.000E+00
#rwgt            1           1   4.7601050357072260E-002           9      353456           0
</event>
<event>
      5   9999  3.79277E-02  1.00785E+02 -1.00000E+00  1.23675E-01
      21    -1     0     0   502   501  0.000000000E+00  0.000000000E+00  1.703112795E+03  1.703112795E+03  0.000000000E+00  0.00000E+00  9.000E+00
      21    -1     0     0   512   502  0.000000000E+00  0.000000000E+00 -8.924550278E+01  8.924550278E+01  0.000000000E+00  0.00000E+00  9.000E+00
      25     1     1     2     0     0  6.754752130E+01  1.951971048E+02  7.020062505E+02  7.423626830E+02  1.250000000E+02  0.00000E+00  9.000E+00
      25     1     1     2     0     0 -1.278854563E+02 -1.144697315E+02  9.243655815E+02  9.484380516E+02  1.250000000E+02  0.00000E+00  9.000E+00
      21     1     1     2   512   501  6.033793498E+01 -8.072737330E+01 -1.250453953E+01  1.015575635E+02  2.286830675E-06  0.00000E+00  9.000E+00
#rwgt            1           1   3.8623764105646073E-002           9      353709           0
</event>
<event>
      5   9999  3.79277E-02  7.62211E+01 -1.00000E+00  1.29375E-01
      21    -1     0     0   511   501  0.000000000E+00  0.000000000E+00  3.033178693E+01  3.033178693E+01  0.000000000E+00  0.00000E+00  9.000E+00
      21    -1     0     0   501   502  0.000000000E+00  0.000000000E+00 -3.071126783E+03  3.071126783E+03  0.000000000E+00  0.00000E+00  9.000E+00
      25     1     1     2     0     0 -4.583832699E+01 -1.541583489E+02 -1.835806161E+03  1.847072064E+03  1.250000000E+02  0.00000E+00  9.000E+00
      25     1     1     2     0     0 -3.035074960E+01  1.519481380E+02 -1.130204343E+03  1.147604575E+03  1.250000000E+02  0.00000E+00  9.000E+00
      21     1     1     2   511   502  7.618907659E+01  2.210210931E+00 -7.478449203E+01  1.067819305E+02  2.132480600E-06  0.00000E+00  9.000E+00
#rwgt            1           1   3.5402959526428579E-002           9      353763           0
</event>
<event>
      5   9999  3.79277E-02  2.24485E+01 -1.00000E+00  1.62334E-01
      21    -1     0     0   502   501  0.000000000E+00  0.000000000E+00  4.737652911E+02  4.737652911E+02  0.000000000E+00  0.00000E+00  9.000E+00
       1    -1     0     0   501     0  0.000000000E+00  0.000000000E+00 -2.970923614E+02  2.970923614E+02  0.000000000E+00  0.00000E+00  9.000E+00
      25     1     1     2     0     0  5.285969311E-01 -5.297153978E+01 -1.138001879E+02  1.771489379E+02  1.250000000E+02  0.00000E+00  9.000E+00
      25     1     1     2     0     0  2.073676440E+01  6.016305653E+01  4.300455415E+02  4.523425411E+02  1.250000000E+02  0.00000E+00  9.000E+00
       1     1     1     2   502     0 -2.126536133E+01 -7.191516754E+00 -1.395724238E+02  1.413661735E+02  3.303624740E-06  0.00000E+00  9.000E+00
#rwgt            1           1   4.7369013074080556E-002           9      353899           0
</event>
<event>
      5   9999  3.79277E-02  1.90446E+01 -1.00000E+00  1.68142E-01
      21    -1     0     0   511   501  0.000000000E+00  0.000000000E+00  1.770457995E+02  1.770457995E+02  0.000000000E+00  0.00000E+00  9.000E+00
      21    -1     0     0   501   502  0.000000000E+00  0.000000000E+00 -2.660071919E+02  2.660071919E+02  0.000000000E+00  0.00000E+00  9.000E+00
      25     1     1     2     0     0 -6.082980001E+01 -1.210244899E+02  3.498717969E+01  1.876067548E+02  1.250000000E+02  0.00000E+00  9.000E+00
      25     1     1     2     0     0  5.001822206E+01  1.367026971E+02 -1.338852815E+02  2.339652079E+02  1.250000000E+02  0.00000E+00  9.000E+00
      21     1     1     2   511   502  1.081157795E+01 -1.567820718E+01  9.936709337E+00  2.148102863E+01  3.769728732E-07  0.00000E+00  9.000E+00
#rwgt            1           1   3.3649803996085359E-002           9      354058           0
</event>
<event>
      5   9999  3.79277E-02  1.78040E+02 -1.00000E+00  1.13518E-01
      21    -1     0     0   512   501  0.000000000E+00  0.000000000E+00  1.749475576E+03  1.749475576E+03  0.000000000E+00  0.00000E+00  9.000E+00
      21    -1     0     0   501   502  0.000000000E+00  0.000000000E+00 -1.891036195E+02  1.891036195E+02  0.000000000E+00  0.00000E+00  9.000E+00
      25     1     1     2     0     0  1.112265276E+02 -2.467142459E+02  2.384815787E+02  3.817561040E+02  1.250000000E+02  0.00000E+00  9.000E+00
      25     1     1     2     0     0  9.586774698E+00  1.159384824E+02 -4.643777790E+01  1.769607447E+02  1.250000000E+02  0.00000E+00  9.000E+00
      21     1     1     2   512   502 -1.208133023E+02  1.307757636E+02  1.368328156E+03  1.379862347E+03  2.157918644E-05  0.00000E+00  9.000E+00
#rwgt            1           1   3.1281331956438924E-002           9      354334           0
</event>
<event>
      5   9999  3.79277E-02  5.73143E+01 -1.00000E+00  1.35775E-01
      21    -1     0     0   502   511  0.000000000E+00  0.000000000E+00  4.489403297E+02  4.489403297E+02  0.000000000E+00  0.00000E+00  9.000E+00
      21    -1     0     0   501   502  0.000000000E+00  0.000000000E+00 -2.362038531E+02  2.362038531E+02  0.000000000E+00  0.00000E+00  9.000E+00
      25     1     1     2     0     0  2.204184356E+02  7.072501185E+00  2.710314024E+02  3.711028538E+02  1.250000000E+02  0.00000E+00  9.000E+00
      25     1     1     2     0     0 -1.671516524E+02  1.408348548E+01 -1.104373100E+02  2.365574325E+02  1.250000000E+02  0.00000E+00  9.000E+00
      21     1     1     2   501   511 -5.326678323E+01 -2.115598666E+01  5.214238419E+01  7.748389637E+01  9.536743164E-07  0.00000E+00  9.000E+00
#rwgt            1           1   4.5363818471191149E-002           9      354393           0
</event>
<event>
      5   9999  3.79277E-02  1.29482E+01 -1.00000E+00  1.83621E-01
      21    -1     0     0   502   512  0.000000000E+00  0.000000000E+00  2.821161792E+02  2.821161792E+02  0.000000000E+00  0.00000E+00  9.000E+00
      21    -1     0     0   501   502  0.000000000E+00  0.000000000E+00 -1.618476533E+02  1.618476533E+02  0.000000000E+00  0.00000E+00  9.000E+00
      25     1     1     2     0     0 -1.307203732E+02  6.550204234E+01  7.843949892E+01  2.077404354E+02  1.250000000E+02  0.00000E+00  9.000E+00
      25     1     1     2     0     0  1.420723798E+02 -7.172998019E+01  1.086860162E+01  2.026644460E+02  1.250000000E+02  0.00000E+00  9.000E+00
      21     1     1     2   501   512 -1.135200667E+01  6.227937850E+00  3.096042536E+01  3.355895118E+01  5.840038640E-07  0.00000E+00  9.000E+00
#rwgt            1           1   3.3638374332228577E-002           9      354473           0
</event>
<event>
      5   9999  3.79277E-02  7.65639E+01 -1.00000E+00  1.29279E-01
      21    -1     0     0   502   501  0.000000000E+00  0.000000000E+00  5.688395744E+02  5.688395744E+02  0.000000000E+00  0.00000E+00  9.000E+00
      21    -1     0     0   501   511  0.000000000E+00  0.000000000E+00 -3.915462201E+02  3.915462201E+02  0.000000000E+00  0.00000E+00  9.000E+00
      25     1     1     2     0     0 -3.904714671E+01  1.190478983E+02  3.195810434E+02  3.653137351E+02  1.250000000E+02  0.00000E+00  9.000E+00
      25     1     1     2     0     0  8.579113010E+01 -5.840937870E+01  1.923517793E+02  2.517855844E+02  1.250000000E+02  0.00000E+00  9.000E+00
      21     1     1     2   502   511 -4.674398339E+01 -6.063851962E+01 -3.346394684E+02  3.432864749E+02  3.814697266E-06  0.00000E+00  9.000E+00
#rwgt            1           1   3.5190546186302622E-002           9      354805           0
</event>
<event>
      5   9999  3.79277E-02  1.77898E+01 -1.00000E+00  1.70678E-01
      21    -1     0     0   502   501  0.000000000E+00  0.000000000E+00  1.115774283E+03  1.115774283E+03  0.000000000E+00  0.00000E+00  9.000E+00
      21    -1     0     0   512   502  0.000000000E+00  0.000000000E+00 -4.233461180E+01  4.233461180E+01  0.000000000E+00  0.00000E+00  9.000E+00
      25     1     1     2     0     0 -6.641233816E+01  5.674417549E+01  1.763564987E+02  2.331461231E+02  1.250000000E+02  0.00000E+00  9.000E+00
      25     1     1     2     0     0  7.976306225E+01 -6.850152314E+01  8.914672439E+02  9.063075922E+02  1.250000000E+02  0.00000E+00  9.000E+00
      21     1     1     2   512   501 -1.335072409E+01  1.175734765E+01  5.615928339E+00  1.865517914E+01  6.556510925E-07  0.00000E+00  9.000E+00
#rwgt            1           1   5.1414263991440223E-002           9      354876           0
</event>
<event>
      5   9999  3.79277E-02  3.39233E+01 -1.00000E+00  1.49423E-01
      21    -1     0     0   502   511  0.000000000E+00  0.000000000E+00  7.224983088E+01  7.224983088E+01  0.000000000E+00  0.00000E+00  9.000E+00
      21    -1     0     0   501   502  0.000000000E+00  0.000000000E+00 -5.655663455E+02  5.655663455E+02  0.000000000E+00  0.00000E+00  9.000E+00
      25     1     1     2     0     0 -1.527444120E+01 -1.031894588E+02 -4.079862859E+02  4.392711946E+02  1.250000000E+02  0.00000E+00  9.000E+00
      25     1     1     2     0     0  1.520846873E+01  6.926624424E+01 -7.912931838E+01  1.640596207E+02  1.250000000E+02  0.00000E+00  9.000E+00
      21     1     1     2   501   511  6.597247849E-02  3.392321454E+01 -6.200910314E+00  3.448536104E+01  8.960542904E-07  0.00000E+00  9.000E+00
#rwgt            1           1   3.6229703218818063E-002           9      355149           0
</event>
<event>
      5   9999  3.79277E-02  1.40285E+02 -1.00000E+00  1.17558E-01
       1    -1     0     0   502     0  0.000000000E+00  0.000000000E+00  7.913512703E+02  7.913512703E+02  0.000000000E+00  0.00000E+00  9.000E+00
      21    -1     0     0   501   502  0.000000000E+00  0.000000000E+00 -3.149259276E+02  3.149259276E+02  0.000000000E+00  0.00000E+00  9.000E+00
      25     1     1     2     0     0 -5.818975197E+00  1.872571945E+02  6.862035835E+01  2.354418632E+02  1.250000000E+02  0.00000E+00  9.000E+00
      25     1     1     2     0     0 -9.620348991E+01 -9.096915409E+01 -1.862328663E+02  2.604576337E+02  1.250000000E+02  0.00000E+00  9.000E+00
       1     1     1     2   501     0  1.020224651E+02 -9.628804037E+01  5.940378505E+02  6.103777011E+02  0.000000000E+00  0.00000E+00  9.000E+00
#rwgt            1           1   3.6100869432447190E-002           9      355265           0
</event>
<event>
      5   9999  3.79277E-02  1.69394E+01 -1.00000E+00  1.72549E-01
      21    -1     0     0   502   501  0.000000000E+00  0.000000000E+00  1.963297517E+02  1.963297517E+02  0.000000000E+00  0.00000E+00  9.000E+00
      21    -1     0     0   501   511  0.000000000E+00  0.000000000E+00 -8.569737483E+02  8.569737483E+02  0.000000000E+00  0.00000E+00  9.000E+00
      25     1     1     2     0     0  3.427651210E-01  1.974410633E+02  2.835919152E+01  2.353982470E+02  1.250000000E+02  0.00000E+00  9.000E+00
      25     1     1     2     0     0  1.316890001E+01 -1.872245630E+02 -1.333222385E+02  2.619661738E+02  1.250000000E+02  0.00000E+00  9.000E+00
      21     1     1     2   502   511 -1.351166513E+01 -1.021650026E+01 -5.556809496E+02  5.559390792E+02  7.629394531E-06  0.00000E+00  9.000E+00
#rwgt            1           1   3.2989443890590352E-002           9      355327           0
</event>
<event>
      5   9999  3.79277E-02  1.69967E+02 -1.00000E+00  1.14282E-01
      21    -1     0     0   512   501  0.000000000E+00  0.000000000E+00  1.519400000E+03  1.519400000E+03  0.000000000E+00  0.00000E+00  9.000E+00
      21    -1     0     0   501   502  0.000000000E+00  0.000000000E+00 -1.609249156E+02  1.609249156E+02  0.000000000E+00  0.00000E+00  9.000E+00
      25     1     1     2     0     0 -1.851647547E+02 -1.985179020E+02  2.569995007E+02  3.941688562E+02  1.250000000E+02  0.00000E+00  9.000E+00
      25     1     1     2     0     0  3.544751481E+02  2.134445585E+02  4.990743096E+02  6.602358492E+02  1.250000000E+02  0.00000E+00  9.000E+00
      21     1     1     2   512   502 -1.693103934E+02 -1.492665656E+01  6.024012744E+02  6.259202104E+02  1.078959322E-05  0.00000E+00  9.000E+00
#rwgt            2          11   1.2466211841660245E-003           9      355648           0
</event>
<event>
      5   9999 -3.79277E-02  5.28575E+01 -1.00000E+00  1.37712E-01
      21    -1     0     0   502   511  0.000000000E+00  0.000000000E+00  6.916435364E+02  6.916435364E+02  0.000000000E+00  0.00000E+00  9.000E+00
      21    -1     0     0   501   502  0.000000000E+00  0.000000000E+00 -1.685545844E+02  1.685545844E+02  0.000000000E+00  0.00000E+00  9.000E+00
      25     1     1     2     0     0 -2.165258727E+02 -3.289559413E+01  1.482476878E+02  2.925200003E+02  1.250000000E+02  0.00000E+00  9.000E+00
      25     1     1     2     0     0  1.864442174E+02  7.635826841E+01  5.486625755E+01  2.433666731E+02  1.250000000E+02  0.00000E+00  9.000E+00
      21     1     1     2   501   511  3.008165529E+01 -4.346267427E+01  3.199750067E+02  3.243114474E+02  0.000000000E+00  0.00000E+00  9.000E+00
#rwgt            1           1 -0.26787890589737190                9      355728           0
</event>
<event>
      5   9999  3.79277E-02  1.30807E+02 -1.00000E+00  1.18800E-01
      21    -1     0     0   502   501  0.000000000E+00  0.000000000E+00  1.671327611E+02  1.671327611E+02  0.000000000E+00  0.00000E+00  9.000E+00
       1    -1     0     0   501     0  0.000000000E+00  0.000000000E+00 -5.591314546E+02  5.591314546E+02  0.000000000E+00  0.00000E+00  9.000E+00
      25     1     1     2     0     0  6.637673130E+01 -7.902333933E+00  8.594387644E+01  1.657699226E+02  1.250000000E+02  0.00000E+00  9.000E+00
      25     1     1     2     0     0  2.754756242E+01  9.894498325E+01 -2.744557098E+02  3.185905123E+02  1.250000000E+02  0.00000E+00  9.000E+00
       1     1     1     2   502     0 -9.392429371E+01 -9.104264932E+01 -2.034868601E+02  2.419037808E+02  2.697398305E-06  0.00000E+00  9.000E+00
#rwgt            2          12   9.2927841357565540E-005           9      355856           0
</event>
<event>
      5   9999  3.79277E-02  9.64462E+01 -1.00000E+00  1.24539E-01
      21    -1     0     0   502   501  0.000000000E+00  0.000000000E+00  4.406322022E+02  4.406322022E+02  0.000000000E+00  0.00000E+00  9.000E+00
      21    -1     0     0   511   502  0.000000000E+00  0.000000000E+00 -1.364043839E+02  1.364043839E+02  0.000000000E+00  0.00000E+00  9.000E+00
      25     1     1     2     0     0 -1.466189126E+02  4.292112559E+01  1.547615055E+02  2.508295280E+02  1.250000000E+02  0.00000E+00  9.000E+00
      25     1     1     2     0     0  1.328925135E+02  5.254328307E+01  1.229138185E+02  2.261725525E+02  1.250000000E+02  0.00000E+00  9.000E+00
      21     1     1     2   511   501  1.372639905E+01 -9.546440866E+01  2.655249429E+01  1.000345056E+02  6.743495762E-07  0.00000E+00  9.000E+00
#rwgt            1           1   8.8920397793361583E-002           9      355875           0
</event>
<event>
      5   9999  3.79277E-02  4.98505E+01 -1.00000E+00  1.39150E-01
      21    -1     0     0   502   501  0.000000000E+00  0.000000000E+00  1.716333857E+02  1.716333857E+02  0.000000000E+00  0.00000E+00  9.000E+00
       2    -1     0     0   501     0  0.000000000E+00  0.000000000E+00 -1.991677029E+03  1.991677029E+03  0.000000000E+00  0.00000E+00  9.000E+00
      25     1     1     2     0     0 -7.569679223E+01  8.014416821E+00 -1.491936197E+02  2.089927544E+02  1.250000000E+02  0.00000E+00  9.000E+00
      25     1     1     2     0     0  9.714986111E+01 -5.301258441E+01  9.209386204E+01  1.906691088E+02  1.250000000E+02  0.00000E+00  9.000E+00
       2     1     1     2   502     0 -2.145306888E+01  4.499816759E+01 -1.762943885E+03  1.763648551E+03  2.157918644E-05  0.00000E+00  9.000E+00
#rwgt            1           1   1.8513843123564272E-002           9      356017           0
</event>
<event>
      5   9999  3.79277E-02  7.09967E+01 -1.00000E+00  1.30910E-01
      -1    -1     0     0     0   501  0.000000000E+00  0.000000000E+00  9.216162842E+02  9.216162842E+02  0.000000000E+00  0.00000E+00  9.000E+00
      21    -1     0     0   501   502  0.000000000E+00  0.000000000E+00 -3.805228745E+02  3.805228745E+02  0.000000000E+00  0.00000E+00  9.000E+00
      25     1     1     2     0     0  6.647270999E+01  1.668911308E+02  6.192076926E+01  2.274432948E+02  1.250000000E+02  0.00000E+00  9.000E+00
      25     1     1     2     0     0 -1.098439720E+02 -1.106819609E+02 -2.623394889E+02  3.297926653E+02  1.250000000E+02  0.00000E+00  9.000E+00
      -1     1     1     2     0   502  4.337126200E+01 -5.620916988E+01  7.415121293E+02  7.449031985E+02  1.525878906E-05  0.00000E+00  9.000E+00
#rwgt            1           1   3.5327430250015439E-002           9      356149           0
</event>
<event>
      5   9999 -3.79277E-02  5.62149E+01 -1.00000E+00  1.36233E-01
      21    -1     0     0   502   501  0.000000000E+00  0.000000000E+00  3.892114170E+02  3.892114170E+02  0.000000000E+00  0.00000E+00  9.000E+00
       1    -1     0     0   501     0  0.000000000E+00  0.000000000E+00 -4.116085812E+03  4.116085812E+03  0.000000000E+00  0.00000E+00  9.000E+00
      25     1     1     2     0     0 -1.782847014E+02 -1.868560484E+02  9.581933809E+01  3.025011787E+02  1.250000000E+02  0.00000E+00  9.000E+00
      25     1     1     2     0     0  1.430112836E+02  1.430850616E+02  1.153833498E+02  2.643177624E+02  1.250000000E+02  0.00000E+00  9.000E+00
       1     1     1     2   502     0  3.527341773E+01  4.377098685E+01 -3.938077083E+03  3.938478287E+03  6.103515625E-05  0.00000E+00  9.000E+00
#rwgt            1           1  -4.2301392544640083E-002           9      356308           0
</event>
<event>
      5   9999  3.79277E-02  3.83683E+01 -1.00000E+00  1.45971E-01
      21    -1     0     0   502   511  0.000000000E+00  0.000000000E+00  7.751900408E+02  7.751900408E+02  0.000000000E+00  0.00000E+00  9.000E+00
      21    -1     0     0   501   502  0.000000000E+00  0.000000000E+00 -8.515166679E+01  8.515166679E+01  0.000000000E+00  0.00000E+00  9.000E+00
      25     1     1     2     0     0  1.180171136E+02 -2.412564229E+01  3.510632562E+01  1.771088361E+02  1.250000000E+02  0.00000E+00  9.000E+00
      25     1     1     2     0     0 -8.369841230E+01  4.128241484E+01  5.386983229E+02  5.608302284E+02  1.250000000E+02  0.00000E+00  9.000E+00
      21     1     1     2   501   511 -3.431870127E+01 -1.715677255E+01  1.162337255E+02  1.224026431E+02  0.000000000E+00  0.00000E+00  9.000E+00
#rwgt            1           1   3.3116599307739018E-002           9      356505           0
</event>
<event>
      5   9999  3.79277E-02  1.77188E+01 -1.00000E+00  1.70829E-01
       2    -1     0     0   502     0  0.000000000E+00  0.000000000E+00  7.316132725E+02  7.316132725E+02  0.000000000E+00  0.00000E+00  9.000E+00
      21    -1     0     0   501   502  0.000000000E+00  0.000000000E+00 -4.677802655E+02  4.677802655E+02  0.000000000E+00  0.00000E+00  9.000E+00
      25     1     1     2     0     0 -1.183893579E+02 -6.843917272E+01 -1.226234938E+02  2.221744397E+02  1.250000000E+02  0.00000E+00  9.000E+00
      25     1     1     2     0     0  1.144088248E+02  8.570511832E+01 -2.647286719E+02  3.257929039E+02  1.250000000E+02  0.00000E+00  9.000E+00
       2     1     1     2   501     0  3.980533170E+00 -1.726594560E+01  6.511851728E+02  6.514261944E+02  0.000000000E+00  0.00000E+00  9.000E+00
#rwgt            1           1   3.8812136524206509E-002           9      356662           0
</event>
<event>
      5   9999  3.79277E-02  7.95591E+01 -1.00000E+00  1.28466E-01
      21    -1     0     0   502   501  0.000000000E+00  0.000000000E+00  2.193497241E+01  2.193497241E+01  0.000000000E+00  0.00000E+00  9.000E+00
      -3    -1     0     0     0   502  0.000000000E+00  0.000000000E+00 -1.953139248E+03  1.953139248E+03  0.000000000E+00  0.00000E+00  9.000E+00
      25     1     1     2     0     0  6.389776894E+01  1.135500233E+02 -8.398728788E+02  8.590622708E+02  1.250000000E+02  0.00000E+00  9.000E+00
      25     1     1     2     0     0 -9.179196811E+00 -5.579595705E+01 -4.702175674E+02  4.898234449E+02  1.250000000E+02  0.00000E+00  9.000E+00
      -3     1     1     2     0   501 -5.471857213E+01 -5.775406630E+01 -6.211138299E+02  6.261885052E+02  1.078959322E-05  0.00000E+00  9.000E+00
#rwgt            1           1   5.1356119015747097E-002           9      356904           0
</event>
<event>
      5   9999  3.79277E-02  1.13109E+02 -1.00000E+00  1.21469E-01
      21    -1     0     0   502   511  0.000000000E+00  0.000000000E+00  1.393001994E+02  1.393001994E+02  0.000000000E+00  0.00000E+00  9.000E+00
      21    -1     0     0   501   502  0.000000000E+00  0.000000000E+00 -5.078420514E+02  5.078420514E+02  0.000000000E+00  0.00000E+00  9.000E+00
      25     1     1     2     0     0 -1.171294595E+02  9.170897136E+01 -1.608600450E+02  2.522514614E+02  1.250000000E+02  0.00000E+00  9.000E+00
      25     1     1     2     0     0  1.843615767E+02 -7.501716861E-01 -1.359847873E+02  2.609724432E+02  1.250000000E+02  0.00000E+00  9.000E+00
      21     1     1     2   501   511 -6.723211719E+01 -9.095879967E+01 -7.169701965E+01  1.339183462E+02  1.651812370E-06  0.00000E+00  9.000E+00
#rwgt            2          11   2.7998699054290351E-003           9      357173           0
</event>
<event>
      5   9999  3.79277E-02  1.35466E+02 -1.00000E+00  1.18175E-01
      21    -1     0     0   502   501  0.000000000E+00  0.000000000E+00  3.792405492E+02  3.792405492E+02  0.000000000E+00  0.00000E+00  9.000E+00
      21    -1     0     0   512   502  0.000000000E+00  0.000000000E+00 -3.854985453E+02  3.854985453E+02  0.000000000E+00  0.00000E+00  9.000E+00
      25     1     1     2     0     0 -2.293719480E+02  1.215634049E+02  1.671060914E+01  2.886059535E+02  1.250000000E+02  0.00000E+00  9.000E+00
      25     1     1     2     0     0  1.676148581E+02 -9.936935650E-01  1.493401982E+02  2.569498451E+02  1.250000000E+02  0.00000E+00  9.000E+00
      21     1     1     2   512   501  6.175708994E+01 -1.205697114E+02 -1.723088034E+02  2.191832959E+02  5.046370146E-06  0.00000E+00  9.000E+00
#rwgt            2          11   2.0058841174611201E-003           9      357403           0
</event>
<event>
      5   9999  3.79277E-02  1.77798E+02 -1.00000E+00  1.13541E-01
      21    -1     0     0   502   511  0.000000000E+00  0.000000000E+00  7.123486064E+02  7.123486064E+02  0.000000000E+00  0.00000E+00  9.000E+00
      21    -1     0     0   501   502  0.000000000E+00  0.000000000E+00 -5.799805295E+02  5.799805295E+02  0.000000000E+00  0.00000E+00  9.000E+00
      25     1     1     2     0     0 -1.542728806E+02  2.290304413E+02 -2.729886012E+02  4.079250435E+02  1.250000000E+02  0.00000E+00  9.000E+00
      25     1     1     2     0     0  1.875009827E+02 -4.036962510E+02  2.320433172E+01  4.629154594E+02  1.250000000E+02  0.00000E+00  9.000E+00
      21     1     1     2   501   511 -3.322810212E+01  1.746658097E+02  3.821523464E+02  4.214886330E+02  5.394796609E-06  0.00000E+00  9.000E+00
#rwgt            1           1  0.13862287589644362                9      357423           0
</event>
<event>
      5   9999  3.79277E-02  5.97580E+01 -1.00000E+00  1.34797E-01
      21    -1     0     0   502   501  0.000000000E+00  0.000000000E+00  5.437359528E+01  5.437359528E+01  0.000000000E+00  0.00000E+00  9.000E+00
       2    -1     0     0   501     0  0.000000000E+00  0.000000000E+00 -1.655979537E+03  1.655979537E+03  0.000000000E+00  0.00000E+00  9.000E+00
      25     1     1     2     0     0  1.096130053E+02  4.326852454E+01 -6.314034989E+02  6.543565959E+02  1.250000000E+02  0.00000E+00  9.000E+00
      25     1     1     2     0     0 -1.226407710E+02 -1.015891116E+02 -2.037860803E+02  2.872540214E+02  1.250000000E+02  0.00000E+00  9.000E+00
       2     1     1     2   502     0  1.302776576E+01  5.832058704E+01 -7.664163627E+02  7.687425152E+02  1.078959322E-05  0.00000E+00  9.000E+00
#rwgt            2          13   2.7564484920889989E-004           9      357664           0
</event>
<event>
      5   9999  3.79277E-02  5.41031E+01 -1.00000E+00  1.37149E-01
      21    -1     0     0   502   501  0.000000000E+00  0.000000000E+00  4.265947806E+02  4.265947806E+02  0.000000000E+00  0.00000E+00  9.000E+00
      21    -1     0     0   501   511  0.000000000E+00  0.000000000E+00 -2.324250210E+02  2.324250210E+02  0.000000000E+00  0.00000E+00  9.000E+00
      25     1     1     2     0     0 -1.959691875E+02 -2.062222843E+01 -8.906416864E+01  2.497731468E+02  1.250000000E+02  0.00000E+00  9.000E+00
      25     1     1     2     0     0  1.612471209E+02 -2.086896906E+01  2.894982258E+02  3.547821453E+02  1.250000000E+02  0.00000E+00  9.000E+00
      21     1     1     2   502   511  3.472206655E+01  4.149119749E+01 -6.264297587E+00  5.446450953E+01  7.817075878E-07  0.00000E+00  9.000E+00
#rwgt            1           1   3.3153799490714848E-002           9      357818           0
</event>
<event>
      5   9999  3.79277E-02  5.34142E+01 -1.00000E+00  1.37458E-01
      21    -1     0     0   512   501  0.000000000E+00  0.000000000E+00  7.959450247E+02  7.959450247E+02  0.000000000E+00  0.00000E+00  9.000E+00
      21    -1     0     0   501   502  0.000000000E+00  0.000000000E+00 -1.188825289E+02  1.188825289E+02  0.000000000E+00  0.00000E+00  9.000E+00
      25     1     1     2     0     0  1.582295331E+02 -2.330940160E+01  1.911651735E+02  2.788351429E+02  1.250000000E+02  0.00000E+00  9.000E+00
      25     1     1     2     0     0 -1.996109719E+02 -1.046410387E+01  1.168901500E+02  2.631394017E+02  1.250000000E+02  0.00000E+00  9.000E+00
      21     1     1     2   512   502  4.138143873E+01  3.377350547E+01  3.690071723E+02  3.728530090E+02  5.394796609E-06  0.00000E+00  9.000E+00
#rwgt            1           1   4.7981018609436918E-002           9      357958           0
</event>
<event>
      5   9999  3.79277E-02  1.52967E+01 -1.00000E+00  1.76586E-01
      21    -1     0     0   502   501  0.000000000E+00  0.000000000E+00  4.706802061E+01  4.706802061E+01  0.000000000E+00  0.00000E+00  9.000E+00
      21    -1     0     0   501   511  0.000000000E+00  0.000000000E+00 -1.463739129E+03  1.463739129E+03  0.000000000E+00  0.00000E+00  9.000E+00
      25     1     1     2     0     0 -2.273140997E+01 -6.860398332E+01 -7.974487484E+01  1.649468660E+02  1.250000000E+02  0.00000E+00  9.000E+00
      25     1     1     2     0     0  1.977464173E+01  5.359580588E+01 -1.121109017E+03  1.129501649E+03  1.250000000E+02  0.00000E+00  9.000E+00
      21     1     1     2   502   511  2.956768248E+00  1.500817744E+01 -2.158172169E+02  2.163586351E+02  2.697398305E-06  0.00000E+00  9.000E+00
#rwgt            1           1   4.5883807461882690E-002           9      358070           0
</event>
<event>
      5   9999  3.79277E-02  6.55682E+01 -1.00000E+00  1.32676E-01
      21    -1     0     0   502   512  0.000000000E+00  0.000000000E+00  2.323197884E+02  2.323197884E+02  0.000000000E+00  0.00000E+00  9.000E+00
      21    -1     0     0   501   502  0.000000000E+00  0.000000000E+00 -8.927659285E+02  8.927659285E+02  0.000000000E+00  0.00000E+00  9.000E+00
      25     1     1     2     0     0 -1.300213674E+02  2.724220168E+01 -2.058048915E+02  2.750060852E+02  1.250000000E+02  0.00000E+00  9.000E+00
      25     1     1     2     0     0  6.506887313E+01 -1.827770121E+01 -6.388948520E+02  6.545071921E+02  1.250000000E+02  0.00000E+00  9.000E+00
      21     1     1     2   501   512  6.495249431E+01 -8.964500470E+00  1.842536034E+02  1.955724396E+02  0.000000000E+00  0.00000E+00  9.000E+00
#rwgt            1           1   4.4228907004431599E-002           9      358279           0
</event>
<event>
      5   9999  3.79277E-02  2.00349E+01 -1.00000E+00  1.66307E-01
      21    -1     0     0   502   501  0.000000000E+00  0.000000000E+00  7.242153063E+01  7.242153063E+01  0.000000000E+00  0.00000E+00  9.000E+00
      21    -1     0     0   501   511  0.000000000E+00  0.000000000E+00 -7.436491594E+02  7.436491594E+02  0.000000000E+00  0.00000E+00  9.000E+00
      25     1     1     2     0     0 -8.808425508E+01  1.255493784E+02 -1.531157451E+02  2.501817615E+02  1.250000000E+02  0.00000E+00  9.000E+00
      25     1     1     2     0     0  7.764542230E+01 -1.426498940E+02 -4.423138835E+02  4.874878207E+02  1.250000000E+02  0.00000E+00  9.000E+00
      21     1     1     2   502   511  1.043883278E+01  1.710051555E+01 -7.579800022E+01  7.840110777E+01  0.000000000E+00  0.00000E+00  9.000E+00
#rwgt            1           1   4.2206156100360798E-002           9      358339           0
</event>
<event>
      5   9999  3.79277E-02  1.41989E+01 -1.00000E+00  1.79659E-01
      21    -1     0     0   512   501  0.000000000E+00  0.000000000E+00  1.653735417E+02  1.653735417E+02  0.000000000E+00  0.00000E+00  9.000E+00
      21    -1     0     0   501   502  0.000000000E+00  0.000000000E+00 -2.909445425E+02  2.909445425E+02  0.000000000E+00  0.00000E+00  9.000E+00
      25     1     1     2     0     0  4.115558963E+01 -1.134387314E+02  2.950242804E+01  1.762314432E+02  1.250000000E+02  0.00000E+00  9.000E+00
      25     1     1     2     0     0 -4.475805840E+01  1.271730539E+02 -1.761867352E+02  2.546429561E+02  1.250000000E+02  0.00000E+00  9.000E+00
      21     1     1     2   512   502  3.602468767E+00 -1.373432251E+01  2.111330634E+01  2.544368489E+01  3.371747881E-07  0.00000E+00  9.000E+00
#rwgt            1           1   4.6860782933553426E-002           9      358513           0
</event>
<event>
      5   9999  3.79277E-02  1.67773E+02 -1.00000E+00  1.14498E-01
      21    -1     0     0   502   501  0.000000000E+00  0.000000000E+00  1.665478950E+02  1.665478950E+02  0.000000000E+00  0.00000E+00  9.000E+00
      -1    -1     0     0     0   502  0.000000000E+00  0.000000000E+00 -1.170365681E+03  1.170365681E+03  0.000000000E+00  0.00000E+00  9.000E+00
      25     1     1     2     0     0  1.180741997E+02  1.835316415E+02 -2.735672328E+02  3.716038359E+02  1.250000000E+02  0.00000E+00  9.000E+00
      25     1     1     2     0     0 -2.287275319E+02 -5.742171371E+01 -5.891874277E+01  2.733312190E+02  1.250000000E+02  0.00000E+00  9.000E+00
      -1     1     1     2     0   501  1.106533322E+02 -1.261099277E+02 -6.713318101E+02  6.919785207E+02  0.000000000E+00  0.00000E+00  9.000E+00
#rwgt            1           1   3.8685651479888658E-002           9      358760           0
</event>
<event>
      5   9999  3.79277E-02  2.14799E+01 -1.00000E+00  1.63851E-01
      21    -1     0     0   502   511  0.000000000E+00  0.000000000E+00  2.512352938E+02  2.512352938E+02  0.000000000E+00  0.00000E+00  9.000E+00
      21    -1     0     0   501   502  0.000000000E+00  0.000000000E+00 -2.820882922E+02  2.820882922E+02  0.000000000E+00  0.00000E+00  9.000E+00
      25     1     1     2     0     0 -1.727148940E+02 -5.218383766E+01 -3.409213211E+00  2.195226873E+02  1.250000000E+02  0.00000E+00  9.000E+00
      25     1     1     2     0     0  1.720776728E+02  3.071338721E+01 -1.008034024E+02  2.373612511E+02  1.250000000E+02  0.00000E+00  9.000E+00
      21     1     1     2   501   511  6.372211959E-01  2.147045045E+01  7.335961717E+01  7.643964759E+01  1.348699152E-06  0.00000E+00  9.000E+00
#rwgt            1           1   3.4447575328197949E-002           9      358871           0
</event>
<event>
      5   9999  3.79277E-02  1.43574E+02 -1.00000E+00  1.17152E-01
       2    -1     0     0   502     0  0.000000000E+00  0.000000000E+00  6.683468164E+02  6.683468164E+02  0.000000000E+00  0.00000E+00  9.000E+00
      21    -1     0     0   501   502  0.000000000E+00  0.000000000E+00 -4.324698506E+02  4.324698506E+02  0.000000000E+00  0.00000E+00  9.000E+00
      25     1     1     2     0     0 -2.807821770E+02  1.131337736E+02 -1.492580796E+02  3.599178462E+02  1.250000000E+02  0.00000E+00  9.000E+00
      25     1     1     2     0     0  3.831187746E+02 -1.243211928E+01  9.061050894E+01  4.132430488E+02  1.250000000E+02  0.00000E+00  9.000E+00
       2     1     1     2   501     0 -1.023365976E+02 -1.007016544E+02  2.945245365E+02  3.276557721E+02  7.629394531E-06  0.00000E+00  9.000E+00
#rwgt            1           1   4.1630683670136642E-002           9      359195           0
</event>
<event>
      5   9999  3.79277E-02  1.94603E+01 -1.00000E+00  1.67355E-01
      21    -1     0     0   511   501  0.000000000E+00  0.000000000E+00  2.947841728E+01  2.947841728E+01  0.000000000E+00  0.00000E+00  9.000E+00
      21    -1     0     0   501   502  0.000000000E+00  0.000000000E+00 -1.677401213E+03  1.677401213E+03  0.000000000E+00  0.00000E+00  9.000E+00
      25     1     1     2     0     0 -7.934397573E+01  4.225447903E+01 -1.325814153E+03  1.334724345E+03  1.250000000E+02  0.00000E+00  9.000E+00
      25     1     1     2     0     0  6.235747275E+01 -3.275921254E+01 -3.221910054E+02  3.526948602E+02  1.250000000E+02  0.00000E+00  9.000E+00
      21     1     1     2   511   502  1.698650298E+01 -9.495266496E+00  8.236301697E-02  1.946042531E+01  1.228944629E-06  0.00000E+00  9.000E+00
#rwgt            1           1   1.8862638885052886E-002           9      359344           0
</event>
<event>
      5   9999  3.79277E-02  1.63661E+01 -1.00000E+00  1.73890E-01
      21    -1     0     0   502   501  0.000000000E+00  0.000000000E+00  2.939089031E+01  2.939089031E+01  0.000000000E+00  0.00000E+00  9.000E+00
      21    -1     0     0   512   502  0.000000000E+00  0.000000000E+00 -8.426402085E+02  8.426402085E+02  0.000000000E+00  0.00000E+00  9.000E+00
      25     1     1     2     0     0  5.759228753E+01 -1.251639689E+01 -4.035730016E+02  4.265790659E+02  1.250000000E+02  0.00000E+00  9.000E+00
      25     1     1     2     0     0 -4.837054196E+01 -1.004258572E+00 -2.392169541E+02  2.742088054E+02  1.250000000E+02  0.00000E+00  9.000E+00
      21     1     1     2   512   501 -9.221745567E+00  1.352065546E+01 -1.704593625E+02  1.712432275E+02  1.907348633E-06  0.00000E+00  9.000E+00
#rwgt            1           1   4.5414692407663666E-002           9      359485           0
</event>
<event>
      5   9999  3.79277E-02  8.32524E+01 -1.00000E+00  1.27517E-01
      21    -1     0     0   502   501  0.000000000E+00  0.000000000E+00  1.704714443E+02  1.704714443E+02  0.000000000E+00  0.00000E+00  9.000E+00
      21    -1     0     0   501   511  0.000000000E+00  0.000000000E+00 -6.181902746E+02  6.181902746E+02  0.000000000E+00  0.00000E+00  9.000E+00
      25     1     1     2     0     0 -9.327414885E+01 -2.338171477E+02 -9.896344452E+01  2.979753157E+02  1.250000000E+02  0.00000E+00  9.000E+00
      25     1     1     2     0     0  6.750124455E+01  1.546545023E+02 -1.084100252E+02  2.363306300E+02  1.250000000E+02  0.00000E+00  9.000E+00
      21     1     1     2   502   511  2.577290430E+01  7.916264534E+01 -2.403453606E+02  2.543557732E+02  2.697398305E-06  0.00000E+00  9.000E+00
#rwgt            1           1   4.0864953772701329E-002           9      359701           0
</event>
<event>
      5   9999  3.79277E-02  1.90983E+02 -1.00000E+00  1.12382E-01
      21    -1     0     0   502   501  0.000000000E+00  0.000000000E+00  3.184294552E+02  3.184294552E+02  0.000000000E+00  0.00000E+00  9.000E+00
      -3    -1     0     0     0   502  0.000000000E+00  0.000000000E+00 -1.181489277E+03  1.181489277E+03  0.000000000E+00  0.00000E+00  9.000E+00
      25     1     1     2     0     0 -3.074537762E+02  4.625192493E+02 -2.670682111E+02  6.288102336E+02  1.250000000E+02  0.00000E+00  9.000E+00
      25     1     1     2     0     0  3.219281526E+02 -2.720855139E+02 -4.623336157E+02  6.380012810E+02  1.250000000E+02  0.00000E+00  9.000E+00
      -3     1     1     2     0   501 -1.447437632E+01 -1.904337354E+02 -1.336579946E+02  2.331072171E+02  5.394796609E-06  0.00000E+00  9.000E+00
#rwgt            2           8   4.1950496729418987E-005           9      359841           0
</event>
<event>
      5   9999  3.79277E-02  1.13635E+01 -1.00000E+00  1.89551E-01
      21    -1     0     0   502   501  0.000000000E+00  0.000000000E+00  6.573505558E+02  6.573505558E+02  0.000000000E+00  0.00000E+00  9.000E+00
      21    -1     0     0   501   511  0.000000000E+00  0.000000000E+00 -1.351155921E+02  1.351155921E+02  0.000000000E+00  0.00000E+00  9.000E+00
      25     1     1     2     0     0 -6.249958645E+01 -2.502396119E+02  3.316993108E+02  4.383782550E+02  1.250000000E+02  0.00000E+00  9.000E+00
      25     1     1     2     0     0  5.119602728E+01  2.490738258E+02  1.925088691E+02  3.425543294E+02  1.250000000E+02  0.00000E+00  9.000E+00
      21     1     1     2   502   511  1.130355916E+01  1.165786142E+00 -1.973216204E+00  1.153356360E+01  2.159383408E-07  0.00000E+00  9.000E+00
#rwgt            1           1   4.2454079565562748E-002           9      359860           0
</event>
<event>
      5   9999  3.79277E-02  1.49339E+01 -1.00000E+00  1.77564E-01
      21    -1     0     0   502   512  0.000000000E+00  0.000000000E+00  1.167906682E+02  1.167906682E+02  0.000000000E+00  0.00000E+00  9.000E+00
      21    -1     0     0   501   502  0.000000000E+00  0.000000000E+00 -2.802803111E+02  2.802803111E+02  0.000000000E+00  0.00000E+00  9.000E+00
      25     1     1     2     0     0  1.544572643E+00 -3.694228576E+01  3.545703275E+01  1.350900417E+02  1.250000000E+02  0.00000E+00  9.000E+00
      25     1     1     2     0     0 -1.336681123E+01  2.781780215E+01 -2.079209305E+02  2.445579994E+02  1.250000000E+02  0.00000E+00  9.000E+00
      21     1     1     2   501   512  1.182223859E+01  9.124483608E+00  8.974254811E+00  1.742293821E+01  3.769728732E-07  0.00000E+00  9.000E+00
#rwgt            1           1   3.7497125619489466E-002           9      360141           0
</event>
<event>
      5   9999  3.79277E-02  1.89139E+01 -1.00000E+00  1.68395E-01
      21    -1     0     0   502   501  0.000000000E+00  0.000000000E+00  1.076974733E+02  1.076974733E+02  0.000000000E+00  0.00000E+00  9.000E+00
      21    -1     0     0   501   511  0.000000000E+00  0.000000000E+00 -3.438163320E+02  3.438163320E+02  0.000000000E+00  0.00000E+00  9.000E+00
      25     1     1     2     0     0 -3.182430583E-01  2.589343114E+01 -2.469366964E+02  2.779807603E+02  1.250000000E+02  0.00000E+00  9.000E+00
      25     1     1     2     0     0 -6.286405571E+00 -8.170180777E+00  4.599625527E+01  1.335923884E+02  1.250000000E+02  0.00000E+00  9.000E+00
      21     1     1     2   502   511  6.604648630E+00 -1.772325037E+01 -3.517841754E+01  3.994065658E+01  0.000000000E+00  0.00000E+00  9.000E+00
#rwgt            1           1   1.8079753081554930E-002           9      360445           0
</event>
<event>
      5   9999  3.79277E-02  2.28742E+02 -1.00000E+00  1.09565E-01
      21    -1     0     0   502   501  0.000000000E+00  0.000000000E+00  5.381493836E+02  5.381493836E+02  0.000000000E+00  0.00000E+00  9.000E+00
      21    -1     0     0   512   502  0.000000000E+00  0.000000000E+00 -3.548488592E+02  3.548488592E+02  0.000000000E+00  0.00000E+00  9.000E+00
      25     1     1     2     0     0 -3.013958002E+02 -8.018704583E+01 -3.593083064E+01  3.379133251E+02  1.250000000E+02  0.00000E+00  9.000E+00
      25     1     1     2     0     0  1.977138422E+02 -1.237074696E+02  1.871466506E+02  3.241036413E+02  1.250000000E+02  0.00000E+00  9.000E+00
      21     1     1     2   512   501  1.036819579E+02  2.038945154E+02  3.208470442E+01  2.309812765E+02  3.371747881E-06  0.00000E+00  9.000E+00
#rwgt            1           1   2.7742088419466637E-002           9      360742           0
</event>
<event>
      5   9999  3.79277E-02  7.13660E+01 -1.00000E+00  1.30797E-01
      21    -1     0     0   502   501  0.000000000E+00  0.000000000E+00  6.227361471E+02  6.227361471E+02  0.000000000E+00  0.00000E+00  9.000E+00
      21    -1     0     0   501   511  0.000000000E+00  0.000000000E+00 -8.652709261E+02  8.652709261E+02  0.000000000E+00  0.00000E+00  9.000E+00
      25     1     1     2     0     0  7.623597282E+01  1.478080152E+02  4.727870906E+02  5.165382522E+02  1.250000000E+02  0.00000E+00  9.000E+00
      25     1     1     2     0     0 -4.887693447E+00 -1.493986932E+02  5.132923316E+01  2.015032239E+02  1.250000000E+02  0.00000E+00  9.000E+00
      21     1     1     2   502   511 -7.134827938E+01  1.590677965E+00 -7.666511028E+02  7.699655971E+02  0.000000000E+00  0.00000E+00  9.000E+00
#rwgt            2          11   1.2253034971453299E-002           9      360780           0
</event>
<event>
      5   9999  3.79277E-02  3.43060E+01 -1.00000E+00  1.49101E-01
      21    -1     0     0   502   501  0.000000000E+00  0.000000000E+00  1.550921929E+02  1.550921929E+02  0.000000000E+00  0.00000E+00  9.000E+00
      21    -1     0     0   501   512  0.000000000E+00  0.000000000E+00 -4.077127409E+02  4.077127409E+02  0.000000000E+00  0.00000E+00  9.000E+00
      25     1     1     2     0     0  1.203664344E+02  1.184504756E+02  1.949744070E+01  2.110065020E+02  1.250000000E+02  0.00000E+00  9.000E+00
      25     1     1     2     0     0 -8.712175377E+01 -1.099834572E+02 -2.190553781E+02  2.886118839E+02  1.250000000E+02  0.00000E+00  9.000E+00
      21     1     1     2   502   512 -3.324468063E+01 -8.467018427E+00 -5.306261066E+01  6.318654794E+01  6.743495762E-07  0.00000E+00  9.000E+00
#rwgt            1           1   5.5310051112825491E-002           9      360800           0
</event>
<event>
      5   9999  3.79277E-02  3.35854E+01 -1.00000E+00  1.49711E-01
      21    -1     0     0   502   511  0.000000000E+00  0.000000000E+00  1.672087777E+03  1.672087777E+03  0.000000000E+00  0.00000E+00  9.000E+00
      21    -1     0     0   501   502  0.000000000E+00  0.000000000E+00 -7.099447190E+01  7.099447190E+01  0.000000000E+00  0.00000E+00  9.000E+00
      25     1     1     2     0     0  1.581399054E+02 -1.498761474E+01  1.700611318E+02  2.641564817E+02  1.250000000E+02  0.00000E+00  9.000E+00
      25     1     1     2     0     0 -1.536151565E+02  4.826681911E+01  4.152152427E+02  4.625537806E+02  1.250000000E+02  0.00000E+00  9.000E+00
      21     1     1     2   501   511 -4.524748855E+00 -3.327920437E+01  1.015816931E+03  1.016371987E+03  1.078959322E-05  0.00000E+00  9.000E+00
#rwgt            1           1   4.0904785668432593E-002           9      360965           0
</event>
<event>
      5   9999  3.79277E-02  1.93987E+01 -1.00000E+00  1.67470E-01
      21    -1     0     0   502   512  0.000000000E+00  0.000000000E+00  1.141890725E+02  1.141890725E+02  0.000000000E+00  0.00000E+00  9.000E+00
      21    -1     0     0   501   502  0.000000000E+00  0.000000000E+00 -3.469049079E+02  3.469049079E+02  0.000000000E+00  0.00000E+00  9.000E+00
      25     1     1     2     0     0  1.186911932E+02 -4.690284564E+00 -2.051783478E+02  2.680163288E+02  1.250000000E+02  0.00000E+00  9.000E+00
      25     1     1     2     0     0 -1.018841691E+02 -4.996500660E+00 -4.444050775E+01  1.673478642E+02  1.250000000E+02  0.00000E+00  9.000E+00
      21     1     1     2   501   512 -1.680702413E+01  9.686785225E+00  1.690302017E+01  2.572978739E+01  0.000000000E+00  0.00000E+00  9.000E+00
#rwgt            1           1   2.8180437365807220E-002           9      361200           0
</event>
<event>
      5   9999  3.79277E-02  2.61203E+01 -1.00000E+00  1.57338E-01
      -2    -1     0     0     0   501  0.000000000E+00  0.000000000E+00  8.186549912E+02  8.186549912E+02  0.000000000E+00  0.00000E+00  9.000E+00
      21    -1     0     0   501   502  0.000000000E+00  0.000000000E+00 -1.216787317E+02  1.216787317E+02  0.000000000E+00  0.00000E+00  9.000E+00
      25     1     1     2     0     0 -1.351931706E+02  1.472576523E+02  2.433053655E+02  3.387986281E+02  1.250000000E+02  0.00000E+00  9.000E+00
      25     1     1     2     0     0  1.509120276E+02 -1.681188179E+02  1.538010014E+02  3.005297407E+02  1.250000000E+02  0.00000E+00  9.000E+00
      -2     1     1     2     0   502 -1.571885696E+01  2.086116555E+01  2.998698926E+02  3.010053541E+02  5.394796609E-06  0.00000E+00  9.000E+00
#rwgt            1           1   6.9447083242971400E-002           9      361483           0
</event>
<event>
      5   9999  3.79277E-02  1.65521E+01 -1.00000E+00  1.73448E-01
       3    -1     0     0   502     0  0.000000000E+00  0.000000000E+00  3.418846670E+01  3.418846670E+01  0.000000000E+00  0.00000E+00  9.000E+00
      21    -1     0     0   501   502  0.000000000E+00  0.000000000E+00 -1.987250466E+03  1.987250466E+03  0.000000000E+00  0.00000E+00  9.000E+00
      25     1     1     2     0     0 -2.125180945E+01  1.128785425E+02 -1.035425693E+03  1.049249528E+03  1.250000000E+02  0.00000E+00  9.000E+00
      25     1     1     2     0     0  3.636852573E+01 -1.061364604E+02 -9.339591720E+02  9.489427553E+02  1.250000000E+02  0.00000E+00  9.000E+00
       3     1     1     2   501     0 -1.511671628E+01 -6.742082084E+00  1.632286590E+01  2.324664993E+01  1.410503336E-06  0.00000E+00  9.000E+00
#rwgt            1           1   6.2207541808782463E-002           9      361699           0
</event>
<event>
      5   9999  3.79277E-02  4.62241E+01 -1.00000E+00  1.41050E-01
      21    -1     0     0   502   501  0.000000000E+00  0.000000000E+00  2.370455129E+03  2.370455129E+03  0.000000000E+00  0.00000E+00  9.000E+00
       2    -1     0     0   501     0  0.000000000E+00  0.000000000E+00 -1.440022684E+02  1.440022684E+02  0.000000000E+00  0.00000E+00  9.000E+00
      25     1     1     2     0     0  4.393638234E+00  4.730366852E+02  4.635400034E+02  6.740009972E+02  1.250000000E+02  0.00000E+00  9.000E+00
      25     1     1     2     0     0 -4.939513796E+01 -4.624759256E+02  1.634496088E+03  1.703973686E+03  1.250000000E+02  0.00000E+00  9.000E+00
       2     1     1     2   502     0  4.500149972E+01 -1.056075956E+01  1.284167696E+02  1.364827144E+02  0.000000000E+00  0.00000E+00  9.000E+00
#rwgt            1           1   4.3024465976438657E-002           9      361940           0
</event>
<event>
      5   9999  3.79277E-02  2.00224E+01 -1.00000E+00  1.66329E-01
      21    -1     0     0   502   501  0.000000000E+00  0.000000000E+00  1.447708055E+03  1.447708055E+03  0.000000000E+00  0.00000E+00  9.000E+00
      21    -1     0     0   511   502  0.000000000E+00  0.000000000E+00 -4.337230964E+01  4.337230964E+01  0.000000000E+00  0.00000E+00  9.000E+00
      25     1     1     2     0     0  1.617335926E+02 -1.066932534E+02  5.466069755E+02  5.932498554E+02  1.250000000E+02  0.00000E+00  9.000E+00
      25     1     1     2     0     0 -1.618044822E+02  1.267154953E+02  8.259943287E+02  8.603075835E+02  1.250000000E+02  0.00000E+00  9.000E+00
      21     1     1     2   511   501  7.088967010E-02 -2.002224188E+01  3.173444096E+01  3.752292550E+01  8.259061849E-07  0.00000E+00  9.000E+00
#rwgt            2          11   1.2111139093674611E-002           9      362141           0
</event>
<event>
      5   9999  3.79277E-02  7.87408E+01 -1.00000E+00  1.28684E-01
      21    -1     0     0   502   501  0.000000000E+00  0.000000000E+00  1.132074774E+03  1.132074774E+03  0.000000000E+00  0.00000E+00  9.000E+00
      21    -1     0     0   501   512  0.000000000E+00  0.000000000E+00 -1.434446517E+02  1.434446517E+02  0.000000000E+00  0.00000E+00  9.000E+00
      25     1     1     2     0     0  2.426121289E+01  1.468129675E+02  3.747702697E+01  1.979196337E+02  1.250000000E+02  0.00000E+00  9.000E+00
      25     1     1     2     0     0 -9.480710728E+01 -1.118359147E+02  9.761533557E+02  9.949854438E+02  1.250000000E+02  0.00000E+00  9.000E+00
      21     1     1     2   502   512  7.054589439E+01 -3.497705276E+01 -2.500026076E+01  8.261434787E+01  2.158972058E-06  0.00000E+00  9.000E+00
#rwgt            1           1   4.6285698553162336E-002           9      362191           0
</event>
<event>
      5   9999  3.79277E-02  3.73796E+01 -1.00000E+00  1.46689E-01
      21    -1     0     0   502   511  0.000000000E+00  0.000000000E+00  3.339039214E+02  3.339039214E+02  0.000000000E+00  0.00000E+00  9.000E+00
      21    -1     0     0   501   502  0.000000000E+00  0.000000000E+00 -3.078101525E+02  3.078101525E+02  0.000000000E+00  0.00000E+00  9.000E+00
      25     1     1     2     0     0  9.166890811E+01 -7.926794886E+01  3.288603232E+01  1.771809458E+02  1.250000000E+02  0.00000E+00  9.000E+00
      25     1     1     2     0     0 -5.453675083E+01  7.497448286E+01 -2.080589030E+02  2.598248206E+02  1.250000000E+02  0.00000E+00  9.000E+00
      21     1     1     2   501   511 -3.713215728E+01  4.293466006E+00  2.012666395E+02  2.047083075E+02  0.000000000E+00  0.00000E+00  9.000E+00
#rwgt            1           1   4.3592451337675607E-002           9      362271           0
</event>
<event>
      5   9999  3.79277E-02  2.34962E+01 -1.00000E+00  1.60796E-01
       1    -1     0     0   502     0  0.000000000E+00  0.000000000E+00  5.915465522E+02  5.915465522E+02  0.000000000E+00  0.00000E+00  9.000E+00
      21    -1     0     0   501   502  0.000000000E+00  0.000000000E+00 -4.029186677E+02  4.029186677E+02  0.000000000E+00  0.00000E+00  9.000E+00
      25     1     1     2     0     0  7.957297112E+01 -8.723129294E+01 -3.129445060E+02  3.570720096E+02  1.250000000E+02  0.00000E+00  9.000E+00
      25     1     1     2     0     0 -1.016164237E+02  9.536488379E+01  6.201541216E+01  1.972086965E+02  1.250000000E+02  0.00000E+00  9.000E+00
       1     1     1     2   501     0  2.204345257E+01 -8.133590846E+00  4.395569782E+02  4.401845138E+02  0.000000000E+00  0.00000E+00  9.000E+00
#rwgt            1           1   4.5805917451911614E-002           9      362438           0
</event>
<event>
      5   9999  3.79277E-02  4.29631E+01 -1.00000E+00  1.42941E-01
      -1    -1     0     0     0   501  0.000000000E+00  0.000000000E+00  9.710077688E+02  9.710077688E+02  0.000000000E+00  0.00000E+00  9.000E+00
      21    -1     0     0   501   502  0.000000000E+00  0.000000000E+00 -1.547484106E+02  1.547484106E+02  0.000000000E+00  0.00000E+00  9.000E+00
      25     1     1     2     0     0 -7.630381540E+01  1.972356229E+02 -3.327478013E+00  2.456832011E+02  1.250000000E+02  0.00000E+00  9.000E+00
      25     1     1     2     0     0  5.840063960E+01 -1.581804385E+02  3.470458698E+02  4.055829404E+02  1.250000000E+02  0.00000E+00  9.000E+00
      -1     1     1     2     0   502  1.790317581E+01 -3.905518441E+01  4.725409664E+02  4.744900379E+02  0.000000000E+00  0.00000E+00  9.000E+00
#rwgt            1           1   2.3917166951651012E-002           9      362651           0
</event>
<event>
      5   9999  3.79277E-02  1.31632E+01 -1.00000E+00  1.82900E-01
      21    -1     0     0   502   501  0.000000000E+00  0.000000000E+00  2.420871717E+02  2.420871717E+02  0.000000000E+00  0.00000E+00  9.000E+00
      21    -1     0     0   501   511  0.000000000E+00  0.000000000E+00 -3.128488595E+02  3.128488595E+02  0.000000000E+00  0.00000E+00  9.000E+00
      25     1     1     2     0     0 -2.683537001E+01 -4.381037807E+01  2.933629420E+01  1.382935446E+02  1.250000000E+02  0.00000E+00  9.000E+00
      25     1     1     2     0     0  3.654625801E+01  5.269684958E+01  1.268673097E+02  1.892958035E+02  1.250000000E+02  0.00000E+00  9.000E+00
      21     1     1     2   502   511 -9.710887997E+00 -8.886471508E+00 -2.269652917E+02  2.273466832E+02  0.000000000E+00  0.00000E+00  9.000E+00
#rwgt            1           1   7.0709410153055208E-002           9      362748           0
</event>
<event>
      5   9999  3.79277E-02  1.45603E+02 -1.00000E+00  1.16908E-01
      21    -1     0     0   502   501  0.000000000E+00  0.000000000E+00  9.091991188E+02  9.091991188E+02  0.000000000E+00  0.00000E+00  9.000E+00
       2    -1     0     0   501     0  0.000000000E+00  0.000000000E+00 -1.550344273E+03  1.550344273E+03  0.000000000E+00  0.00000E+00  9.000E+00
      25     1     1     2     0     0  1.062297951E+02  1.972134386E+02  6.439354162E+02  6.931491397E+02  1.250000000E+02  0.00000E+00  9.000E+00
      25     1     1     2     0     0 -9.019959654E+01 -5.249514522E+01  2.091609464E+02  2.650754779E+02  1.250000000E+02  0.00000E+00  9.000E+00
       2     1     1     2   502     0 -1.603019860E+01 -1.447182934E+02 -1.494241517E+03  1.501318774E+03  0.000000000E+00  0.00000E+00  9.000E+00
#rwgt            1           1   3.6246292508699568E-002           9      362914           0
</event>
<event>
      5   9999 -3.79277E-02  2.09110E+01 -1.00000E+00  1.64789E-01
      21    -1     0     0   502   501  0.000000000E+00  0.000000000E+00  5.021415068E+02  5.021415068E+02  0.000000000E+00  0.00000E+00  9.000E+00
      21    -1     0     0   501   511  0.000000000E+00  0.000000000E+00 -7.667405383E+01  7.667405383E+01  0.000000000E+00  0.00000E+00  9.000E+00
      25     1     1     2     0     0  7.150191934E+01  6.345331680E+01  6.303710133E+01  1.695214559E+02  1.250000000E+02  0.00000E+00  9.000E+00
      25     1     1     2     0     0 -8.699250786E+01 -4.940660166E+01  3.502143568E+02  3.850763618E+02  1.250000000E+02  0.00000E+00  9.000E+00
      21     1     1     2   502   511  1.549058851E+01 -1.404671514E+01  1.221599479E+01  2.421774282E+01  4.460403188E-07  0.00000E+00  9.000E+00
#rwgt            1           1  -5.2199037372700971E-002           9      362989           0
</event>
<event>
      5   9999  3.79277E-02  1.98359E+01 -1.00000E+00  1.66665E-01
      21    -1     0     0   502   501  0.000000000E+00  0.000000000E+00  9.076748895E+02  9.076748895E+02  0.000000000E+00  0.00000E+00  9.000E+00
      21    -1     0     0   512   502  0.000000000E+00  0.000000000E+00 -4.974207044E+01  4.974207044E+01  0.000000000E+00  0.00000E+00  9.000E+00
      25     1     1     2     0     0  1.853095037E+01  8.490172343E+01  5.145786400E+02  5.366263836E+02  1.250000000E+02  0.00000E+00  9.000E+00
      25     1     1     2     0     0 -3.633339827E+01 -9.365022583E+01  3.605088091E+02  3.945656879E+02  1.250000000E+02  0.00000E+00  9.000E+00
      21     1     1     2   512   501  1.780244790E+01  8.748502398E+00 -1.715463004E+01  2.622488851E+01  1.215700987E-06  0.00000E+00  9.000E+00
#rwgt            1           1   4.2703997751775573E-002           9      363189           0
</event>
<event>
      5   9999  3.79277E-02  3.62864E+01 -1.00000E+00  1.47514E-01
      21    -1     0     0   502   501  0.000000000E+00  0.000000000E+00  2.691063336E+02  2.691063336E+02  0.000000000E+00  0.00000E+00  9.000E+00
      21    -1     0     0   511   502  0.000000000E+00  0.000000000E+00 -5.880382960E+02  5.880382960E+02  0.000000000E+00  0.00000E+00  9.000E+00
      25     1     1     2     0     0 -2.467811578E+01  3.406132381E+02 -1.804876747E+02  4.059891478E+02  1.250000000E+02  0.00000E+00  9.000E+00
      25     1     1     2     0     0  5.943182754E+01 -3.301785582E+02 -5.770381529E+01  3.626358404E+02  1.250000000E+02  0.00000E+00  9.000E+00
      21     1     1     2   511   501 -3.475371176E+01 -1.043467988E+01 -8.074047245E+01  8.851964142E+01  1.348699152E-06  0.00000E+00  9.000E+00
#rwgt            1           1   2.8876720541779047E-002           9      363470           0
</event>
<event>
      5   9999  3.79277E-02  6.58232E+00 -1.00000E+00  2.19401E-01
      21    -1     0     0   502   501  0.000000000E+00  0.000000000E+00  9.255918052E+01  9.255918052E+01  0.000000000E+00  0.00000E+00  9.000E+00
      21    -1     0     0   501   512  0.000000000E+00  0.000000000E+00 -1.200606656E+03  1.200606656E+03  0.000000000E+00  0.00000E+00  9.000E+00
      25     1     1     2     0     0 -1.295440073E+02  5.297934180E+01 -2.218758028E+01  1.889596497E+02  1.250000000E+02  0.00000E+00  9.000E+00
      25     1     1     2     0     0  1.354624588E+02 -5.586011682E+01 -1.020533831E+03  1.038549339E+03  1.250000000E+02  0.00000E+00  9.000E+00
      21     1     1     2   502   512 -5.918451436E+00  2.880775019E+00 -6.532606432E+01  6.565684741E+01  1.348699152E-06  0.00000E+00  9.000E+00
#rwgt            1           1   3.0833260426773368E-002           9      363676           0
</event>
<event>
      5   9999  3.79277E-02  2.09509E+01 -1.00000E+00  1.64722E-01
      21    -1     0     0   502   501  0.000000000E+00  0.000000000E+00  3.041328940E+02  3.041328940E+02  0.000000000E+00  0.00000E+00  9.000E+00
      21    -1     0     0   511   502  0.000000000E+00  0.000000000E+00 -1.135464447E+02  1.135464447E+02  0.000000000E+00  0.00000E+00  9.000E+00
      25     1     1     2     0     0 -7.709670363E+01 -7.506254270E+01  1.269907245E+02  2.081584280E+02  1.250000000E+02  0.00000E+00  9.000E+00
      25     1     1     2     0     0  9.598776189E+01  8.412175988E+01  5.815097431E+01  1.878740449E+02  1.250000000E+02  0.00000E+00  9.000E+00
      21     1     1     2   511   501 -1.889105826E+01 -9.059217176E+00  5.444750524E+00  2.164686597E+01  1.788139343E-07  0.00000E+00  9.000E+00
#rwgt            1           1   2.6969922556530121E-002           9      363982           0
</event>
<event>
      5   9999  3.79277E-02  1.95236E+01 -1.00000E+00  1.67238E-01
      21    -1     0     0   502   501  0.000000000E+00  0.000000000E+00  8.523394071E+02  8.523394071E+02  0.000000000E+00  0.00000E+00  9.000E+00
      21    -1     0     0   512   502  0.000000000E+00  0.000000000E+00 -4.280834423E+01  4.280834423E+01  0.000000000E+00  0.00000E+00  9.000E+00
      25     1     1     2     0     0  3.038781046E+01  1.029816963E+02  3.491074891E+02  3.860436345E+02  1.250000000E+02  0.00000E+00  9.000E+00
      25     1     1     2     0     0 -4.527893626E+01 -9.035539659E+01  4.623397119E+02  4.894867607E+02  1.250000000E+02  0.00000E+00  9.000E+00
      21     1     1     2   512   501  1.489112579E+01 -1.262629974E+01 -1.916138144E+00  1.961735604E+01  5.713191483E-07  0.00000E+00  9.000E+00
#rwgt            1           1   4.1750572355609285E-002           9      364119           0
</event>
<event>
      5   9999  3.79277E-02  7.15200E+01 -1.00000E+00  1.30750E-01
      21    -1     0     0   502   501  0.000000000E+00  0.000000000E+00  1.525607110E+03  1.525607110E+03  0.000000000E+00  0.00000E+00  9.000E+00
      21    -1     0     0   501   511  0.000000000E+00  0.000000000E+00 -3.728046813E+01  3.728046813E+01  0.000000000E+00  0.00000E+00  9.000E+00
      25     1     1     2     0     0  2.526555588E+01  1.356603085E+02  3.849465346E+02  4.276106899E+02  1.250000000E+02  0.00000E+00  9.000E+00
      25     1     1     2     0     0  1.137485840E+01 -7.423886992E+01  9.936688540E+02  1.004312495E+03  1.250000000E+02  0.00000E+00  9.000E+00
      21     1     1     2   502   511 -3.664041428E+01 -6.142143857E+01  1.097112534E+02  1.309643929E+02  1.907348633E-06  0.00000E+00  9.000E+00
#rwgt            1           1   4.9147952561981768E-002           9      364291           0
</event>
<event>
      5   9999  3.79277E-02  1.35706E+02 -1.00000E+00  1.18144E-01
      21    -1     0     0   502   512  0.000000000E+00  0.000000000E+00  3.936471002E+02  3.936471002E+02  0.000000000E+00  0.00000E+00  9.000E+00
      21    -1     0     0   501   502  0.000000000E+00  0.000000000E+00 -5.300860888E+02  5.300860888E+02  0.000000000E+00  0.00000E+00  9.000E+00
      25     1     1     2     0     0 -6.430505694E+01  8.703470163E+01 -1.927881212E+02  2.539733044E+02  1.250000000E+02  0.00000E+00  9.000E+00
      25     1     1     2     0     0  2.986353946E+01 -2.182970850E+02 -2.367751215E+02  3.467461701E+02  1.250000000E+02  0.00000E+00  9.000E+00
      21     1     1     2   501   512  3.444151748E+01  1.312623834E+02  2.931242541E+02  3.230137145E+02  3.814697266E-06  0.00000E+00  9.000E+00
#rwgt            1           1   3.7780767657122891E-002           9      364514           0
</event>
<event>
      5   9999  3.79277E-02  2.46269E+01 -1.00000E+00  1.59242E-01
      21    -1     0     0   502   511  0.000000000E+00  0.000000000E+00  1.118781839E+03  1.118781839E+03  0.000000000E+00  0.00000E+00  9.000E+00
      21    -1     0     0   501   502  0.000000000E+00  0.000000000E+00 -2.652877358E+01  2.652877358E+01  0.000000000E+00  0.00000E+00  9.000E+00
      25     1     1     2     0     0  2.214363185E+00 -6.003780086E+01  2.558568527E+02  2.910277822E+02  1.250000000E+02  0.00000E+00  9.000E+00
      25     1     1     2     0     0  1.191925165E+01  8.020520819E+01  7.335893562E+02  7.485674903E+02  1.250000000E+02  0.00000E+00  9.000E+00
      21     1     1     2   501   511 -1.413361483E+01 -2.016740733E+01  1.028068564E+02  1.057153400E+02  0.000000000E+00  0.00000E+00  9.000E+00
#rwgt            1           1   5.7972950444903588E-002           9      364565           0
</event>
<event>
      5   9999  3.79277E-02  6.36319E+01 -1.00000E+00  1.33353E-01
      21    -1     0     0   502   512  0.000000000E+00  0.000000000E+00  9.805566818E+02  9.805566818E+02  0.000000000E+00  0.00000E+00  9.000E+00
      21    -1     0     0   501   502  0.000000000E+00  0.000000000E+00 -6.972438225E+01  6.972438225E+01  0.000000000E+00  0.00000E+00  9.000E+00
      25     1     1     2     0     0 -2.113356545E+01 -1.461213973E+02  2.580688532E+02  3.225253840E+02  1.250000000E+02  0.00000E+00  9.000E+00
      25     1     1     2     0     0 -4.243858863E+01  1.433652023E+02  2.355508918E+02  3.057185596E+02  1.250000000E+02  0.00000E+00  9.000E+00
      21     1     1     2   501   512  6.357215408E+01  2.756195000E+00  4.172125545E+02  4.220371205E+02  5.394796609E-06  0.00000E+00  9.000E+00
#rwgt            1           1   6.9085500710163963E-002           9      364803           0
</event>
<event>
      5   9999  3.79277E-02  6.36087E+01 -1.00000E+00  1.33362E-01
      21    -1     0     0   502   501  0.000000000E+00  0.000000000E+00  9.622827981E+02  9.622827981E+02  0.000000000E+00  0.00000E+00  9.000E+00
      21    -1     0     0   511   502  0.000000000E+00  0.000000000E+00 -9.684677425E+01  9.684677425E+01  0.000000000E+00  0.00000E+00  9.000E+00
      25     1     1     2     0     0 -1.800269327E+02  1.609349540E+01  5.146887437E+02  5.596411350E+02  1.250000000E+02  0.00000E+00  9.000E+00
      25     1     1     2     0     0  1.730156271E+02 -7.931458310E+01  3.687423180E+02  4.333833262E+02  1.250000000E+02  0.00000E+00  9.000E+00
      21     1     1     2   511   501  7.011305512E+00  6.322108770E+01 -1.799503787E+01  6.610511117E+01  1.634515429E-06  0.00000E+00  9.000E+00
#rwgt            1           1   4.5640702280761426E-002           9      364968           0
</event>
<event>
      5   9999  3.79277E-02  2.19872E+01 -1.00000E+00  1.63045E-01
      21    -1     0     0   502   512  0.000000000E+00  0.000000000E+00  4.349044068E+01  4.349044068E+01  0.000000000E+00  0.00000E+00  9.000E+00
      21    -1     0     0   501   502  0.000000000E+00  0.000000000E+00 -1.538682227E+03  1.538682227E+03  0.000000000E+00  0.00000E+00  9.000E+00
      25     1     1     2     0     0  4.547617213E+01  1.627563920E+02 -1.023360874E+03  1.044724941E+03  1.250000000E+02  0.00000E+00  9.000E+00
      25     1     1     2     0     0 -4.181409673E+01 -1.844364913E+02 -4.591559146E+02  5.120687375E+02  1.250000000E+02  0.00000E+00  9.000E+00
      21     1     1     2   501   512 -3.662075405E+00  2.168009937E+01 -1.267499838E+01  2.537898912E+01  1.685873940E-07  0.00000E+00  9.000E+00
#rwgt            1           1   4.8805237498195257E-002           9      365079           0
</event>
<event>
      5   9999  3.79277E-02  3.40977E+01 -1.00000E+00  1.49276E-01
      21    -1     0     0   502   511  0.000000000E+00  0.000000000E+00  1.641596586E+02  1.641596586E+02  0.000000000E+00  0.00000E+00  9.000E+00
      21    -1     0     0   501   502  0.000000000E+00  0.000000000E+00 -7.056580734E+02  7.056580734E+02  0.000000000E+00  0.00000E+00  9.000E+00
      25     1     1     2     0     0  5.363227739E+00 -7.220511298E+01 -2.197970393E+01  1.461179316E+02  1.250000000E+02  0.00000E+00  9.000E+00
      25     1     1     2     0     0  1.617486772E+01  4.577092149E+01 -6.112762028E+02  6.258116327E+02  1.250000000E+02  0.00000E+00  9.000E+00
      21     1     1     2   501   511 -2.153809546E+01  2.643419149E+01  9.175749194E+01  9.788816763E+01  2.697398305E-06  0.00000E+00  9.000E+00
#rwgt            1           1   3.2184669987352317E-002           9      365250           0
</event>
<event>
      5   9999  3.79277E-02  3.26996E+01 -1.00000E+00  1.50485E-01
      21    -1     0     0   512   501  0.000000000E+00  0.000000000E+00  3.435845437E+02  3.435845437E+02  0.000000000E+00  0.00000E+00  9.000E+00
      21    -1     0     0   501   502  0.000000000E+00  0.000000000E+00 -5.647568126E+02  5.647568126E+02  0.000000000E+00  0.00000E+00  9.000E+00
      25     1     1     2     0     0 -1.707731120E+02  7.148946337E+01 -2.933868944E+02  3.687479748E+02  1.250000000E+02  0.00000E+00  9.000E+00
      25     1     1     2     0     0  1.822458435E+02 -4.086852141E+01 -1.783461424E+02  2.869078773E+02  1.250000000E+02  0.00000E+00  9.000E+00
      21     1     1     2   512   502 -1.147273158E+01 -3.062094196E+01  2.505607679E+02  2.526855043E+02  4.672030912E-06  0.00000E+00  9.000E+00
#rwgt            1           1   3.4369739851664687E-002           9      365654           0
</event>
<event>
      5   9999  3.79277E-02  5.67351E+01 -1.00000E+00  1.36015E-01
      21    -1     0     0   511   501  0.000000000E+00  0.000000000E+00  4.438776849E+02  4.438776849E+02  0.000000000E+00  0.00000E+00  9.000E+00
      21    -1     0     0   501   502  0.000000000E+00  0.000000000E+00 -1.287482605E+02  1.287482605E+02  0.000000000E+00  0.00000E+00  9.000E+00
      25     1     1     2     0     0  1.124430957E+02  9.478213506E+01  7.024474715E+00  1.931358230E+02  1.250000000E+02  0.00000E+00  9.000E+00
      25     1     1     2     0     0 -5.581892156E+01 -9.123570434E+01  2.202602084E+02  2.749168331E+02  1.250000000E+02  0.00000E+00  9.000E+00
      21     1     1     2   511   502 -5.662417410E+01 -3.546430720E+00  8.784474132E+01  1.045732893E+02  9.536743164E-07  0.00000E+00  9.000E+00
#rwgt            1           1   3.5874550995833067E-002           9      365790           0
</event>
<event>
      5   9999  3.79277E-02  1.44153E+01 -1.00000E+00  1.79026E-01
      21    -1     0     0   512   501  0.000000000E+00  0.000000000E+00  1.889109402E+02  1.889109402E+02  0.000000000E+00  0.00000E+00  9.000E+00
      21    -1     0     0   501   502  0.000000000E+00  0.000000000E+00 -4.523058519E+02  4.523058519E+02  0.000000000E+00  0.00000E+00  9.000E+00
      25     1     1     2     0     0  6.063677597E+01  1.657091659E+02 -3.191370299E+02  3.854994035E+02  1.250000000E+02  0.00000E+00  9.000E+00
      25     1     1     2     0     0 -6.447280546E+01 -1.518135892E+02  9.378375074E+00  2.071643368E+02  1.250000000E+02  0.00000E+00  9.000E+00
      21     1     1     2   512   502  3.836029494E+00 -1.389557671E+01  4.636374303E+01  4.855305183E+01  1.168007728E-06  0.00000E+00  9.000E+00
#rwgt            1           1   3.4555425278058494E-002           9      366047           0
</event>
<event>
      5   9999  3.79277E-02  4.50298E+01 -1.00000E+00  1.41720E-01
      21    -1     0     0   502   501  0.000000000E+00  0.000000000E+00  4.835171860E+02  4.835171860E+02  0.000000000E+00  0.00000E+00  9.000E+00
      21    -1     0     0   511   502  0.000000000E+00  0.000000000E+00 -2.779865418E+02  2.779865418E+02  0.000000000E+00  0.00000E+00  9.000E+00
      25     1     1     2     0     0 -5.760779267E+01 -2.636345081E+02  2.252430713E+02  3.730700374E+02  1.250000000E+02  0.00000E+00  9.000E+00
      25     1     1     2     0     0  7.105924483E+01  3.066082614E+02  1.512771798E+00  3.386522268E+02  1.250000000E+02  0.00000E+00  9.000E+00
      21     1     1     2   511   501 -1.345145216E+01 -4.297375336E+01 -2.122519892E+01  4.978146354E+01  3.371747881E-07  0.00000E+00  9.000E+00
#rwgt            1           1   4.0462170450329057E-002           9      366240           0
</event>
<event>
      5   9999  3.79277E-02  5.99447E+01 -1.00000E+00  1.34725E-01
      21    -1     0     0   502   501  0.000000000E+00  0.000000000E+00  1.759743179E+02  1.759743179E+02  0.000000000E+00  0.00000E+00  9.000E+00
      21    -1     0     0   501   512  0.000000000E+00  0.000000000E+00 -7.454951815E+02  7.454951815E+02  0.000000000E+00  0.00000E+00  9.000E+00
      25     1     1     2     0     0 -3.606339310E+01 -8.583447887E+01  6.949245259E+01  1.706526503E+02  1.250000000E+02  0.00000E+00  9.000E+00
      25     1     1     2     0     0  4.103837028E+01  1.455724215E+02 -1.235354926E+02  2.318652533E+02  1.250000000E+02  0.00000E+00  9.000E+00
      21     1     1     2   502   512 -4.974977188E+00 -5.973794262E+01 -5.154778235E+02  5.189515958E+02  0.000000000E+00  0.00000E+00  9.000E+00
#rwgt            1           1   3.2490567265318383E-002           9      366329           0
</event>
<event>
      5   9999  3.79277E-02  2.66612E+00 -1.00000E+00  3.13337E-01
      21    -1     0     0   511   501  0.000000000E+00  0.000000000E+00  2.088067025E+02  2.088067025E+02  0.000000000E+00  0.00000E+00  9.000E+00
      21    -1     0     0   501   502  0.000000000E+00  0.000000000E+00 -3.577293289E+02  3.577293289E+02  0.000000000E+00  0.00000E+00  9.000E+00
      25     1     1     2     0     0  1.222218882E+02 -8.239219286E+01  1.165173119E+02  2.256722122E+02  1.250000000E+02  0.00000E+00  9.000E+00
      25     1     1     2     0     0 -1.248237788E+02  8.181052322E+01 -2.715928766E+02  3.341580884E+02  1.250000000E+02  0.00000E+00  9.000E+00
      21     1     1     2   511   502  2.601890639E+00  5.816696445E-01  6.152938339E+00  6.705730734E+00  8.429369702E-08  0.00000E+00  9.000E+00
#rwgt            1           1  0.17666968924694387                9      366386           0
</event>
<event>
      5   9999  3.79277E-02  1.53706E+01 -1.00000E+00  1.76391E-01
      21    -1     0     0   502   501  0.000000000E+00  0.000000000E+00  1.354455984E+02  1.354455984E+02  0.000000000E+00  0.00000E+00  9.000E+00
      21    -1     0     0   512   502  0.000000000E+00  0.000000000E+00 -5.187597306E+02  5.187597306E+02  0.000000000E+00  0.00000E+00  9.000E+00
      25     1     1     2     0     0 -1.610844649E+01 -6.211707155E+01  7.467265294E+01  1.591195077E+02  1.250000000E+02  0.00000E+00  9.000E+00
      25     1     1     2     0     0  2.755230447E+01  7.237827126E+01 -2.784499491E+02  3.148922321E+02  1.250000000E+02  0.00000E+00  9.000E+00
      21     1     1     2   512   501 -1.144385798E+01 -1.026119971E+01 -1.795368361E+02  1.801935893E+02  0.000000000E+00  0.00000E+00  9.000E+00
#rwgt            1           1   4.8133458659839548E-002           9      366964           0
</event>
<event>
      5   9999  3.79277E-02  1.66801E+01 -1.00000E+00  1.73147E-01
      21    -1     0     0   511   501  0.000000000E+00  0.000000000E+00  2.483396907E+02  2.483396907E+02  0.000000000E+00  0.00000E+00  9.000E+00
      21    -1     0     0   501   502  0.000000000E+00  0.000000000E+00 -1.485978511E+02  1.485978511E+02  0.000000000E+00  0.00000E+00  9.000E+00
      25     1     1     2     0     0 -8.626724082E+01 -1.052667633E+02  7.177453021E+01  1.982415483E+02  1.250000000E+02  0.00000E+00  9.000E+00
      25     1     1     2     0     0  8.286670633E+01  8.893700758E+01  1.070122093E+01  1.746888619E+02  1.250000000E+02  0.00000E+00  9.000E+00
      21     1     1     2   511   502  3.400534483E+00  1.632975575E+01  1.726608848E+01  2.400713163E+01  5.331201500E-07  0.00000E+00  9.000E+00
#rwgt            1           1   4.0879694237325459E-002           9      367139           0
</event>
<event>
      5   9999 -3.79277E-02  4.93864E+01 -1.00000E+00  1.39382E-01
      21    -1     0     0   512   501  0.000000000E+00  0.000000000E+00  9.253970665E+02  9.253970665E+02  0.000000000E+00  0.00000E+00  9.000E+00
      21    -1     0     0   501   502  0.000000000E+00  0.000000000E+00 -7.763742656E+01  7.763742656E+01  0.000000000E+00  0.00000E+00  9.000E+00
      25     1     1     2     0     0  5.388167848E+01 -1.602567057E+02  4.778932275E+02  5.221038057E+02  1.250000000E+02  0.00000E+00  9.000E+00
      25     1     1     2     0     0 -5.286054497E+01  2.096325623E+02  2.601676449E+02  3.606275805E+02  1.250000000E+02  0.00000E+00  9.000E+00
      21     1     1     2   512   502 -1.021133518E+00 -4.937585656E+01  1.096987675E+02  1.203031068E+02  1.348699152E-06  0.00000E+00  9.000E+00
#rwgt            1           1  -6.4894202713938462E-002           9      367424           0
</event>
<event>
      5   9999 -3.79277E-02  3.62507E+01 -1.00000E+00  1.47542E-01
      21    -1     0     0   511   501  0.000000000E+00  0.000000000E+00  3.865487792E+02  3.865487792E+02  0.000000000E+00  0.00000E+00  9.000E+00
      21    -1     0     0   501   502  0.000000000E+00  0.000000000E+00 -6.137357538E+02  6.137357538E+02  0.000000000E+00  0.00000E+00  9.000E+00
      25     1     1     2     0     0  1.285508582E+02  1.752601628E+02 -8.311998416E+01  2.641502973E+02  1.250000000E+02  0.00000E+00  9.000E+00
      25     1     1     2     0     0 -1.080294211E+02 -1.453773806E+02 -4.112893679E+02  4.664642353E+02  1.250000000E+02  0.00000E+00  9.000E+00
      21     1     1     2   511   502 -2.052143707E+01 -2.988278222E+01  2.672223775E+02  2.696700003E+02  3.814697266E-06  0.00000E+00  9.000E+00
#rwgt            1           1  -9.1096777973280502E-002           9      367524           0
</event>
<event>
      5   9999  3.79277E-02  4.98257E+01 -1.00000E+00  1.39162E-01
      21    -1     0     0   502   512  0.000000000E+00  0.000000000E+00  2.230956834E+03  2.230956834E+03  0.000000000E+00  0.00000E+00  9.000E+00
      21    -1     0     0   501   502  0.000000000E+00  0.000000000E+00 -2.545484617E+01  2.545484617E+01  0.000000000E+00  0.00000E+00  9.000E+00
      25     1     1     2     0     0  1.704246023E+02  6.554092914E+01  1.168418214E+03  1.189187236E+03  1.250000000E+02  0.00000E+00  9.000E+00
      25     1     1     2     0     0 -1.206079942E+02 -6.649487409E+01  6.234886134E+02  6.506388457E+02  1.250000000E+02  0.00000E+00  9.000E+00
      21     1     1     2   501   512 -4.981660811E+01  9.539449525E-01  4.135951599E+02  4.165855984E+02  5.394796609E-06  0.00000E+00  9.000E+00
#rwgt            1           1  0.13985616862643305                9      367797           0
</event>
<event>
      5   9999  3.79277E-02  3.93314E+01 -1.00000E+00  1.45296E-01
      21    -1     0     0   502   511  0.000000000E+00  0.000000000E+00  2.552330714E+02  2.552330714E+02  0.000000000E+00  0.00000E+00  9.000E+00
      21    -1     0     0   501   502  0.000000000E+00  0.000000000E+00 -2.087208197E+02  2.087208197E+02  0.000000000E+00  0.00000E+00  9.000E+00
      25     1     1     2     0     0  1.047325748E+02  8.468285471E+01  9.065077678E+01  2.048967092E+02  1.250000000E+02  0.00000E+00  9.000E+00
      25     1     1     2     0     0 -1.404515434E+02 -6.821724244E+01 -7.008699465E+01  2.119372903E+02  1.250000000E+02  0.00000E+00  9.000E+00
      21     1     1     2   501   511  3.571896867E+01 -1.646561227E+01  2.594846959E+01  4.711989160E+01  4.768371582E-07  0.00000E+00  9.000E+00
#rwgt            1           1   3.7872712111043927E-002           9      367962           0
</event>
<event>
      5   9999  3.79277E-02  1.36598E+01 -1.00000E+00  1.81301E-01
      21    -1     0     0   512   501  0.000000000E+00  0.000000000E+00  1.493183707E+03  1.493183707E+03  0.000000000E+00  0.00000E+00  9.000E+00
      21    -1     0     0   501   502  0.000000000E+00  0.000000000E+00 -3.045745534E+01  3.045745534E+01  0.000000000E+00  0.00000E+00  9.000E+00
      25     1     1     2     0     0 -1.279754663E+02 -2.633599460E+01  1.097552471E+03  1.112347847E+03  1.250000000E+02  0.00000E+00  9.000E+00
      25     1     1     2     0     0  1.144777178E+02  2.423843463E+01  3.068320227E+02  3.513737892E+02  1.250000000E+02  0.00000E+00  9.000E+00
      21     1     1     2   512   502  1.349774860E+01  2.097559972E+00  5.834175785E+01  5.991952674E+01  0.000000000E+00  0.00000E+00  9.000E+00
#rwgt            1           1   2.6803353412964484E-002           9      368124           0
</event>
<event>
      5   9999  3.79277E-02  9.69575E+01 -1.00000E+00  1.24434E-01
      21    -1     0     0   502   501  0.000000000E+00  0.000000000E+00  4.309744408E+01  4.309744408E+01  0.000000000E+00  0.00000E+00  9.000E+00
       2    -1     0     0   501     0  0.000000000E+00  0.000000000E+00 -1.962972234E+03  1.962972234E+03  0.000000000E+00  0.00000E+00  9.000E+00
      25     1     1     2     0     0  5.190097468E+01 -1.345535545E+02 -3.256746430E+02  3.774749571E+02  1.250000000E+02  0.00000E+00  9.000E+00
      25     1     1     2     0     0  2.613289969E+01  7.700820420E+01 -3.477058666E+02  3.783352504E+02  1.250000000E+02  0.00000E+00  9.000E+00
       2     1     1     2   502     0 -7.803387437E+01  5.754535032E+01 -1.246494280E+03  1.250259470E+03  2.157918644E-05  0.00000E+00  9.000E+00
#rwgt            2          13   5.2090658054563567E-004           9      368409           0
</event>
<event>
      5   9999  3.79277E-02  1.20504E+02 -1.00000E+00  1.20291E-01
      21    -1     0     0   502   511  0.000000000E+00  0.000000000E+00  7.223133430E+02  7.223133430E+02  0.000000000E+00  0.00000E+00  9.000E+00
      21    -1     0     0   501   502  0.000000000E+00  0.000000000E+00 -3.056544622E+02  3.056544622E+02  0.000000000E+00  0.00000E+00  9.000E+00
      25     1     1     2     0     0 -5.731254837E+01 -1.617190578E+02  2.493526791E+00  2.122946055E+02  1.250000000E+02  0.00000E+00  9.000E+00
      25     1     1     2     0     0 -6.316519900E+01  1.592134182E+02 -1.363645781E+02  2.521092086E+02  1.250000000E+02  0.00000E+00  9.000E+00
      21     1     1     2   501   511  1.204777474E+02  2.505639617E+00  5.505299321E+02  5.635639910E+02  1.078959322E-05  0.00000E+00  9.000E+00
#rwgt            1           1   4.4884444206492083E-002           9      368533           0
</event>
<event>
      5   9999  3.79277E-02  2.06473E+01 -1.00000E+00  1.65236E-01
       2    -1     0     0   502     0  0.000000000E+00  0.000000000E+00  5.421360343E+02  5.421360343E+02  0.000000000E+00  0.00000E+00  9.000E+00
      21    -1     0     0   501   502  0.000000000E+00  0.000000000E+00 -9.674113230E+01  9.674113230E+01  0.000000000E+00  0.00000E+00  9.000E+00
      25     1     1     2     0     0 -1.041333884E+02  1.234641831E+01  2.776700795E+02  3.220587984E+02  1.250000000E+02  0.00000E+00  9.000E+00
      25     1     1     2     0     0  1.030247134E+02  8.271096073E+00  1.520464477E+01  1.629069791E+02  1.250000000E+02  0.00000E+00  9.000E+00
       2     1     1     2   501     0  1.108674991E+00 -2.061751439E+01  1.525201778E+02  1.539113891E+02  1.907348633E-06  0.00000E+00  9.000E+00
#rwgt            1           1   3.9008148164798702E-002           9      368643           0
</event>
<event>
      5   9999  3.79277E-02  3.48412E+01 -1.00000E+00  1.48660E-01
      21    -1     0     0   502   501  0.000000000E+00  0.000000000E+00  1.245368641E+03  1.245368641E+03  0.000000000E+00  0.00000E+00  9.000E+00
      21    -1     0     0   501   511  0.000000000E+00  0.000000000E+00 -5.367600539E+01  5.367600539E+01  0.000000000E+00  0.00000E+00  9.000E+00
      25     1     1     2     0     0  3.879594888E+01  4.448606906E+01  1.098982673E+03  1.107642565E+03  1.250000000E+02  0.00000E+00  9.000E+00
      25     1     1     2     0     0 -1.299410045E+01 -2.107291805E+01  5.151017765E+01  1.374453088E+02  1.250000000E+02  0.00000E+00  9.000E+00
      21     1     1     2   502   511 -2.580184843E+01 -2.341315101E+01  4.119978443E+01  5.395677214E+01  8.259061849E-07  0.00000E+00  9.000E+00
#rwgt            1           1   1.5705127313793331E-002           9      368829           0
</event>
<event>
      5   9999  3.79277E-02  1.11756E+01 -1.00000E+00  1.90338E-01
      21    -1     0     0   512   501  0.000000000E+00  0.000000000E+00  1.026413649E+02  1.026413649E+02  0.000000000E+00  0.00000E+00  9.000E+00
      21    -1     0     0   501   502  0.000000000E+00  0.000000000E+00 -3.605682360E+02  3.605682360E+02  0.000000000E+00  0.00000E+00  9.000E+00
      25     1     1     2     0     0  8.291999321E+01 -9.749960081E+01 -1.571591476E+02  2.381299962E+02  1.250000000E+02  0.00000E+00  9.000E+00
      25     1     1     2     0     0 -7.611606483E+01  1.063653481E+02 -1.089826293E+02  2.112095076E+02  1.250000000E+02  0.00000E+00  9.000E+00
      21     1     1     2   512   502 -6.803928387E+00 -8.865747305E+00  8.214905707E+00  1.387009706E+01  2.665600750E-07  0.00000E+00  9.000E+00
#rwgt            1           1   3.7222922539864978E-002           9      368956           0
</event>
<event>
      5   9999  3.79277E-02  7.66854E+01 -1.00000E+00  1.29245E-01
      21    -1     0     0   502   511  0.000000000E+00  0.000000000E+00  1.596945401E+03  1.596945401E+03  0.000000000E+00  0.00000E+00  9.000E+00
      21    -1     0     0   501   502  0.000000000E+00  0.000000000E+00 -5.704793644E+01  5.704793644E+01  0.000000000E+00  0.00000E+00  9.000E+00
      25     1     1     2     0     0  1.841259770E+02  1.831984810E+02  6.023509230E+02  6.677691916E+02  1.250000000E+02  0.00000E+00  9.000E+00
      25     1     1     2     0     0 -1.384393616E+02 -1.216080436E+02  5.975612069E+02  6.376977098E+02  1.250000000E+02  0.00000E+00  9.000E+00
      21     1     1     2   501   511 -4.568661544E+01 -6.159043742E+01  3.399853343E+02  3.485264356E+02  3.814697266E-06  0.00000E+00  9.000E+00
#rwgt            2          11   1.9863210024627822E-003           9      369211           0
</event>
<event>
      5   9999  3.79277E-02  7.86938E+01 -1.00000E+00  1.28696E-01
      21    -1     0     0   502   501  0.000000000E+00  0.000000000E+00  2.411742017E+02  2.411742017E+02  0.000000000E+00  0.00000E+00  9.000E+00
      21    -1     0     0   512   502  0.000000000E+00  0.000000000E+00 -2.440449470E+02  2.440449470E+02  0.000000000E+00  0.00000E+00  9.000E+00
      25     1     1     2     0     0 -1.147179761E+02  9.032057218E+01  4.355235988E+01  1.970782277E+02  1.250000000E+02  0.00000E+00  9.000E+00
      25     1     1     2     0     0  1.408838391E+02 -1.610421591E+01  1.308081321E+01  1.894827422E+02  1.250000000E+02  0.00000E+00  9.000E+00
      21     1     1     2   512   501 -2.616586304E+01 -7.421635627E+01 -5.950391841E+01  9.865817874E+01  1.168007728E-06  0.00000E+00  9.000E+00
#rwgt            1           1   4.0272438846130909E-002           9      369291           0
</event>
<event>
      5   9999  3.79277E-02  2.51748E+01 -1.00000E+00  1.58525E-01
      21    -1     0     0   502   511  0.000000000E+00  0.000000000E+00  1.512362120E+02  1.512362120E+02  0.000000000E+00  0.00000E+00  9.000E+00
      21    -1     0     0   501   502  0.000000000E+00  0.000000000E+00 -6.469579801E+02  6.469579801E+02  0.000000000E+00  0.00000E+00  9.000E+00
      25     1     1     2     0     0 -2.218029593E+02 -3.819826221E+01 -1.315577418E+02  2.891160657E+02  1.250000000E+02  0.00000E+00  9.000E+00
      25     1     1     2     0     0  2.154578469E+02  1.383616571E+01 -3.962809962E+02  4.682703826E+02  1.250000000E+02  0.00000E+00  9.000E+00
      21     1     1     2   501   511  6.345112425E+00  2.436209650E+01  3.211696991E+01  4.080774379E+01  6.743495762E-07  0.00000E+00  9.000E+00
#rwgt            1           1   3.5267775244902877E-002           9      369381           0
</event>
<event>
      5   9999  3.79277E-02  1.50181E+02 -1.00000E+00  1.16373E-01
       2    -1     0     0   502     0  0.000000000E+00  0.000000000E+00  7.944285555E+02  7.944285555E+02  0.000000000E+00  0.00000E+00  9.000E+00
      21    -1     0     0   501   502  0.000000000E+00  0.000000000E+00 -3.351271864E+02  3.351271864E+02  0.000000000E+00  0.00000E+00  9.000E+00
      25     1     1     2     0     0  1.613188422E+02  5.144965749E+01  1.738687716E+02  2.729948458E+02  1.250000000E+02  0.00000E+00  9.000E+00
      25     1     1     2     0     0 -1.290646559E+01 -7.443150290E+01 -2.559741446E+02  2.947106855E+02  1.250000000E+02  0.00000E+00  9.000E+00
       2     1     1     2   501     0 -1.484123766E+02  2.298184541E+01  5.414067421E+02  5.618502106E+02  7.629394531E-06  0.00000E+00  9.000E+00
#rwgt            1           1   3.6510676320453218E-002           9      369665           0
</event>
<event>
      5   9999  3.79277E-02  6.77559E+01 -1.00000E+00  1.31941E-01
      21    -1     0     0   502   511  0.000000000E+00  0.000000000E+00  8.828102282E+02  8.828102282E+02  0.000000000E+00  0.00000E+00  9.000E+00
      21    -1     0     0   501   502  0.000000000E+00  0.000000000E+00 -4.164265776E+02  4.164265776E+02  0.000000000E+00  0.00000E+00  9.000E+00
      25     1     1     2     0     0  9.871555702E+01  5.462695444E+01 -3.285276177E+02  3.691669825E+02  1.250000000E+02  0.00000E+00  9.000E+00
      25     1     1     2     0     0 -9.200314782E+01  1.279566026E+01  2.565305201E+01  1.578334160E+02  1.250000000E+02  0.00000E+00  9.000E+00
      21     1     1     2   501   511 -6.712409193E+00 -6.742261469E+01  7.692582163E+02  7.722364073E+02  1.078959322E-05  0.00000E+00  9.000E+00
#rwgt            1           1   4.4507871531988777E-002           9      369766           0
</event>
<event>
      5   9999  3.79277E-02  4.88340E+01 -1.00000E+00  1.39663E-01
      21    -1     0     0   502   501  0.000000000E+00  0.000000000E+00  2.749909023E+02  2.749909023E+02  0.000000000E+00  0.00000E+00  9.000E+00
       1    -1     0     0   501     0  0.000000000E+00  0.000000000E+00 -1.562336849E+03  1.562336849E+03  0.000000000E+00  0.00000E+00  9.000E+00
      25     1     1     2     0     0  8.696403160E+01 -2.183089522E+02  1.347936228E+02  2.983552616E+02  1.250000000E+02  0.00000E+00  9.000E+00
      25     1     1     2     0     0 -1.353856250E+02  2.119757122E+02 -2.827667991E+02  3.985536760E+02  1.250000000E+02  0.00000E+00  9.000E+00
       1     1     1     2   502     0  4.842159335E+01  6.333239940E+00 -1.139372771E+03  1.140418814E+03  0.000000000E+00  0.00000E+00  9.000E+00
#rwgt            1           1   3.9421400442171205E-002           9      370022           0
</event>
<event>
      5   9999  3.79277E-02  1.12072E+02 -1.00000E+00  1.21642E-01
      -2    -1     0     0     0   501  0.000000000E+00  0.000000000E+00  1.265583097E+03  1.265583097E+03  0.000000000E+00  0.00000E+00  9.000E+00
      21    -1     0     0   501   502  0.000000000E+00  0.000000000E+00 -1.781808704E+02  1.781808704E+02  0.000000000E+00  0.00000E+00  9.000E+00
      25     1     1     2     0     0  1.114630747E+02 -2.484987385E+02  2.665663112E+02  4.010713631E+02  1.250000000E+02  0.00000E+00  9.000E+00
      25     1     1     2     0     0 -1.548947301E+02  1.451846780E+02  3.492216687E+01  2.488283060E+02  1.250000000E+02  0.00000E+00  9.000E+00
      -2     1     1     2     0   502  4.343165543E+01  1.033140605E+02  7.859137487E+02  7.938642984E+02  1.078959322E-05  0.00000E+00  9.000E+00
#rwgt            1           1   3.3117857524011834E-002           9      370219           0
</event>
<event>
      5   9999  3.79277E-02  1.38533E+02 -1.00000E+00  1.17779E-01
      21    -1     0     0   502   501  0.000000000E+00  0.000000000E+00  1.491616054E+03  1.491616054E+03  0.000000000E+00  0.00000E+00  9.000E+00
      21    -1     0     0   511   502  0.000000000E+00  0.000000000E+00 -7.663120940E+01  7.663120940E+01  0.000000000E+00  0.00000E+00  9.000E+00
      25     1     1     2     0     0  6.324099807E+01 -6.901145156E+01  1.043428772E+03  1.055050049E+03  1.250000000E+02  0.00000E+00  9.000E+00
      25     1     1     2     0     0 -1.321830473E+02 -5.114872460E+01  1.138751596E+02  2.206379432E+02  1.250000000E+02  0.00000E+00  9.000E+00
      21     1     1     2   511   501  6.894204919E+01  1.201601762E+02  2.576809134E+02  2.925592713E+02  6.607249480E-06  0.00000E+00  9.000E+00
#rwgt            1           1   6.1347309302858102E-002           9      370274           0
</event>
<event>
      5   9999  3.79277E-02  1.54313E+02 -1.00000E+00  1.15908E-01
      21    -1     0     0   502   501  0.000000000E+00  0.000000000E+00  6.414291387E+02  6.414291387E+02  0.000000000E+00  0.00000E+00  9.000E+00
      21    -1     0     0   501   512  0.000000000E+00  0.000000000E+00 -1.681954946E+02  1.681954946E+02  0.000000000E+00  0.00000E+00  9.000E+00
      25     1     1     2     0     0 -9.775621577E+01 -1.840973639E+02  3.482446716E+02  4.246733667E+02  1.250000000E+02  0.00000E+00  9.000E+00
      25     1     1     2     0     0  1.565285289E+02  4.141527900E+01  1.031918024E+02  2.291068610E+02  1.250000000E+02  0.00000E+00  9.000E+00
      21     1     1     2   502   512 -5.877231314E+01  1.426820849E+02  2.179717009E+01  1.558444056E+02  3.153981341E-06  0.00000E+00  9.000E+00
#rwgt            2          11   2.4421449410132498E-003           9      370462           0
</event>
<event>
      5   9999  3.79277E-02  1.20300E+01 -1.00000E+00  1.86914E-01
      21    -1     0     0   502   511  0.000000000E+00  0.000000000E+00  4.414934130E+01  4.414934130E+01  0.000000000E+00  0.00000E+00  9.000E+00
      21    -1     0     0   501   502  0.000000000E+00  0.000000000E+00 -1.013689315E+03  1.013689315E+03  0.000000000E+00  0.00000E+00  9.000E+00
      25     1     1     2     0     0  1.419861914E+02 -6.160399928E+01 -6.449149741E+02  6.749040340E+02  1.250000000E+02  0.00000E+00  9.000E+00
      25     1     1     2     0     0 -1.300447024E+02  6.306093508E+01 -3.060202763E+02  3.607793171E+02  1.250000000E+02  0.00000E+00  9.000E+00
      21     1     1     2   501   511 -1.194148895E+01 -1.456935802E+00 -1.860472345E+01  2.215530535E+01  0.000000000E+00  0.00000E+00  9.000E+00
#rwgt            1           1   3.2146573142939699E-002           9      370557           0
</event>
<event>
      5   9999  3.79277E-02  3.55751E+01 -1.00000E+00  1.48070E-01
      21    -1     0     0   502   501  0.000000000E+00  0.000000000E+00  1.671293603E+03  1.671293603E+03  0.000000000E+00  0.00000E+00  9.000E+00
      21    -1     0     0   501   512  0.000000000E+00  0.000000000E+00 -3.081734441E+02  3.081734441E+02  0.000000000E+00  0.00000E+00  9.000E+00
      25     1     1     2     0     0 -9.810200270E+01  4.618266983E+01  4.588875425E+02  4.878110480E+02  1.250000000E+02  0.00000E+00  9.000E+00
      25     1     1     2     0     0  9.077632429E+01 -8.099532756E+01  1.190487865E+03  1.203198629E+03  1.250000000E+02  0.00000E+00  9.000E+00
      21     1     1     2   502   512  7.325678406E+00  3.481265773E+01 -2.862552488E+02  2.884573698E+02  6.607249480E-06  0.00000E+00  9.000E+00
#rwgt            1           1   3.4666326044809154E-002           9      370863           0
</event>
<event>
      5   9999  3.79277E-02  6.90477E+01 -1.00000E+00  1.31523E-01
      21    -1     0     0   511   501  0.000000000E+00  0.000000000E+00  1.771259545E+03  1.771259545E+03  0.000000000E+00  0.00000E+00  9.000E+00
      21    -1     0     0   501   502  0.000000000E+00  0.000000000E+00 -4.713358660E+01  4.713358660E+01  0.000000000E+00  0.00000E+00  9.000E+00
      25     1     1     2     0     0  1.410134599E+02  5.632279517E+01  9.888161802E+02  1.008186238E+03  1.250000000E+02  0.00000E+00  9.000E+00
      25     1     1     2     0     0 -7.327931441E+01 -4.291847835E+01  1.253183856E+02  1.963200231E+02  1.250000000E+02  0.00000E+00  9.000E+00
      21     1     1     2   511   502 -6.773414553E+01 -1.340431682E+01  6.099913931E+02  6.138868705E+02  7.629394531E-06  0.00000E+00  9.000E+00
#rwgt            1           1  0.19934205361952015                9      371110           0
</event>
<event>
      5   9999  3.79277E-02  3.72100E+01 -1.00000E+00  1.46815E-01
      21    -1     0     0   502   501  0.000000000E+00  0.000000000E+00  2.112956203E+02  2.112956203E+02  0.000000000E+00  0.00000E+00  9.000E+00
      21    -1     0     0   501   512  0.000000000E+00  0.000000000E+00 -2.843097770E+02  2.843097770E+02  0.000000000E+00  0.00000E+00  9.000E+00
      25     1     1     2     0     0  7.072483477E+00  4.794092779E+01  1.471239067E+02  1.990447098E+02  1.250000000E+02  0.00000E+00  9.000E+00
      25     1     1     2     0     0  2.450737353E+01 -2.826106792E+01 -8.340982112E+01  1.548596060E+02  1.250000000E+02  0.00000E+00  9.000E+00
      21     1     1     2   502   512 -3.157985701E+01 -1.967985986E+01 -1.367282423E+02  1.417010815E+02  1.907348633E-06  0.00000E+00  9.000E+00
#rwgt            1           1   3.9504534427299523E-002           9      371190           0
</event>
<event>
      5   9999  3.79277E-02  6.92349E+01 -1.00000E+00  1.31463E-01
      21    -1     0     0   502   501  0.000000000E+00  0.000000000E+00  4.898218480E+02  4.898218480E+02  0.000000000E+00  0.00000E+00  9.000E+00
      21    -1     0     0   501   511  0.000000000E+00  0.000000000E+00 -1.201378101E+02  1.201378101E+02  0.000000000E+00  0.00000E+00  9.000E+00
      25     1     1     2     0     0 -6.082657786E+01  1.602644915E+01  1.199127128E+02  1.842845038E+02  1.250000000E+02  0.00000E+00  9.000E+00
      25     1     1     2     0     0  1.299836673E+02 -1.274534117E+01  2.928317787E+02  3.441419011E+02  1.250000000E+02  0.00000E+00  9.000E+00
      21     1     1     2   502   511 -6.915708947E+01 -3.281107982E+00 -4.306045369E+01  8.153325313E+01  1.168007728E-06  0.00000E+00  9.000E+00
#rwgt            1           1   2.5898508758427783E-002           9      371318           0
</event>
<event>
      5   9999  3.79277E-02  2.09812E+01 -1.00000E+00  1.64671E-01
      21    -1     0     0   502   501  0.000000000E+00  0.000000000E+00  1.528034098E+02  1.528034098E+02  0.000000000E+00  0.00000E+00  9.000E+00
      21    -1     0     0   512   502  0.000000000E+00  0.000000000E+00 -3.447684681E+02  3.447684681E+02  0.000000000E+00  0.00000E+00  9.000E+00
      25     1     1     2     0     0 -1.338727494E+02 -1.909884890E+01  2.667060549E+01  1.860725672E+02  1.250000000E+02  0.00000E+00  9.000E+00
      25     1     1     2     0     0  1.527899126E+02  2.817368622E+01 -1.859264362E+02  2.726392372E+02  1.250000000E+02  0.00000E+00  9.000E+00
      21     1     1     2   512   501 -1.891716324E+01 -9.074837320E+00 -3.270922762E+01  3.886007346E+01  6.743495762E-07  0.00000E+00  9.000E+00
#rwgt            1           1   9.0945973288280982E-002           9      371487           0
</event>
<event>
      5   9999  3.79277E-02  2.69484E+01 -1.00000E+00  1.56348E-01
      21    -1     0     0   502   511  0.000000000E+00  0.000000000E+00  3.241976456E+01  3.241976456E+01  0.000000000E+00  0.00000E+00  9.000E+00
      21    -1     0     0   501   502  0.000000000E+00  0.000000000E+00 -1.825253692E+03  1.825253692E+03  0.000000000E+00  0.00000E+00  9.000E+00
      25     1     1     2     0     0  9.808168692E+01  6.995984330E+01 -1.256758357E+03  1.268692620E+03  1.250000000E+02  0.00000E+00  9.000E+00
      25     1     1     2     0     0 -7.305276628E+01 -5.997147014E+01 -5.395150849E+02  5.618138577E+02  1.250000000E+02  0.00000E+00  9.000E+00
      21     1     1     2   501   511 -2.502892064E+01 -9.988373153E+00  3.439514374E+00  2.716697859E+01  1.705776217E-06  0.00000E+00  9.000E+00
#rwgt            1           1  0.15240250490058868                9      371655           0
</event>
<event>
      5   9999  3.79277E-02  6.62572E+01 -1.00000E+00  1.32441E-01
      21    -1     0     0   512   501  0.000000000E+00  0.000000000E+00  5.891295868E+02  5.891295868E+02  0.000000000E+00  0.00000E+00  9.000E+00
      21    -1     0     0   501   502  0.000000000E+00  0.000000000E+00 -1.384587410E+02  1.384587410E+02  0.000000000E+00  0.00000E+00  9.000E+00
      25     1     1     2     0     0 -1.152222340E+02  7.366085915E+01  2.602717957E+02  3.194816004E+02  1.250000000E+02  0.00000E+00  9.000E+00
      25     1     1     2     0     0  1.689130752E+02 -1.124850220E+02  3.725148601E+01  2.412409177E+02  1.250000000E+02  0.00000E+00  9.000E+00
      21     1     1     2   512   502 -5.369084117E+01  3.882416288E+01  1.531475642E+02  1.668658097E+02  2.697398305E-06  0.00000E+00  9.000E+00
#rwgt            1           1   2.8221690852309786E-002           9      371858           0
</event>
<event>
      5   9999  3.79277E-02  2.71877E+01 -1.00000E+00  1.56070E-01
      21    -1     0     0   502   501  0.000000000E+00  0.000000000E+00  4.540383065E+02  4.540383065E+02  0.000000000E+00  0.00000E+00  9.000E+00
       2    -1     0     0   501     0  0.000000000E+00  0.000000000E+00 -2.511004177E+03  2.511004177E+03  0.000000000E+00  0.00000E+00  9.000E+00
      25     1     1     2     0     0 -2.040807338E+02  2.627038402E+02  2.609456022E+02  4.408853149E+02  1.250000000E+02  0.00000E+00  9.000E+00
      25     1     1     2     0     0  1.821398864E+02 -2.787590724E+02 -2.039137091E+02  4.099845843E+02  1.250000000E+02  0.00000E+00  9.000E+00
       2     1     1     2   502     0  2.194084741E+01  1.605523217E+01 -2.113997764E+03  2.114172584E+03  3.051757812E-05  0.00000E+00  9.000E+00
#rwgt            2          13   2.0473374171484475E-003           9      371947           0
</event>
<event>
      5   9999  3.79277E-02  3.19950E+01 -1.00000E+00  1.51123E-01
      21    -1     0     0   502   501  0.000000000E+00  0.000000000E+00  1.631691198E+02  1.631691198E+02  0.000000000E+00  0.00000E+00  9.000E+00
      21    -1     0     0   501   511  0.000000000E+00  0.000000000E+00 -2.389976499E+02  2.389976499E+02  0.000000000E+00  0.00000E+00  9.000E+00
      25     1     1     2     0     0 -7.106996885E+01 -6.537092340E+01 -1.261924621E+02  2.021727864E+02  1.250000000E+02  0.00000E+00  9.000E+00
      25     1     1     2     0     0  6.449445140E+01  3.405890511E+01  7.172758485E+01  1.615221028E+02  1.250000000E+02  0.00000E+00  9.000E+00
      21     1     1     2   502   511  6.575517451E+00  3.131201829E+01 -2.136365288E+01  3.847188043E+01  4.129530925E-07  0.00000E+00  9.000E+00
#rwgt            1           1   3.1317686484221209E-002           9      371996           0
</event>
<event>
      5   9999  3.79277E-02  9.28113E+01 -1.00000E+00  1.25303E-01
      21    -1     0     0   502   501  0.000000000E+00  0.000000000E+00  1.066012250E+03  1.066012250E+03  0.000000000E+00  0.00000E+00  9.000E+00
      21    -1     0     0   512   502  0.000000000E+00  0.000000000E+00 -3.009051266E+02  3.009051266E+02  0.000000000E+00  0.00000E+00  9.000E+00
      25     1     1     2     0     0 -1.014267915E+02 -1.382065105E+02  1.251151224E+02  2.463071810E+02  1.250000000E+02  0.00000E+00  9.000E+00
      25     1     1     2     0     0  1.149104089E+01  1.152829042E+02  8.626805819E+02  8.793548649E+02  1.250000000E+02  0.00000E+00  9.000E+00
      21     1     1     2   512   501  8.993575065E+01  2.292360632E+01 -2.226885804E+02  2.412553312E+02  3.814697266E-06  0.00000E+00  9.000E+00
#rwgt            1           1   4.2031091518871244E-002           9      372145           0
</event>
<event>
      5   9999 -3.79277E-02  2.38599E+01 -1.00000E+00  1.60284E-01
      21    -1     0     0   502   501  0.000000000E+00  0.000000000E+00  9.156572524E+02  9.156572524E+02  0.000000000E+00  0.00000E+00  9.000E+00
       2    -1     0     0   501     0  0.000000000E+00  0.000000000E+00 -2.070367661E+02  2.070367661E+02  0.000000000E+00  0.00000E+00  9.000E+00
      25     1     1     2     0     0  9.520206344E+01 -2.477462379E+02  4.228386923E+02  5.146447231E+02  1.250000000E+02  0.00000E+00  9.000E+00
      25     1     1     2     0     0 -1.005139846E+02  2.244851908E+02  4.030173839E+02  4.884103538E+02  1.250000000E+02  0.00000E+00  9.000E+00
       2     1     1     2   502     0  5.311921209E+00  2.326104714E+01 -1.172355898E+02  1.196389416E+02  2.336015456E-06  0.00000E+00  9.000E+00
#rwgt            1           1  -3.2066989035664337E-002           9      372237           0
</event>
<event>
      5   9999  3.79277E-02  1.83370E+02 -1.00000E+00  1.13038E-01
      21    -1     0     0   502   501  0.000000000E+00  0.000000000E+00  8.653778114E+01  8.653778114E+01  0.000000000E+00  0.00000E+00  9.000E+00
      21    -1     0     0   511   502  0.000000000E+00  0.000000000E+00 -9.825495401E+02  9.825495401E+02  0.000000000E+00  0.00000E+00  9.000E+00
      25     1     1     2     0     0 -5.376074484E+01 -1.479094413E+01 -1.513459032E+02  2.040577666E+02  1.250000000E+02  0.00000E+00  9.000E+00
      25     1     1     2     0     0  1.348842023E+02  1.792400977E+02 -4.340986919E+02  5.043683524E+02  1.250000000E+02  0.00000E+00  9.000E+00
      21     1     1     2   511   501 -8.112345747E+01 -1.644491536E+02 -3.105671639E+02  3.606612021E+02  5.394796609E-06  0.00000E+00  9.000E+00
#rwgt            1           1   2.9335149304861842E-002           9      372477           0
</event>
<event>
      5   9999  3.79277E-02  4.23672E+01 -1.00000E+00  1.43308E-01
      21    -1     0     0   502   512  0.000000000E+00  0.000000000E+00  8.344078262E+01  8.344078262E+01  0.000000000E+00  0.00000E+00  9.000E+00
      21    -1     0     0   501   502  0.000000000E+00  0.000000000E+00 -5.580050089E+02  5.580050089E+02  0.000000000E+00  0.00000E+00  9.000E+00
      25     1     1     2     0     0 -1.222826741E+02  7.937839254E+00 -2.833971111E+02  3.330990607E+02  1.250000000E+02  0.00000E+00  9.000E+00
      25     1     1     2     0     0  1.540725662E+02  2.006896448E+01 -1.534064623E+02  2.515942401E+02  1.250000000E+02  0.00000E+00  9.000E+00
      21     1     1     2   501   512 -3.178989204E+01 -2.800680374E+01 -3.776065285E+01  5.675249065E+01  1.168007728E-06  0.00000E+00  9.000E+00
#rwgt            1           1   3.9523427280970247E-002           9      372513           0
</event>
<event>
      5   9999  3.79277E-02  7.73172E+01 -1.00000E+00  1.29071E-01
      21    -1     0     0   502   501  0.000000000E+00  0.000000000E+00  8.156831107E+02  8.156831107E+02  0.000000000E+00  0.00000E+00  9.000E+00
      21    -1     0     0   511   502  0.000000000E+00  0.000000000E+00 -6.259593354E+01  6.259593354E+01  0.000000000E+00  0.00000E+00  9.000E+00
      25     1     1     2     0     0  3.965839528E+01 -2.585866912E+01  7.691136555E+01  1.542135443E+02  1.250000000E+02  0.00000E+00  9.000E+00
      25     1     1     2     0     0 -8.960979189E+01 -3.315663286E+01  5.783815811E+02  5.993993080E+02  1.250000000E+02  0.00000E+00  9.000E+00
      21     1     1     2   511   501  4.995139661E+01  5.901530199E+01  9.779423051E+01  1.246661919E+02  0.000000000E+00  0.00000E+00  9.000E+00
#rwgt            1           1   3.9487273191024776E-002           9      372615           0
</event>
<event>
      5   9999  3.79277E-02  9.48669E+01 -1.00000E+00  1.24866E-01
      21    -1     0     0   502   501  0.000000000E+00  0.000000000E+00  4.138603407E+02  4.138603407E+02  0.000000000E+00  0.00000E+00  9.000E+00
      21    -1     0     0   501   512  0.000000000E+00  0.000000000E+00 -1.844701345E+02  1.844701345E+02  0.000000000E+00  0.00000E+00  9.000E+00
      25     1     1     2     0     0 -1.662054015E+01  2.016967056E+02  1.090873352E+02  2.616922813E+02  1.250000000E+02  0.00000E+00  9.000E+00
      25     1     1     2     0     0  1.112930964E+01 -1.069888158E+02  1.636572093E+02  2.323341353E+02  1.250000000E+02  0.00000E+00  9.000E+00
      21     1     1     2   502   512  5.491230513E+00 -9.470788976E+01 -4.335433824E+01  1.043040586E+02  3.371747881E-06  0.00000E+00  9.000E+00
#rwgt            1           1   4.3716042910607662E-002           9      372749           0
</event>
<event>
      5   9999  3.79277E-02  7.97016E+01 -1.00000E+00  1.28428E-01
      21    -1     0     0   502   501  0.000000000E+00  0.000000000E+00  3.320403436E+02  3.320403436E+02  0.000000000E+00  0.00000E+00  9.000E+00
      21    -1     0     0   511   502  0.000000000E+00  0.000000000E+00 -6.138192497E+02  6.138192497E+02  0.000000000E+00  0.00000E+00  9.000E+00
      25     1     1     2     0     0  1.827436002E+01 -1.108835037E+02  2.416961995E+01  1.698183564E+02  1.250000000E+02  0.00000E+00  9.000E+00
      25     1     1     2     0     0  6.102626900E+01  1.028992277E+02  1.996539844E+02  2.641953256E+02  1.250000000E+02  0.00000E+00  9.000E+00
      21     1     1     2   511   501 -7.930062901E+01  7.984275990E+00 -5.056025104E+02  5.118459113E+02  5.394796609E-06  0.00000E+00  9.000E+00
#rwgt            1           1   4.0018059394139709E-002           9      372952           0
</event>
<event>
      5   9999  3.79277E-02  3.22414E+00 -1.00000E+00  2.87685E-01
      21    -1     0     0   502   501  0.000000000E+00  0.000000000E+00  6.739157963E+02  6.739157963E+02  0.000000000E+00  0.00000E+00  9.000E+00
      21    -1     0     0   501   512  0.000000000E+00  0.000000000E+00 -3.722395405E+01  3.722395405E+01  0.000000000E+00  0.00000E+00  9.000E+00
      25     1     1     2     0     0  4.301300552E+01 -8.089521803E+01  3.380099284E+02  3.718465633E+02  1.250000000E+02  0.00000E+00  9.000E+00
      25     1     1     2     0     0 -4.444453132E+01  8.378412498E+01  2.963102428E+02  3.352907037E+02  1.250000000E+02  0.00000E+00  9.000E+00
      21     1     1     2   502   512  1.431525801E+00 -2.888906954E+00  2.371670959E+00  4.002483310E+00  7.300048300E-08  0.00000E+00  9.000E+00
#rwgt            1           1   3.2782406593447520E-002           9      373040           0
</event>
<event>
      5   9999  3.79277E-02  1.69334E+01 -1.00000E+00  1.72563E-01
      21    -1     0     0   511   501  0.000000000E+00  0.000000000E+00  6.932628358E+01  6.932628358E+01  0.000000000E+00  0.00000E+00  9.000E+00
      21    -1     0     0   501   502  0.000000000E+00  0.000000000E+00 -6.710778979E+02  6.710778979E+02  0.000000000E+00  0.00000E+00  9.000E+00
      25     1     1     2     0     0  9.071230831E+01 -1.076657624E+02 -4.069505827E+02  4.483909187E+02  1.250000000E+02  0.00000E+00  9.000E+00
      25     1     1     2     0     0 -1.027862822E+02  9.579315847E+01 -1.997740293E+02  2.743647423E+02  1.250000000E+02  0.00000E+00  9.000E+00
      21     1     1     2   511   502  1.207397389E+01  1.187260393E+01  4.972997650E+00  1.764852048E+01  5.196212463E-07  0.00000E+00  9.000E+00
#rwgt            1           1   4.2445910936572032E-002           9      373481           0
</event>
<event>
      5   9999  3.79277E-02  6.52240E+01 -1.00000E+00  1.32794E-01
      21    -1     0     0   502   512  0.000000000E+00  0.000000000E+00  5.651571743E+02  5.651571743E+02  0.000000000E+00  0.00000E+00  9.000E+00
      21    -1     0     0   501   502  0.000000000E+00  0.000000000E+00 -1.569740449E+02  1.569740449E+02  0.000000000E+00  0.00000E+00  9.000E+00
      25     1     1     2     0     0  4.423281503E+01 -1.932563813E+02  1.447843093E+02  2.754851485E+02  1.250000000E+02  0.00000E+00  9.000E+00
      25     1     1     2     0     0 -1.093768811E+02  1.900274147E+02  1.013711677E+02  2.719831504E+02  1.250000000E+02  0.00000E+00  9.000E+00
      21     1     1     2   501   512  6.514406606E+01  3.228966592E+00  1.620276523E+02  1.746629202E+02  0.000000000E+00  0.00000E+00  9.000E+00
#rwgt            1           1   3.7675507336800522E-002           9      373599           0
</event>
<event>
      5   9999  3.79277E-02  7.90234E+01 -1.00000E+00  1.28608E-01
       2    -1     0     0   502     0  0.000000000E+00  0.000000000E+00  1.198250053E+03  1.198250053E+03  0.000000000E+00  0.00000E+00  9.000E+00
      21    -1     0     0   501   502  0.000000000E+00  0.000000000E+00 -1.185115205E+02  1.185115205E+02  0.000000000E+00  0.00000E+00  9.000E+00
      25     1     1     2     0     0 -8.411870121E+01 -1.541836060E+02  1.541920900E+02  2.650447903E+02  1.250000000E+02  0.00000E+00  9.000E+00
      25     1     1     2     0     0  4.595939422E+01  8.498413979E+01  4.042654567E+01  1.630762874E+02  1.250000000E+02  0.00000E+00  9.000E+00
       2     1     1     2   501     0  3.815930699E+01  6.919946621E+01  8.851198964E+02  8.886404953E+02  1.078959322E-05  0.00000E+00  9.000E+00
#rwgt            1           1   6.2109070071363279E-002           9      373713           0
</event>
<event>
      5   9999  3.79277E-02  5.11787E+01 -1.00000E+00  1.38501E-01
       2    -1     0     0   502     0  0.000000000E+00  0.000000000E+00  2.508947981E+03  2.508947981E+03  0.000000000E+00  0.00000E+00  9.000E+00
      21    -1     0     0   501   502  0.000000000E+00  0.000000000E+00 -3.511465950E+02  3.511465950E+02  0.000000000E+00  0.00000E+00  9.000E+00
      25     1     1     2     0     0  1.736577620E+02  1.864610170E+02  4.693780235E+01  2.876680143E+02  1.250000000E+02  0.00000E+00  9.000E+00
      25     1     1     2     0     0 -1.282129709E+02 -2.099989118E+02 -1.478822134E+02  3.131010346E+02  1.250000000E+02  0.00000E+00  9.000E+00
       2     1     1     2   501     0 -4.544479108E+01  2.353789474E+01  2.258745797E+03  2.259325527E+03  0.000000000E+00  0.00000E+00  9.000E+00
#rwgt            1           1   2.8938678343319962E-002           9      373830           0
</event>
<event>
      5   9999  3.79277E-02  1.66640E+01 -1.00000E+00  1.73185E-01
      21    -1     0     0   511   501  0.000000000E+00  0.000000000E+00  7.769633406E+02  7.769633406E+02  0.000000000E+00  0.00000E+00  9.000E+00
      21    -1     0     0   501   502  0.000000000E+00  0.000000000E+00 -6.704927224E+01  6.704927224E+01  0.000000000E+00  0.00000E+00  9.000E+00
      25     1     1     2     0     0  5.099645744E+00  1.693777256E+02  4.513787206E+02  4.980788790E+02  1.250000000E+02  0.00000E+00  9.000E+00
      25     1     1     2     0     0 -2.127923270E+01 -1.653888348E+02  2.155050256E+02  2.997894069E+02  1.250000000E+02  0.00000E+00  9.000E+00
      21     1     1     2   511   502  1.617958696E+01 -3.988890763E+00  4.303032213E+01  4.614432691E+01  4.768371582E-07  0.00000E+00  9.000E+00
#rwgt            1           1   4.2090923284709973E-002           9      373942           0
</event>
<event>
      5   9999  3.79277E-02  1.57020E+02 -1.00000E+00  1.15612E-01
       2    -1     0     0   502     0  0.000000000E+00  0.000000000E+00  7.019554454E+02  7.019554454E+02  0.000000000E+00  0.00000E+00  9.000E+00
      21    -1     0     0   501   502  0.000000000E+00  0.000000000E+00 -1.903713012E+02  1.903713012E+02  0.000000000E+00  0.00000E+00  9.000E+00
      25     1     1     2     0     0  1.272228876E+02 -3.644566144E+01 -1.071701999E+02  2.112448842E+02  1.250000000E+02  0.00000E+00  9.000E+00
      25     1     1     2     0     0  2.445827705E+01 -4.152427938E+00  2.654020064E+02  2.944124233E+02  1.250000000E+02  0.00000E+00  9.000E+00
       2     1     1     2   501     0 -1.516811646E+02  4.059808937E+01  3.533523377E+02  3.866694391E+02  6.607249480E-06  0.00000E+00  9.000E+00
#rwgt            1           1   3.5624048546168234E-002           9      374113           0
</event>
<event>
      5   9999  3.79277E-02  1.34641E+01 -1.00000E+00  1.81920E-01
      21    -1     0     0   502   511  0.000000000E+00  0.000000000E+00  3.041414450E+02  3.041414450E+02  0.000000000E+00  0.00000E+00  9.000E+00
      21    -1     0     0   501   502  0.000000000E+00  0.000000000E+00 -3.700767680E+02  3.700767680E+02  0.000000000E+00  0.00000E+00  9.000E+00
      25     1     1     2     0     0 -1.119742980E+02  2.943134223E+00  1.539233899E+00  1.678519428E+02  1.250000000E+02  0.00000E+00  9.000E+00
      25     1     1     2     0     0  9.854083810E+01 -2.035570297E+00 -2.645942768E+02  3.087872595E+02  1.250000000E+02  0.00000E+00  9.000E+00
      21     1     1     2   501   511  1.343345988E+01 -9.075639267E-01  1.971197199E+02  1.975790108E+02  3.814697266E-06  0.00000E+00  9.000E+00
#rwgt            1           1   3.8274606847673538E-002           9      374241           0
</event>
<event>
      5   9999 -3.79277E-02  1.25371E+02 -1.00000E+00  1.19567E-01
      21    -1     0     0   512   501  0.000000000E+00  0.000000000E+00  2.132113868E+02  2.132113868E+02  0.000000000E+00  0.00000E+00  9.000E+00
      21    -1     0     0   501   502  0.000000000E+00  0.000000000E+00 -4.352282176E+02  4.352282176E+02  0.000000000E+00  0.00000E+00  9.000E+00
      25     1     1     2     0     0 -4.777108359E+01 -1.743347677E+01 -2.653965956E+02  2.977353783E+02  1.250000000E+02  0.00000E+00  9.000E+00
      25     1     1     2     0     0  1.731321338E+02  1.582833782E+01 -1.018649764E+01  2.143689267E+02  1.250000000E+02  0.00000E+00  9.000E+00
      21     1     1     2   512   502 -1.253610502E+02  1.605138948E+00  5.356626246E+01  1.363352993E+02  9.536743164E-07  0.00000E+00  9.000E+00
#rwgt            1           1  -5.4328894202140014E-003           9      374459           0
</event>
<event>
      5   9999  3.79277E-02  1.57877E+02 -1.00000E+00  1.15519E-01
      21    -1     0     0   502   501  0.000000000E+00  0.000000000E+00  4.476229935E+02  4.476229935E+02  0.000000000E+00  0.00000E+00  9.000E+00
      21    -1     0     0   511   502  0.000000000E+00  0.000000000E+00 -8.545822764E+02  8.545822764E+02  0.000000000E+00  0.00000E+00  9.000E+00
      25     1     1     2     0     0 -8.918694670E+00  1.905526374E+02  2.206608257E+02  3.173421667E+02  1.250000000E+02  0.00000E+00  9.000E+00
      25     1     1     2     0     0 -7.251541909E+01 -5.529872446E+01  1.354446236E+02  2.056372558E+02  1.250000000E+02  0.00000E+00  9.000E+00
      21     1     1     2   511   501  8.143411376E+01 -1.352539129E+02 -7.630647322E+02  7.792258474E+02  0.000000000E+00  0.00000E+00  9.000E+00
#rwgt            1           1   4.3248592203746140E-002           9      374557           0
</event>
<event>
      5   9999  3.79277E-02  6.94547E+01 -1.00000E+00  1.31393E-01
      21    -1     0     0   502   501  0.000000000E+00  0.000000000E+00  1.309560513E+02  1.309560513E+02  0.000000000E+00  0.00000E+00  9.000E+00
      21    -1     0     0   512   502  0.000000000E+00  0.000000000E+00 -5.859535451E+02  5.859535451E+02  0.000000000E+00  0.00000E+00  9.000E+00
      25     1     1     2     0     0 -1.915730709E+01  1.852557197E+02 -6.759800363E+01  2.342673135E+02  1.250000000E+02  0.00000E+00  9.000E+00
      25     1     1     2     0     0 -4.865044500E+01 -1.702203496E+02 -3.146464939E+02  3.820592222E+02  1.250000000E+02  0.00000E+00  9.000E+00
      21     1     1     2   512   501  6.780775209E+01 -1.503537012E+01 -7.275299635E+01  1.005830606E+02  9.536743164E-07  0.00000E+00  9.000E+00
#rwgt            1           1  0.16502926939253809                9      374616           0
</event>
<event>
      5   9999  3.79277E-02  1.53965E+02 -1.00000E+00  1.15946E-01
      21    -1     0     0   511   501  0.000000000E+00  0.000000000E+00  1.347698847E+02  1.347698847E+02  0.000000000E+00  0.00000E+00  9.000E+00
      21    -1     0     0   501   502  0.000000000E+00  0.000000000E+00 -1.203661223E+03  1.203661223E+03  0.000000000E+00  0.00000E+00  9.000E+00
      25     1     1     2     0     0 -3.827247972E+01  2.257385581E+02 -5.651909655E+02  6.224857482E+02  1.250000000E+02  0.00000E+00  9.000E+00
      25     1     1     2     0     0  1.858040691E+02 -2.697788427E+02 -3.907689289E+02  5.250039351E+02  1.250000000E+02  0.00000E+00  9.000E+00
      21     1     1     2   511   502 -1.475315894E+02  4.404028466E+01 -1.129314441E+02  1.909414246E+02  2.697398305E-06  0.00000E+00  9.000E+00
#rwgt            1           1   3.2310059525510415E-002           9      374750           0
</event>
<event>
      5   9999  3.79277E-02  8.04986E+01 -1.00000E+00  1.28219E-01
      21    -1     0     0   502   501  0.000000000E+00  0.000000000E+00  3.505876365E+02  3.505876365E+02  0.000000000E+00  0.00000E+00  9.000E+00
      21    -1     0     0   512   502  0.000000000E+00  0.000000000E+00 -1.666295485E+02  1.666295485E+02  0.000000000E+00  0.00000E+00  9.000E+00
      25     1     1     2     0     0 -1.347172506E+02  7.149825744E+01  6.779886080E+01  2.085243965E+02  1.250000000E+02  0.00000E+00  9.000E+00
      25     1     1     2     0     0  6.121239530E+01 -3.867960622E+01  1.611947001E+02  2.164527676E+02  1.250000000E+02  0.00000E+00  9.000E+00
      21     1     1     2   512   501  7.350485528E+01 -3.281865122E+01 -4.503547287E+01  9.224002078E+01  0.000000000E+00  0.00000E+00  9.000E+00
#rwgt            2          11   1.9855605494927269E-003           9      374797           0
</event>
<event>
      5   9999 -3.79277E-02  4.14414E+01 -1.00000E+00  1.43893E-01
      21    -1     0     0   511   501  0.000000000E+00  0.000000000E+00  3.094866413E+02  3.094866413E+02  0.000000000E+00  0.00000E+00  9.000E+00
      21    -1     0     0   501   502  0.000000000E+00  0.000000000E+00 -1.262891260E+03  1.262891260E+03  0.000000000E+00  0.00000E+00  9.000E+00
      25     1     1     2     0     0  1.708003601E+01  7.631009188E+01 -6.606536543E+02  6.769070902E+02  1.250000000E+02  0.00000E+00  9.000E+00
      25     1     1     2     0     0 -3.779198808E+01 -4.041574936E+01 -5.847652195E+02  6.005306230E+02  1.250000000E+02  0.00000E+00  9.000E+00
      21     1     1     2   511   502  2.071195206E+01 -3.589434251E+01  2.920142556E+02  2.949401876E+02  0.000000000E+00  0.00000E+00  9.000E+00
#rwgt            1           1  -1.5989555604278801E-003           9      374877           0
</event>
<event>
      5   9999  3.79277E-02  7.20173E+01 -1.00000E+00  1.30599E-01
      21    -1     0     0   502   501  0.000000000E+00  0.000000000E+00  1.734131092E+02  1.734131092E+02  0.000000000E+00  0.00000E+00  9.000E+00
      21    -1     0     0   512   502  0.000000000E+00  0.000000000E+00 -5.788529267E+02  5.788529267E+02  0.000000000E+00  0.00000E+00  9.000E+00
      25     1     1     2     0     0 -1.414544595E+02 -2.161724649E+02 -1.298518707E+02  3.150022333E+02  1.250000000E+02  0.00000E+00  9.000E+00
      25     1     1     2     0     0  8.748197642E+01  1.684915613E+02 -1.016348673E+02  2.489922663E+02  1.250000000E+02  0.00000E+00  9.000E+00
      21     1     1     2   512   501  5.397248308E+01  4.768090358E+01 -1.739530796E+02  1.882715363E+02  1.907348633E-06  0.00000E+00  9.000E+00
#rwgt            1           1   3.6592780686787278E-002           9      374974           0
</event>
<event>
      5   9999  3.79277E-02  8.58227E+01 -1.00000E+00  1.26890E-01
       2    -1     0     0   502     0  0.000000000E+00  0.000000000E+00  1.181208043E+03  1.181208043E+03  0.000000000E+00  0.00000E+00  9.000E+00
      21    -1     0     0   501   502  0.000000000E+00  0.000000000E+00 -8.068931926E+02  8.068931926E+02  0.000000000E+00  0.00000E+00  9.000E+00
      25     1     1     2     0     0 -1.055925033E+02 -6.263500443E+02  2.139755912E+02  6.818172104E+02  1.250000000E+02  0.00000E+00  9.000E+00
      25     1     1     2     0     0  2.657019189E+01  5.928686526E+02 -4.083562743E+02  7.311491374E+02  1.250000000E+02  0.00000E+00  9.000E+00
       2     1     1     2   501     0  7.902231136E+01  3.348139171E+01  5.686955340E+02  5.751348883E+02  1.078959322E-05  0.00000E+00  9.000E+00
#rwgt            2          18   7.5938924322846945E-004           9      375065           0
</event>
<event>
      5   9999  3.79277E-02  2.47958E+01 -1.00000E+00  1.59018E-01
      21    -1     0     0   511   501  0.000000000E+00  0.000000000E+00  3.875667275E+01  3.875667275E+01  0.000000000E+00  0.00000E+00  9.000E+00
      21    -1     0     0   501   502  0.000000000E+00  0.000000000E+00 -1.062334851E+03  1.062334851E+03  0.000000000E+00  0.00000E+00  9.000E+00
      25     1     1     2     0     0  1.600755431E+01 -9.948732757E+01 -2.231755189E+02  2.749295953E+02  1.250000000E+02  0.00000E+00  9.000E+00
      25     1     1     2     0     0 -3.361571955E+01  1.169454572E+02 -7.496041874E+02  7.696347798E+02  1.250000000E+02  0.00000E+00  9.000E+00
      21     1     1     2   511   502  1.760816524E+01 -1.745812964E+01 -5.079847166E+01  5.652714831E+01  0.000000000E+00  0.00000E+00  9.000E+00
#rwgt            1           1   3.1883626359015892E-002           9      375099           0
</event>
<event>
      5   9999  3.79277E-02  3.25953E+01 -1.00000E+00  1.50578E-01
      21    -1     0     0   512   501  0.000000000E+00  0.000000000E+00  7.643967374E+01  7.643967374E+01  0.000000000E+00  0.00000E+00  9.000E+00
      21    -1     0     0   501   502  0.000000000E+00  0.000000000E+00 -6.869425265E+02  6.869425265E+02  0.000000000E+00  0.00000E+00  9.000E+00
      25     1     1     2     0     0  1.134780197E+02  4.865613087E+01 -4.398969957E+02  4.736866547E+02  1.250000000E+02  0.00000E+00  9.000E+00
      25     1     1     2     0     0 -1.456284427E+02 -4.328918721E+01 -1.646799639E+02  2.565659517E+02  1.250000000E+02  0.00000E+00  9.000E+00
      21     1     1     2   512   502  3.215042294E+01 -5.366943667E+00 -5.925893153E+00  3.312959386E+01  1.460009660E-07  0.00000E+00  9.000E+00
#rwgt            1           1   4.9113005686645589E-002           9      375302           0
</event>
<event>
      5   9999  3.79277E-02  9.22427E+01 -1.00000E+00  1.25426E-01
      21    -1     0     0   502   511  0.000000000E+00  0.000000000E+00  1.445536455E+02  1.445536455E+02  0.000000000E+00  0.00000E+00  9.000E+00
      21    -1     0     0   501   502  0.000000000E+00  0.000000000E+00 -9.132406017E+02  9.132406017E+02  0.000000000E+00  0.00000E+00  9.000E+00
      25     1     1     2     0     0 -1.815835659E+02 -2.010533649E+02 -3.992414739E+02  4.984112774E+02  1.250000000E+02  0.00000E+00  9.000E+00
      25     1     1     2     0     0  1.635316261E+02  1.105943075E+02 -3.991168134E+02  4.624855936E+02  1.250000000E+02  0.00000E+00  9.000E+00
      21     1     1     2   501   511  1.805193986E+01  9.045905744E+01  2.967133112E+01  9.689737611E+01  0.000000000E+00  0.00000E+00  9.000E+00
#rwgt            1           1   3.4683118374043559E-002           9      375423           0
</event>
<event>
      5   9999  3.79277E-02  1.65718E+02 -1.00000E+00  1.14704E-01
      21    -1     0     0   512   501  0.000000000E+00  0.000000000E+00  6.582228422E+02  6.582228422E+02  0.000000000E+00  0.00000E+00  9.000E+00
      21    -1     0     0   501   502  0.000000000E+00  0.000000000E+00 -1.254702127E+02  1.254702127E+02  0.000000000E+00  0.00000E+00  9.000E+00
      25     1     1     2     0     0 -8.446949632E+00 -1.441575592E+02  5.513420328E+01  1.987901738E+02  1.250000000E+02  0.00000E+00  9.000E+00
      25     1     1     2     0     0  1.087334295E+02  1.222929190E+01  1.851909366E+02  2.487834345E+02  1.250000000E+02  0.00000E+00  9.000E+00
      21     1     1     2   512   502 -1.002864799E+02  1.319282673E+02  2.924274896E+02  3.361194466E+02  7.629394531E-06  0.00000E+00  9.000E+00
#rwgt            1           1   4.3105519120981005E-002           9      375484           0
</event>
<event>
      5   9999  3.79277E-02  2.06292E+01 -1.00000E+00  1.65267E-01
      21    -1     0     0   502   501  0.000000000E+00  0.000000000E+00  9.332844025E+02  9.332844025E+02  0.000000000E+00  0.00000E+00  9.000E+00
      -4    -1     0     0     0   502  0.000000000E+00  0.000000000E+00 -1.530972676E+02  1.530972676E+02  0.000000000E+00  0.00000E+00  9.000E+00
      25     1     1     2     0     0  7.786394796E+01 -1.601924018E+02  1.494515088E+02  2.639794566E+02  1.250000000E+02  0.00000E+00  9.000E+00
      25     1     1     2     0     0 -9.768816980E+01  1.658989338E+02  7.070349951E+02  7.433632484E+02  1.250000000E+02  0.00000E+00  9.000E+00
      -4     1     1     2     0   501  1.982422184E+01 -5.706532017E+00 -7.629936907E+01  7.903896507E+01  1.907348633E-06  0.00000E+00  9.000E+00
#rwgt            1           1   1.4626529716603968E-002           9      375604           0
</event>
<event>
      5   9999  3.79277E-02  4.08033E+01 -1.00000E+00  1.44307E-01
      21    -1     0     0   502   501  0.000000000E+00  0.000000000E+00  8.771722805E+01  8.771722805E+01  0.000000000E+00  0.00000E+00  9.000E+00
      21    -1     0     0   511   502  0.000000000E+00  0.000000000E+00 -1.101205038E+03  1.101205038E+03  0.000000000E+00  0.00000E+00  9.000E+00
      25     1     1     2     0     0  6.093416875E+01 -1.349656104E+02 -6.533481589E+01  2.045050784E+02  1.250000000E+02  0.00000E+00  9.000E+00
      25     1     1     2     0     0 -5.932058541E+01  1.757369851E+02 -8.170165363E+02  8.470793590E+02  1.250000000E+02  0.00000E+00  9.000E+00
      21     1     1     2   511   501 -1.613583338E+00 -4.077137474E+01 -1.311364578E+02  1.373378288E+02  2.697398305E-06  0.00000E+00  9.000E+00
#rwgt            1           1   4.9997641198760795E-002           9      376010           0
</event>
<event>
      5   9999  3.79277E-02  2.38842E+01 -1.00000E+00  1.60251E-01
      21    -1     0     0   512   501  0.000000000E+00  0.000000000E+00  1.325508139E+02  1.325508139E+02  0.000000000E+00  0.00000E+00  9.000E+00
      21    -1     0     0   501   502  0.000000000E+00  0.000000000E+00 -3.148040939E+02  3.148040939E+02  0.000000000E+00  0.00000E+00  9.000E+00
      25     1     1     2     0     0 -3.119314322E+01  7.059243305E+01  4.197678046E+01  1.527853196E+02  1.250000000E+02  0.00000E+00  9.000E+00
      25     1     1     2     0     0  8.026018227E+00 -7.640114547E+01 -2.272471876E+02  2.704955384E+02  1.250000000E+02  0.00000E+00  9.000E+00
      21     1     1     2   512   502  2.316712500E+01  5.808712415E+00  3.017127200E+00  2.407404987E+01  3.908537939E-07  0.00000E+00  9.000E+00
#rwgt            1           1   4.8382776008502500E-002           9      376356           0
</event>
<event>
      5   9999  3.79277E-02  2.69599E+01 -1.00000E+00  1.56334E-01
       2    -1     0     0   502     0  0.000000000E+00  0.000000000E+00  1.100479575E+03  1.100479575E+03  0.000000000E+00  0.00000E+00  9.000E+00
      21    -1     0     0   501   502  0.000000000E+00  0.000000000E+00 -3.622314651E+01  3.622314651E+01  0.000000000E+00  0.00000E+00  9.000E+00
      25     1     1     2     0     0 -8.562472448E+00 -2.177794816E+01  8.898096148E+02  8.988513478E+02  1.250000000E+02  0.00000E+00  9.000E+00
      25     1     1     2     0     0  3.229722702E+01  8.991248548E+00  1.173073641E+02  1.746710368E+02  1.250000000E+02  0.00000E+00  9.000E+00
       2     1     1     2   501     0 -2.373475457E+01  1.278669962E+01  5.713944936E+01  6.318033662E+01  6.743495762E-07  0.00000E+00  9.000E+00
#rwgt            1           1   5.2410371012148502E-002           9      376488           0
</event>
<event>
      5   9999  3.79277E-02  3.62965E+01 -1.00000E+00  1.47507E-01
      21    -1     0     0   502   501  0.000000000E+00  0.000000000E+00  7.885072071E+02  7.885072071E+02  0.000000000E+00  0.00000E+00  9.000E+00
      21    -1     0     0   501   511  0.000000000E+00  0.000000000E+00 -1.302690232E+02  1.302690232E+02  0.000000000E+00  0.00000E+00  9.000E+00
      25     1     1     2     0     0  2.181284972E+02 -3.691213242E+01  2.273317198E+02  3.409505208E+02  1.250000000E+02  0.00000E+00  9.000E+00
      25     1     1     2     0     0 -2.437441511E+02  1.119688223E+01  4.571364743E+02  5.330434668E+02  1.250000000E+02  0.00000E+00  9.000E+00
      21     1     1     2   502   511  2.561565387E+01  2.571525019E+01 -2.623001029E+01  4.478224264E+01  0.000000000E+00  0.00000E+00  9.000E+00
#rwgt            1           1   3.4141275356265363E-002           9      376730           0
</event>
<event>
      5   9999 -3.79277E-02  3.29674E+01 -1.00000E+00  1.50248E-01
      21    -1     0     0   502   501  0.000000000E+00  0.000000000E+00  2.670831888E+03  2.670831888E+03  0.000000000E+00  0.00000E+00  9.000E+00
      21    -1     0     0   501   512  0.000000000E+00  0.000000000E+00 -7.243193025E+01  7.243193025E+01  0.000000000E+00  0.00000E+00  9.000E+00
      25     1     1     2     0     0 -1.862304809E+02  1.443262493E+02  2.055167472E+03  2.072402035E+03  1.250000000E+02  0.00000E+00  9.000E+00
      25     1     1     2     0     0  2.030962577E+02 -1.159996361E+02  5.698199419E+02  6.285091659E+02  1.250000000E+02  0.00000E+00  9.000E+00
      21     1     1     2   502   512 -1.686577685E+01 -2.832661323E+01 -2.658745537E+01  4.235261773E+01  1.815741803E-06  0.00000E+00  9.000E+00
#rwgt            1           1  -6.6373720155733465E-002           9      376892           0
</event>
<event>
      5   9999  3.79277E-02  4.07289E+01 -1.00000E+00  1.44355E-01
      21    -1     0     0   502   501  0.000000000E+00  0.000000000E+00  1.754203394E+02  1.754203394E+02  0.000000000E+00  0.00000E+00  9.000E+00
      21    -1     0     0   501   511  0.000000000E+00  0.000000000E+00 -2.663413158E+02  2.663413158E+02  0.000000000E+00  0.00000E+00  9.000E+00
      25     1     1     2     0     0 -4.443668987E+01  7.790855390E+01  8.559648046E+01  1.760571488E+02  1.250000000E+02  0.00000E+00  9.000E+00
      25     1     1     2     0     0  6.756674519E+01 -4.438482343E+01 -1.673088631E+02  2.239476128E+02  1.250000000E+02  0.00000E+00  9.000E+00
      21     1     1     2   502   511 -2.313005532E+01 -3.352373048E+01 -9.208593813E+00  4.175689361E+01  1.039242493E-06  0.00000E+00  9.000E+00
#rwgt            1           1   3.8381805049456784E-002           9      377165           0
</event>
<event>
      5   9999  3.79277E-02  7.80337E+00 -1.00000E+00  2.09094E-01
      21    -1     0     0   502   501  0.000000000E+00  0.000000000E+00  2.076900374E+02  2.076900374E+02  0.000000000E+00  0.00000E+00  9.000E+00
      21    -1     0     0   501   512  0.000000000E+00  0.000000000E+00 -2.850366284E+02  2.850366284E+02  0.000000000E+00  0.00000E+00  9.000E+00
      25     1     1     2     0     0 -1.053168287E+02 -1.048827291E+02 -6.381211556E+01  2.044235979E+02  1.250000000E+02  0.00000E+00  9.000E+00
      25     1     1     2     0     0  1.116992745E+02  1.003930753E+02  6.762483729E+01  2.067694758E+02  1.250000000E+02  0.00000E+00  9.000E+00
      21     1     1     2   502   512 -6.382445736E+00  4.489653734E+00 -8.115931277E+01  8.153359218E+01  0.000000000E+00  0.00000E+00  9.000E+00
#rwgt            1           1   3.8458032788937349E-002           9      377244           0
</event>
<event>
      5   9999  3.79277E-02  8.21538E+01 -1.00000E+00  1.27794E-01
       2    -1     0     0   502     0  0.000000000E+00  0.000000000E+00  1.312787854E+03  1.312787854E+03  0.000000000E+00  0.00000E+00  9.000E+00
      21    -1     0     0   501   502  0.000000000E+00  0.000000000E+00 -7.496294765E+02  7.496294765E+02  0.000000000E+00  0.00000E+00  9.000E+00
      25     1     1     2     0     0 -1.142605521E+02 -1.524457772E+01 -4.164057769E+02  4.497851064E+02  1.250000000E+02  0.00000E+00  9.000E+00
      25     1     1     2     0     0  1.312593737E+02  9.562044173E+01 -2.818875950E+02  3.485081179E+02  1.250000000E+02  0.00000E+00  9.000E+00
       2     1     1     2   501     0 -1.699882157E+01 -8.037586401E+01  1.261451749E+03  1.264124106E+03  1.525878906E-05  0.00000E+00  9.000E+00
#rwgt            1           1   1.4923804878427411E-002           9      377520           0
</event>
<event>
      5   9999  3.79277E-02  3.84200E+01 -1.00000E+00  1.45934E-01
      21    -1     0     0   502   501  0.000000000E+00  0.000000000E+00  1.914968870E+02  1.914968870E+02  0.000000000E+00  0.00000E+00  9.000E+00
      -3    -1     0     0     0   502  0.000000000E+00  0.000000000E+00 -4.108906111E+02  4.108906111E+02  0.000000000E+00  0.00000E+00  9.000E+00
      25     1     1     2     0     0 -4.023386708E+01 -1.514533493E+02  4.417832349E+01  2.052647202E+02  1.250000000E+02  0.00000E+00  9.000E+00
      25     1     1     2     0     0  3.504793533E+01  1.133849737E+02 -4.907853873E+01  1.792155490E+02  1.250000000E+02  0.00000E+00  9.000E+00
      -3     1     1     2     0   501  5.185931747E+00  3.806837565E+01 -2.144935088E+02  2.179072289E+02  0.000000000E+00  0.00000E+00  9.000E+00
#rwgt            1           1   4.0100534990263469E-002           9      377569           0
</event>
<event>
      5   9999  3.79277E-02  4.93702E+01 -1.00000E+00  1.39390E-01
      21    -1     0     0   511   501  0.000000000E+00  0.000000000E+00  5.330131522E+01  5.330131522E+01  0.000000000E+00  0.00000E+00  9.000E+00
      21    -1     0     0   501   502  0.000000000E+00  0.000000000E+00 -8.185210398E+02  8.185210398E+02  0.000000000E+00  0.00000E+00  9.000E+00
      25     1     1     2     0     0  6.819048575E+01  3.590933828E+01 -5.408919316E+02  5.604716805E+02  1.250000000E+02  0.00000E+00  9.000E+00
      25     1     1     2     0     0 -1.052070800E+02 -3.241524208E+00 -1.481463484E+02  2.205705731E+02  1.250000000E+02  0.00000E+00  9.000E+00
      21     1     1     2   511   502  3.701659426E+01 -3.266781408E+01 -7.618144449E+01  9.078010140E+01  1.651812370E-06  0.00000E+00  9.000E+00
#rwgt            1           1   4.9003679476659567E-002           9      377704           0
</event>
<event>
      5   9999  3.79277E-02  2.29523E+02 -1.00000E+00  1.09514E-01
      21    -1     0     0   502   512  0.000000000E+00  0.000000000E+00  1.073398081E+03  1.073398081E+03  0.000000000E+00  0.00000E+00  9.000E+00
      21    -1     0     0   501   502  0.000000000E+00  0.000000000E+00 -1.440369965E+02  1.440369965E+02  0.000000000E+00  0.00000E+00  9.000E+00
      25     1     1     2     0     0  7.621135068E+01 -3.114520614E+02  4.184493905E+02  5.417891185E+02  1.250000000E+02  0.00000E+00  9.000E+00
      25     1     1     2     0     0 -1.374352868E+02  9.024485519E+01  1.867101349E+02  2.784210237E+02  1.250000000E+02  0.00000E+00  9.000E+00
      21     1     1     2   501   512  6.122393608E+01  2.212072062E+02  3.242015592E+02  3.972249356E+02  5.394796609E-06  0.00000E+00  9.000E+00
#rwgt            1           1   3.4031089248517214E-002           9      377825           0
</event>
<event>
      5   9999  3.79277E-02  7.11402E+01 -1.00000E+00  1.30866E-01
      21    -1     0     0   511   501  0.000000000E+00  0.000000000E+00  8.516006654E+02  8.516006654E+02  0.000000000E+00  0.00000E+00  9.000E+00
      21    -1     0     0   501   502  0.000000000E+00  0.000000000E+00 -1.558088448E+02  1.558088448E+02  0.000000000E+00  0.00000E+00  9.000E+00
      25     1     1     2     0     0  2.169941893E+02  9.893112136E+01  3.505021217E+02  4.419848214E+02  1.250000000E+02  0.00000E+00  9.000E+00
      25     1     1     2     0     0 -2.842239627E+02 -1.221922878E+02  1.663094007E+02  3.728243996E+02  1.250000000E+02  0.00000E+00  9.000E+00
      21     1     1     2   511   502  6.722977335E+01  2.326116644E+01  1.789802982E+02  1.926002893E+02  1.907348633E-06  0.00000E+00  9.000E+00
#rwgt            1           1   2.8542733834101393E-002           9      377894           0
</event>
<event>
      5   9999  3.79277E-02  5.28092E+01 -1.00000E+00  1.37734E-01
       2    -1     0     0   502     0  0.000000000E+00  0.000000000E+00  2.660210945E+03  2.660210945E+03  0.000000000E+00  0.00000E+00  9.000E+00
      21    -1     0     0   501   502  0.000000000E+00  0.000000000E+00 -3.752031710E+02  3.752031710E+02  0.000000000E+00  0.00000E+00  9.000E+00
      25     1     1     2     0     0  1.228382954E+02  3.029618912E+01 -2.679423362E+02  3.215978878E+02  1.250000000E+02  0.00000E+00  9.000E+00
      25     1     1     2     0     0 -1.728452806E+02 -4.727004827E+01  6.873557510E+01  2.290404501E+02  1.250000000E+02  0.00000E+00  9.000E+00
       2     1     1     2   501     0  5.000698527E+01  1.697385915E+01  2.484214535E+03  2.484775778E+03  0.000000000E+00  0.00000E+00  9.000E+00
#rwgt            1           1   3.8140961431268383E-002           9      378047           0
</event>
<event>
      5   9999  3.79277E-02  9.35976E+01 -1.00000E+00  1.25134E-01
       2    -1     0     0   502     0  0.000000000E+00  0.000000000E+00  1.964107109E+03  1.964107109E+03  0.000000000E+00  0.00000E+00  9.000E+00
      21    -1     0     0   501   502  0.000000000E+00  0.000000000E+00 -2.230655907E+02  2.230655907E+02  0.000000000E+00  0.00000E+00  9.000E+00
      25     1     1     2     0     0  2.228911970E+02  1.671397237E+02  2.194738624E+02  3.760451425E+02  1.250000000E+02  0.00000E+00  9.000E+00
      25     1     1     2     0     0 -1.382402513E+02 -2.070737806E+02 -7.989751840E+00  2.787090846E+02  1.250000000E+02  0.00000E+00  9.000E+00
       2     1     1     2   501     0 -8.465094576E+01  3.993405687E+01  1.529557408E+03  1.532418473E+03  2.157918644E-05  0.00000E+00  9.000E+00
#rwgt            1           1   4.6603156511666660E-002           9      378238           0
</event>
<event>
      5   9999  3.79277E-02  7.84849E+01 -1.00000E+00  1.28753E-01
       2    -1     0     0   502     0  0.000000000E+00  0.000000000E+00  2.446721997E+02  2.446721997E+02  0.000000000E+00  0.00000E+00  9.000E+00
      21    -1     0     0   501   502  0.000000000E+00  0.000000000E+00 -1.020748598E+03  1.020748598E+03  0.000000000E+00  0.00000E+00  9.000E+00
      25     1     1     2     0     0  2.857393548E+02 -8.230121255E-01 -6.031685751E+02  6.790323897E+02  1.250000000E+02  0.00000E+00  9.000E+00
      25     1     1     2     0     0 -3.049296839E+02 -7.527966493E+01 -2.900227124E+02  4.454069081E+02  1.250000000E+02  0.00000E+00  9.000E+00
       2     1     1     2   501     0  1.919032909E+01  7.610267706E+01  1.171148889E+02  1.409815002E+02  4.264961200E-06  0.00000E+00  9.000E+00
#rwgt            1           1   2.8728321362522062E-002           9      378348           0
</event>
<event>
      5   9999  3.79277E-02  9.58841E+01 -1.00000E+00  1.24655E-01
      21    -1     0     0   502   501  0.000000000E+00  0.000000000E+00  1.782153477E+02  1.782153477E+02  0.000000000E+00  0.00000E+00  9.000E+00
      21    -1     0     0   511   502  0.000000000E+00  0.000000000E+00 -4.020666028E+02  4.020666028E+02  0.000000000E+00  0.00000E+00  9.000E+00
      25     1     1     2     0     0 -1.446542851E+02 -2.825813368E+01 -2.423208186E+02  3.099480012E+02  1.250000000E+02  0.00000E+00  9.000E+00
      25     1     1     2     0     0  7.512790442E+01 -3.777093091E+01  6.461504658E+01  1.639236087E+02  1.250000000E+02  0.00000E+00  9.000E+00
      21     1     1     2   511   501  6.952638068E+01  6.602906458E+01 -4.614548310E+01  1.064103406E+02  1.507891493E-06  0.00000E+00  9.000E+00
#rwgt            1           1   4.4754613028509062E-002           9      378532           0
</event>
<event>
      5   9999  3.79277E-02  4.39433E+01 -1.00000E+00  1.42352E-01
      21    -1     0     0   512   501  0.000000000E+00  0.000000000E+00  1.394826353E+03  1.394826353E+03  0.000000000E+00  0.00000E+00  9.000E+00
      21    -1     0     0   501   502  0.000000000E+00  0.000000000E+00 -3.720417286E+01  3.720417286E+01  0.000000000E+00  0.00000E+00  9.000E+00
      25     1     1     2     0     0 -3.550963515E+01  1.475518439E+02  6.130348723E+02  6.437928514E+02  1.250000000E+02  0.00000E+00  9.000E+00
      25     1     1     2     0     0  3.524250658E-01 -1.739144040E+02  5.974954678E+02  6.347221268E+02  1.250000000E+02  0.00000E+00  9.000E+00
      21     1     1     2   512   502  3.515721008E+01  2.636256015E+01  1.470918404E+02  1.535155481E+02  1.907348633E-06  0.00000E+00  9.000E+00
#rwgt            1           1   3.1086094126174409E-002           9      378659           0
</event>
<event>
      5   9999  3.79277E-02  4.15751E+01 -1.00000E+00  1.43808E-01
      21    -1     0     0   502   501  0.000000000E+00  0.000000000E+00  4.519010929E+02  4.519010929E+02  0.000000000E+00  0.00000E+00  9.000E+00
      21    -1     0     0   501   511  0.000000000E+00  0.000000000E+00 -9.182566096E+01  9.182566096E+01  0.000000000E+00  0.00000E+00  9.000E+00
      25     1     1     2     0     0 -1.367189389E+02 -4.584579428E+01  1.840545280E+02  2.651319943E+02  1.250000000E+02  0.00000E+00  9.000E+00
      25     1     1     2     0     0  1.205301622E+02  7.552031355E+00  1.496876659E+02  2.293816700E+02  1.250000000E+02  0.00000E+00  9.000E+00
      21     1     1     2   502   511  1.618877664E+01  3.829376292E+01  2.633323793E+01  4.921308960E+01  3.371747881E-07  0.00000E+00  9.000E+00
#rwgt            1           1   3.5898569970663666E-002           9      378836           0
</event>
<event>
      5   9999  3.79277E-02  9.06749E+00 -1.00000E+00  2.00803E-01
      21    -1     0     0   502   512  0.000000000E+00  0.000000000E+00  3.368164405E+01  3.368164405E+01  0.000000000E+00  0.00000E+00  9.000E+00
      21    -1     0     0   501   502  0.000000000E+00  0.000000000E+00 -2.123323147E+03  2.123323147E+03  0.000000000E+00  0.00000E+00  9.000E+00
      25     1     1     2     0     0 -6.583145871E+01 -1.897862700E+02 -1.437973390E+03  1.457307476E+03  1.250000000E+02  0.00000E+00  9.000E+00
      25     1     1     2     0     0  7.488070690E+01  1.903611934E+02 -6.458940212E+02  6.889474515E+02  1.250000000E+02  0.00000E+00  9.000E+00
      21     1     1     2   501   512 -9.049248190E+00 -5.749234045E-01 -5.774091493E+00  1.074986336E+01  3.039252468E-07  0.00000E+00  9.000E+00
#rwgt            1           1  0.11138581097924553                9      378969           0
</event>
<event>
      5   9999  3.79277E-02  1.00366E+02 -1.00000E+00  1.23757E-01
      21    -1     0     0   511   501  0.000000000E+00  0.000000000E+00  3.358144424E+02  3.358144424E+02  0.000000000E+00  0.00000E+00  9.000E+00
      21    -1     0     0   501   502  0.000000000E+00  0.000000000E+00 -2.086387285E+02  2.086387285E+02  0.000000000E+00  0.00000E+00  9.000E+00
      25     1     1     2     0     0  2.710522985E+01 -1.927378291E+02  1.748917425E+01  2.319772305E+02  1.250000000E+02  0.00000E+00  9.000E+00
      25     1     1     2     0     0  8.312024363E+00  9.882885430E+01 -5.547037856E+00  1.596621490E+02  1.250000000E+02  0.00000E+00  9.000E+00
      21     1     1     2   511   502 -3.541725421E+01  9.390897481E+01  1.152335775E+02  1.528137914E+02  1.348699152E-06  0.00000E+00  9.000E+00
#rwgt            2          11   1.8918714928156358E-003           9      379257           0
</event>
<event>
      5   9999  3.79277E-02  8.29944E+01 -1.00000E+00  1.27582E-01
      21    -1     0     0   512   501  0.000000000E+00  0.000000000E+00  1.039433979E+03  1.039433979E+03  0.000000000E+00  0.00000E+00  9.000E+00
      21    -1     0     0   501   502  0.000000000E+00  0.000000000E+00 -6.015514707E+01  6.015514707E+01  0.000000000E+00  0.00000E+00  9.000E+00
      25     1     1     2     0     0 -1.181937540E+02  7.412260395E+01  3.505618475E+02  3.974701660E+02  1.250000000E+02  0.00000E+00  9.000E+00
      25     1     1     2     0     0  1.771442709E+02 -1.570249969E+01  3.566348054E+02  4.176602035E+02  1.250000000E+02  0.00000E+00  9.000E+00
      21     1     1     2   512   502 -5.895051691E+01 -5.842010427E+01  2.720821790E+02  2.844587565E+02  6.607249480E-06  0.00000E+00  9.000E+00
#rwgt            1           1  0.25934207700082790                9      379397           0
</event>
<event>
      5   9999  3.79277E-02  7.28051E+01 -1.00000E+00  1.30362E-01
      21    -1     0     0   502   501  0.000000000E+00  0.000000000E+00  4.211082460E+01  4.211082460E+01  0.000000000E+00  0.00000E+00  9.000E+00
      21    -1     0     0   501   511  0.000000000E+00  0.000000000E+00 -3.712055744E+03  3.712055744E+03  0.000000000E+00  0.00000E+00  9.000E+00
      25     1     1     2     0     0 -2.372612223E+02  1.153456644E+02 -1.496093716E+03  1.524309324E+03  1.250000000E+02  0.00000E+00  9.000E+00
      25     1     1     2     0     0  2.516193912E+02 -4.397042397E+01 -7.191495523E+02  7.733348529E+02  1.250000000E+02  0.00000E+00  9.000E+00
      21     1     1     2   502   511 -1.435816890E+01 -7.137524044E+01 -1.454701652E+03  1.456522392E+03  2.157918644E-05  0.00000E+00  9.000E+00
#rwgt            1           1  0.14084807506310268                9      379527           0
</event>
<event>
      5   9999  3.79277E-02  2.63506E+02 -1.00000E+00  1.07455E-01
      21    -1     0     0   502   501  0.000000000E+00  0.000000000E+00  1.438556427E+02  1.438556427E+02  0.000000000E+00  0.00000E+00  9.000E+00
      21    -1     0     0   501   512  0.000000000E+00  0.000000000E+00 -8.184466301E+02  8.184466301E+02  0.000000000E+00  0.00000E+00  9.000E+00
      25     1     1     2     0     0 -5.596379210E+01  2.522456919E+02 -2.440995454E+02  3.767883002E+02  1.250000000E+02  0.00000E+00  9.000E+00
      25     1     1     2     0     0  1.190927913E+01  7.551953521E+00 -8.861507385E+01  1.538716811E+02  1.250000000E+02  0.00000E+00  9.000E+00
      21     1     1     2   502   512  4.405451297E+01 -2.597976454E+02 -3.418763683E+02  4.316422915E+02  5.394796609E-06  0.00000E+00  9.000E+00
#rwgt            1           1   3.7412351962592620E-002           9      379788           0
</event>
<event>
      5   9999  3.79277E-02  1.44013E+01 -1.00000E+00  1.79067E-01
      21    -1     0     0   502   501  0.000000000E+00  0.000000000E+00  6.187230835E+01  6.187230835E+01  0.000000000E+00  0.00000E+00  9.000E+00
      21    -1     0     0   501   511  0.000000000E+00  0.000000000E+00 -9.429392769E+02  9.429392769E+02  0.000000000E+00  0.00000E+00  9.000E+00
      25     1     1     2     0     0  1.445849084E+02  4.956677908E+01 -1.761673886E+02  2.646159673E+02  1.250000000E+02  0.00000E+00  9.000E+00
      25     1     1     2     0     0 -1.337282126E+02 -4.010480487E+01 -4.868342408E+02  5.216552580E+02  1.250000000E+02  0.00000E+00  9.000E+00
      21     1     1     2   502   511 -1.085669584E+01 -9.461974217E+00 -2.180653392E+02  2.185403600E+02  0.000000000E+00  0.00000E+00  9.000E+00
#rwgt            1           1   3.5285996106073823E-002           9      379870           0
</event>
<event>
      5   9999  3.79277E-02  9.29752E+01 -1.00000E+00  1.25268E-01
      21    -1     0     0   502   501  0.000000000E+00  0.000000000E+00  2.135877895E+02  2.135877895E+02  0.000000000E+00  0.00000E+00  9.000E+00
      21    -1     0     0   501   512  0.000000000E+00  0.000000000E+00 -3.719266100E+02  3.719266100E+02  0.000000000E+00  0.00000E+00  9.000E+00
      25     1     1     2     0     0 -1.623258685E+02  4.826310196E+01  8.737502239E+01  2.278999981E+02  1.250000000E+02  0.00000E+00  9.000E+00
      25     1     1     2     0     0  7.484359352E+01 -7.974692768E+01 -1.704942195E+02  2.380218789E+02  1.250000000E+02  0.00000E+00  9.000E+00
      21     1     1     2   502   512  8.748227493E+01  3.148382572E+01 -7.521962339E+01  1.195925226E+02  9.536743164E-07  0.00000E+00  9.000E+00
#rwgt            1           1   3.4501285729612072E-002           9      380015           0
</event>
<event>
      5   9999  3.79277E-02  2.61242E+01 -1.00000E+00  1.57333E-01
      21    -1     0     0   502   511  0.000000000E+00  0.000000000E+00  4.165850127E+02  4.165850127E+02  0.000000000E+00  0.00000E+00  9.000E+00
      21    -1     0     0   501   502  0.000000000E+00  0.000000000E+00 -1.581937397E+02  1.581937397E+02  0.000000000E+00  0.00000E+00  9.000E+00
      25     1     1     2     0     0 -1.874468973E+02 -1.335380024E+01  3.788173730E+01  2.288551711E+02  1.250000000E+02  0.00000E+00  9.000E+00
      25     1     1     2     0     0  1.898512919E+02 -1.265955721E+01  1.550504910E+02  2.754440636E+02  1.250000000E+02  0.00000E+00  9.000E+00
      21     1     1     2   501   511 -2.404394538E+00  2.601335745E+01  6.545904480E+01  7.047951777E+01  9.536743164E-07  0.00000E+00  9.000E+00
#rwgt            1           1   3.2875491175776907E-002           9      380139           0
</event>
<event>
      5   9999  3.79277E-02  1.62100E+02 -1.00000E+00  1.15074E-01
      21    -1     0     0   502   501  0.000000000E+00  0.000000000E+00  6.425987763E+02  6.425987763E+02  0.000000000E+00  0.00000E+00  9.000E+00
      21    -1     0     0   501   512  0.000000000E+00  0.000000000E+00 -1.714722574E+02  1.714722574E+02  0.000000000E+00  0.00000E+00  9.000E+00
      25     1     1     2     0     0  7.401774978E-01 -2.156059747E+02  1.804223782E+02  3.076746963E+02  1.250000000E+02  0.00000E+00  9.000E+00
      25     1     1     2     0     0 -3.393068216E+00  5.352722834E+01  3.144100215E+02  3.425716549E+02  1.250000000E+02  0.00000E+00  9.000E+00
      21     1     1     2   502   512  2.652890718E+00  1.620787463E+02 -2.370588081E+01  1.638246826E+02  2.800784141E-06  0.00000E+00  9.000E+00
#rwgt            1           1   3.6978566289675496E-002           9      380528           0
</event>
<event>
      5   9999  3.79277E-02  7.68099E+01 -1.00000E+00  1.29211E-01
      21    -1     0     0   502   501  0.000000000E+00  0.000000000E+00  1.373161794E+02  1.373161794E+02  0.000000000E+00  0.00000E+00  9.000E+00
      21    -1     0     0   501   511  0.000000000E+00  0.000000000E+00 -8.680354786E+02  8.680354786E+02  0.000000000E+00  0.00000E+00  9.000E+00
      25     1     1     2     0     0  2.765281957E+01 -2.337282175E+02 -3.935599653E+02  4.752978060E+02  1.250000000E+02  0.00000E+00  9.000E+00
      25     1     1     2     0     0  4.147394194E+01  2.002430771E+02 -6.652784783E+01  2.487334564E+02  1.250000000E+02  0.00000E+00  9.000E+00
      21     1     1     2   502   511 -6.912676151E+01  3.348514042E+01 -2.706314860E+02  2.813203956E+02  5.394796609E-06  0.00000E+00  9.000E+00
#rwgt            1           1   3.1116760457463196E-002           9      380752           0
</event>
<event>
      5   9999  3.79277E-02  4.47714E+01 -1.00000E+00  1.41869E-01
      21    -1     0     0   502   512  0.000000000E+00  0.000000000E+00  1.092348111E+03  1.092348111E+03  0.000000000E+00  0.00000E+00  9.000E+00
      21    -1     0     0   501   502  0.000000000E+00  0.000000000E+00 -4.020839310E+02  4.020839310E+02  0.000000000E+00  0.00000E+00  9.000E+00
      25     1     1     2     0     0  3.855558229E+02 -4.441279945E+02  6.119976148E+02  8.579446653E+02  1.250000000E+02  0.00000E+00  9.000E+00
      25     1     1     2     0     0 -3.445877805E+02  4.260698267E+02  1.921106290E+01  5.623791431E+02  1.250000000E+02  0.00000E+00  9.000E+00
      21     1     1     2   501   512 -4.096804238E+01  1.805816785E+01  5.905550195E+01  7.410823324E+01  1.348699152E-06  0.00000E+00  9.000E+00
#rwgt            1           1   1.8768514344194149E-002           9      380833           0
</event>
<event>
      5   9999  3.79277E-02  8.62886E+01 -1.00000E+00  1.26779E-01
      -3    -1     0     0     0   501  0.000000000E+00  0.000000000E+00  4.189863274E+02  4.189863274E+02  0.000000000E+00  0.00000E+00  9.000E+00
      21    -1     0     0   501   502  0.000000000E+00  0.000000000E+00 -9.970476152E+02  9.970476152E+02  0.000000000E+00  0.00000E+00  9.000E+00
      25     1     1     2     0     0  1.434214399E+02  4.325114665E+01 -7.950078106E+02  8.185980638E+02  1.250000000E+02  0.00000E+00  9.000E+00
      25     1     1     2     0     0 -2.277951763E+02 -2.517375249E+01 -9.190292712E+01  2.767589351E+02  1.250000000E+02  0.00000E+00  9.000E+00
      -3     1     1     2     0   502  8.437373635E+01 -1.807739416E+01  3.088494499E+02  3.206769437E+02  0.000000000E+00  0.00000E+00  9.000E+00
#rwgt            1           1   3.0720920769598366E-002           9      381000           0
</event>
<event>
      5   9999  3.79277E-02  4.03991E+01 -1.00000E+00  1.44573E-01
       2    -1     0     0   502     0  0.000000000E+00  0.000000000E+00  1.265667169E+03  1.265667169E+03  0.000000000E+00  0.00000E+00  9.000E+00
      21    -1     0     0   501   502  0.000000000E+00  0.000000000E+00 -5.649843316E+01  5.649843316E+01  0.000000000E+00  0.00000E+00  9.000E+00
      25     1     1     2     0     0 -1.104281059E+02  1.131911071E+02  2.532490751E+02  3.236768255E+02  1.250000000E+02  0.00000E+00  9.000E+00
      25     1     1     2     0     0  1.075151636E+02 -1.534850124E+02  6.108187101E+02  6.510312251E+02  1.250000000E+02  0.00000E+00  9.000E+00
       2     1     1     2   501     0  2.912942301E+00  4.029390528E+01  3.451009505E+02  3.474575515E+02  6.607249480E-06  0.00000E+00  9.000E+00
#rwgt            1           1   3.6473587520018988E-002           9      381179           0
</event>
<event>
      5   9999  3.79277E-02  1.68876E+01 -1.00000E+00  1.72668E-01
      21    -1     0     0   511   501  0.000000000E+00  0.000000000E+00  7.651933877E+01  7.651933877E+01  0.000000000E+00  0.00000E+00  9.000E+00
      21    -1     0     0   501   502  0.000000000E+00  0.000000000E+00 -5.931720907E+02  5.931720907E+02  0.000000000E+00  0.00000E+00  9.000E+00
      25     1     1     2     0     0  1.001983473E+02 -8.484607689E+01 -2.404681427E+02  3.011453025E+02  1.250000000E+02  0.00000E+00  9.000E+00
      25     1     1     2     0     0 -1.053854962E+02  1.009172664E+02 -2.892131374E+02  3.472169873E+02  1.250000000E+02  0.00000E+00  9.000E+00
      21     1     1     2   511   502  5.187148915E+00 -1.607118952E+01  1.302852821E+01  2.132913955E+01  4.460403188E-07  0.00000E+00  9.000E+00
#rwgt            1           1  0.10258311855448639                9      381268           0
</event>
<event>
      5   9999  3.79277E-02  2.58009E+01 -1.00000E+00  1.57732E-01
      21    -1     0     0   502   512  0.000000000E+00  0.000000000E+00  2.555718302E+02  2.555718302E+02  0.000000000E+00  0.00000E+00  9.000E+00
      21    -1     0     0   501   502  0.000000000E+00  0.000000000E+00 -1.053863026E+03  1.053863026E+03  0.000000000E+00  0.00000E+00  9.000E+00
      25     1     1     2     0     0  5.250156906E+01  1.279369245E+02 -4.887295416E+02  5.230734520E+02  1.250000000E+02  0.00000E+00  9.000E+00
      25     1     1     2     0     0 -4.707213997E+01 -1.027137963E+02 -5.342528465E+02  5.601937293E+02  1.250000000E+02  0.00000E+00  9.000E+00
      21     1     1     2   501   512 -5.429429096E+00 -2.522312820E+01  2.246911927E+02  2.261676745E+02  4.672030912E-06  0.00000E+00  9.000E+00
#rwgt            1           1   3.5833700805273865E-002           9      381483           0
</event>
<event>
      5   9999  3.79277E-02  1.04686E+02 -1.00000E+00  1.22940E-01
      21    -1     0     0   511   501  0.000000000E+00  0.000000000E+00  5.749381636E+02  5.749381636E+02  0.000000000E+00  0.00000E+00  9.000E+00
      21    -1     0     0   501   502  0.000000000E+00  0.000000000E+00 -1.386294444E+02  1.386294444E+02  0.000000000E+00  0.00000E+00  9.000E+00
      25     1     1     2     0     0  9.518732274E+01  9.168934655E+01  3.095087949E+02  3.590101068E+02  1.250000000E+02  0.00000E+00  9.000E+00
      25     1     1     2     0     0  2.349305240E+00 -1.297123658E+02 -1.217467021E+01  1.805658873E+02  1.250000000E+02  0.00000E+00  9.000E+00
      21     1     1     2   511   502 -9.753662798E+01  3.802301924E+01  1.389745945E+02  1.739916139E+02  0.000000000E+00  0.00000E+00  9.000E+00
#rwgt            1           1   3.7497433555994879E-002           9      381598           0
</event>
<event>
      5   9999  3.79277E-02  1.42880E+01 -1.00000E+00  1.79396E-01
      21    -1     0     0   502   501  0.000000000E+00  0.000000000E+00  7.837653912E+01  7.837653912E+01  0.000000000E+00  0.00000E+00  9.000E+00
      21    -1     0     0   501   512  0.000000000E+00  0.000000000E+00 -6.858772246E+02  6.858772246E+02  0.000000000E+00  0.00000E+00  9.000E+00
      25     1     1     2     0     0 -1.357423552E+02 -5.241229441E+00 -1.011703510E+02  2.105086635E+02  1.250000000E+02  0.00000E+00  9.000E+00
      25     1     1     2     0     0  1.483830193E+02  1.190169462E+01 -3.821511624E+02  4.287466405E+02  1.250000000E+02  0.00000E+00  9.000E+00
      21     1     1     2   502   512 -1.264066404E+01 -6.660465177E+00 -1.241791720E+02  1.249984597E+02  0.000000000E+00  0.00000E+00  9.000E+00
#rwgt            1           1   3.5073764820274286E-002           9      381653           0
</event>
<event>
      5   9999  3.79277E-02  1.08107E+01 -1.00000E+00  1.91923E-01
      21    -1     0     0   502   501  0.000000000E+00  0.000000000E+00  5.552815484E+02  5.552815484E+02  0.000000000E+00  0.00000E+00  9.000E+00
      21    -1     0     0   511   502  0.000000000E+00  0.000000000E+00 -1.274609614E+02  1.274609614E+02  0.000000000E+00  0.00000E+00  9.000E+00
      25     1     1     2     0     0 -9.722454446E+01  5.277648935E+01  4.762578423E+02  5.046627609E+02  1.250000000E+02  0.00000E+00  9.000E+00
      25     1     1     2     0     0  8.844833487E+01 -4.646379368E+01 -4.869215488E+01  1.672660097E+02  1.250000000E+02  0.00000E+00  9.000E+00
      21     1     1     2   511   501  8.776209593E+00 -6.312695674E+00  2.548996020E-01  1.081373919E+01  6.736495093E-08  0.00000E+00  9.000E+00
#rwgt            1           1   2.8997082009485035E-002           9      381891           0
</event>
<event>
      5   9999  3.79277E-02  1.34663E+02 -1.00000E+00  1.18281E-01
      21    -1     0     0   502   501  0.000000000E+00  0.000000000E+00  2.106286500E+02  2.106286500E+02  0.000000000E+00  0.00000E+00  9.000E+00
       2    -1     0     0   501     0  0.000000000E+00  0.000000000E+00 -1.681308244E+03  1.681308244E+03  0.000000000E+00  0.00000E+00  9.000E+00
      25     1     1     2     0     0 -5.567123137E+01  1.902997983E+02 -5.486988608E+01  2.407259929E+02  1.250000000E+02  0.00000E+00  9.000E+00
      25     1     1     2     0     0  1.894530759E+02 -1.749168042E+02 -6.516605232E+01  2.938706700E+02  1.250000000E+02  0.00000E+00  9.000E+00
       2     1     1     2   502     0 -1.337818445E+02 -1.538299413E+01 -1.350643656E+03  1.357340231E+03  1.525878906E-05  0.00000E+00  9.000E+00
#rwgt            2          13   2.0288191358975916E-003           9      382185           0
</event>
<event>
      5   9999  3.79277E-02  1.17153E+02 -1.00000E+00  1.20813E-01
      21    -1     0     0   502   501  0.000000000E+00  0.000000000E+00  1.414399722E+03  1.414399722E+03  0.000000000E+00  0.00000E+00  9.000E+00
      21    -1     0     0   501   511  0.000000000E+00  0.000000000E+00 -1.255999260E+02  1.255999260E+02  0.000000000E+00  0.00000E+00  9.000E+00
      25     1     1     2     0     0 -7.871434274E+01 -1.554534255E+02  2.275080829E+02  3.126445954E+02  1.250000000E+02  0.00000E+00  9.000E+00
      25     1     1     2     0     0  1.445082081E+02  5.852061718E+01  1.088824782E+03  1.107010249E+03  1.250000000E+02  0.00000E+00  9.000E+00
      21     1     1     2   502   511 -6.579386538E+01  9.693280835E+01 -2.753306857E+01  1.203448043E+02  2.545613826E-06  0.00000E+00  9.000E+00
#rwgt            1           1   4.0830098827428350E-002           9      382339           0
</event>
<event>
      5   9999  3.79277E-02  3.17977E+01 -1.00000E+00  1.51305E-01
      21    -1     0     0   502   501  0.000000000E+00  0.000000000E+00  4.682879772E+01  4.682879772E+01  0.000000000E+00  0.00000E+00  9.000E+00
      21    -1     0     0   501   512  0.000000000E+00  0.000000000E+00 -1.025993559E+03  1.025993559E+03  0.000000000E+00  0.00000E+00  9.000E+00
      25     1     1     2     0     0  9.774060816E+01 -9.194839193E+01 -5.417137729E+02  5.719148057E+02  1.250000000E+02  0.00000E+00  9.000E+00
      25     1     1     2     0     0 -9.177434944E+01  1.231813616E+02 -2.975003132E+02  3.573900047E+02  1.250000000E+02  0.00000E+00  9.000E+00
      21     1     1     2   502   512 -5.966258718E+00 -3.123296964E+01 -1.399506756E+02  1.435175468E+02  0.000000000E+00  0.00000E+00  9.000E+00
#rwgt            1           1   1.7473151312712779E-002           9      382411           0
</event>
<event>
      5   9999  3.79277E-02  3.48251E+01 -1.00000E+00  1.48673E-01
      21    -1     0     0   502   501  0.000000000E+00  0.000000000E+00  1.267758438E+02  1.267758438E+02  0.000000000E+00  0.00000E+00  9.000E+00
      21    -1     0     0   501   511  0.000000000E+00  0.000000000E+00 -4.109213596E+02  4.109213596E+02  0.000000000E+00  0.00000E+00  9.000E+00
      25     1     1     2     0     0  8.725581937E+01 -1.251536640E+02 -1.859837850E+02  2.710940536E+02  1.250000000E+02  0.00000E+00  9.000E+00
      25     1     1     2     0     0 -5.518308837E+01  1.115842581E+02 -1.572402106E+01  1.771114472E+02  1.250000000E+02  0.00000E+00  9.000E+00
      21     1     1     2   502   511 -3.207273099E+01  1.356940590E+01 -8.243770977E+01  8.949170264E+01  9.536743164E-07  0.00000E+00  9.000E+00
#rwgt            1           1   1.8657572548486819E-002           9      382650           0
</event>
<event>
      5   9999  3.79277E-02  1.19385E+02 -1.00000E+00  1.20463E-01
      21    -1     0     0   502   501  0.000000000E+00  0.000000000E+00  5.900814160E+02  5.900814160E+02  0.000000000E+00  0.00000E+00  9.000E+00
      -2    -1     0     0     0   502  0.000000000E+00  0.000000000E+00 -1.460103937E+03  1.460103937E+03  0.000000000E+00  0.00000E+00  9.000E+00
      25     1     1     2     0     0 -7.789001445E+01  2.503826285E+02  3.568044175E+02  4.601007578E+02  1.250000000E+02  0.00000E+00  9.000E+00
      25     1     1     2     0     0 -9.384649110E+00 -3.318442613E+02  2.734359765E+00  3.547409789E+02  1.250000000E+02  0.00000E+00  9.000E+00
      -2     1     1     2     0   501  8.727466356E+01  8.146163273E+01 -1.229561298E+03  1.235343617E+03  1.525878906E-05  0.00000E+00  9.000E+00
#rwgt            1           1   4.2533092580700663E-002           9      382794           0
</event>
<event>
      5   9999  3.79277E-02  1.24090E+01 -1.00000E+00  1.85511E-01
      21    -1     0     0   511   501  0.000000000E+00  0.000000000E+00  4.327231776E+02  4.327231776E+02  0.000000000E+00  0.00000E+00  9.000E+00
      21    -1     0     0   501   502  0.000000000E+00  0.000000000E+00 -2.214298358E+02  2.214298358E+02  0.000000000E+00  0.00000E+00  9.000E+00
      25     1     1     2     0     0 -1.759209530E+01  1.198703380E+02 -8.173566089E+01  1.923125009E+02  1.250000000E+02  0.00000E+00  9.000E+00
      25     1     1     2     0     0  6.832657035E+00 -1.136883535E+02  5.582052839E-01  1.691065892E+02  1.250000000E+02  0.00000E+00  9.000E+00
      21     1     1     2   511   502  1.075943826E+01 -6.181984490E+00  2.924707974E+02  2.927339232E+02  0.000000000E+00  0.00000E+00  9.000E+00
#rwgt            1           1   3.7841626961868956E-002           9      382912           0
</event>
<event>
      5   9999  3.79277E-02  1.19061E+01 -1.00000E+00  1.87387E-01
      21    -1     0     0   502   501  0.000000000E+00  0.000000000E+00  1.736029405E+03  1.736029405E+03  0.000000000E+00  0.00000E+00  9.000E+00
      21    -1     0     0   501   512  0.000000000E+00  0.000000000E+00 -5.005923001E+01  5.005923001E+01  0.000000000E+00  0.00000E+00  9.000E+00
      25     1     1     2     0     0 -3.529914138E+01 -1.019626905E+02  8.562604348E+02  8.720374716E+02  1.250000000E+02  0.00000E+00  9.000E+00
      25     1     1     2     0     0  2.443324492E+01  9.709563713E+01  8.634990468E+02  8.782255690E+02  1.250000000E+02  0.00000E+00  9.000E+00
      21     1     1     2   502   512  1.086589646E+01  4.867053382E+00 -3.378930705E+01  3.582559400E+01  1.348699152E-06  0.00000E+00  9.000E+00
#rwgt            1           1  0.13274640004866392                9      383097           0
</event>
<event>
      5   9999  3.79277E-02  5.64053E+01 -1.00000E+00  1.36153E-01
      21    -1     0     0   511   501  0.000000000E+00  0.000000000E+00  2.209273390E+02  2.209273390E+02  0.000000000E+00  0.00000E+00  9.000E+00
      21    -1     0     0   501   502  0.000000000E+00  0.000000000E+00 -7.414323118E+02  7.414323118E+02  0.000000000E+00  0.00000E+00  9.000E+00
      25     1     1     2     0     0  2.473856519E+02 -4.945130603E+01 -5.889501833E+02  6.527881823E+02  1.250000000E+02  0.00000E+00  9.000E+00
      25     1     1     2     0     0 -1.946980700E+02  6.959029560E+01  3.537221935E+01  2.441850561E+02  1.250000000E+02  0.00000E+00  9.000E+00
      21     1     1     2   511   502 -5.268758195E+01 -2.013898957E+01  3.307299119E+01  6.538641250E+01  1.066240300E-06  0.00000E+00  9.000E+00
#rwgt            1           1   3.8924862383316494E-002           9      383323           0
</event>
<event>
      5   9999  3.79277E-02  2.68039E+01 -1.00000E+00  1.56517E-01
      21    -1     0     0   502   501  0.000000000E+00  0.000000000E+00  1.371324380E+02  1.371324380E+02  0.000000000E+00  0.00000E+00  9.000E+00
      21    -1     0     0   501   512  0.000000000E+00  0.000000000E+00 -6.169170085E+02  6.169170085E+02  0.000000000E+00  0.00000E+00  9.000E+00
      25     1     1     2     0     0 -1.471986547E+02 -6.687104197E+01 -1.140213673E+02  2.340193420E+02  1.250000000E+02  0.00000E+00  9.000E+00
      25     1     1     2     0     0  1.204143076E+02  6.584660644E+01 -3.589366031E+01  1.890733612E+02  1.250000000E+02  0.00000E+00  9.000E+00
      21     1     1     2   502   512  2.678434715E+01  1.024435533E+00 -3.298695428E+02  3.309567434E+02  3.814697266E-06  0.00000E+00  9.000E+00
#rwgt            1           1   4.1884000117250790E-002           9      383458           0
</event>
<event>
      5   9999  3.79277E-02  1.62513E+02 -1.00000E+00  1.15031E-01
      21    -1     0     0   511   501  0.000000000E+00  0.000000000E+00  2.665726568E+02  2.665726568E+02  0.000000000E+00  0.00000E+00  9.000E+00
      21    -1     0     0   501   502  0.000000000E+00  0.000000000E+00 -5.243493956E+02  5.243493956E+02  0.000000000E+00  0.00000E+00  9.000E+00
      25     1     1     2     0     0  9.397838517E+01  1.183098922E+02 -1.490219044E+02  2.462959510E+02  1.250000000E+02  0.00000E+00  9.000E+00
      25     1     1     2     0     0 -1.783940185E+02 -2.571785865E+02 -1.615538923E+02  3.737511355E+02  1.250000000E+02  0.00000E+00  9.000E+00
      21     1     1     2   511   502  8.441563331E+01  1.388686944E+02  5.279905795E+01  1.708749658E+02  2.780414531E-06  0.00000E+00  9.000E+00
#rwgt            2          11   2.0185001123492713E-003           9      383651           0
</event>
<event>
      5   9999  3.79277E-02  3.54452E+01 -1.00000E+00  1.48173E-01
      21    -1     0     0   502   501  0.000000000E+00  0.000000000E+00  8.382228866E+02  8.382228866E+02  0.000000000E+00  0.00000E+00  9.000E+00
      21    -1     0     0   501   512  0.000000000E+00  0.000000000E+00 -8.377720056E+01  8.377720056E+01  0.000000000E+00  0.00000E+00  9.000E+00
      25     1     1     2     0     0  8.169584780E+01 -1.698474304E+02  2.262239458E+02  3.198822202E+02  1.250000000E+02  0.00000E+00  9.000E+00
      25     1     1     2     0     0 -7.539093138E+01  2.047273268E+02  4.842641395E+02  5.456499131E+02  1.250000000E+02  0.00000E+00  9.000E+00
      21     1     1     2   502   512 -6.304916418E+00 -3.487989647E+01  4.395760085E+01  5.646795394E+01  0.000000000E+00  0.00000E+00  9.000E+00
#rwgt            1           1   3.6028188239033601E-002           9      383701           0
</event>
<event>
      5   9999  3.79277E-02  3.94073E+01 -1.00000E+00  1.45243E-01
      21    -1     0     0   502   501  0.000000000E+00  0.000000000E+00  3.161301169E+02  3.161301169E+02  0.000000000E+00  0.00000E+00  9.000E+00
      21    -1     0     0   511   502  0.000000000E+00  0.000000000E+00 -2.250935952E+02  2.250935952E+02  0.000000000E+00  0.00000E+00  9.000E+00
      25     1     1     2     0     0 -4.638493997E+01  1.876995297E+02  8.918847869E+01  2.469053681E+02  1.250000000E+02  0.00000E+00  9.000E+00
      25     1     1     2     0     0  5.304108273E+01 -1.488584530E+02  7.190921922E+01  2.139348763E+02  1.250000000E+02  0.00000E+00  9.000E+00
      21     1     1     2   511   501 -6.656142763E+00 -3.884107662E+01 -7.006117617E+01  8.038346768E+01  1.651812370E-06  0.00000E+00  9.000E+00
#rwgt            1           1   3.5781863582088416E-002           9      383813           0
</event>
<event>
      5   9999  3.79277E-02  3.39056E+01 -1.00000E+00  1.49438E-01
      21    -1     0     0   512   501  0.000000000E+00  0.000000000E+00  1.620593808E+02  1.620593808E+02  0.000000000E+00  0.00000E+00  9.000E+00
      21    -1     0     0   501   502  0.000000000E+00  0.000000000E+00 -5.298622531E+02  5.298622531E+02  0.000000000E+00  0.00000E+00  9.000E+00
      25     1     1     2     0     0 -1.643020495E+02  8.379096581E+01 -2.949499419E+02  3.696438254E+02  1.250000000E+02  0.00000E+00  9.000E+00
      25     1     1     2     0     0  1.814236748E+02 -1.130559004E+02 -1.108873275E+02  2.713248713E+02  1.250000000E+02  0.00000E+00  9.000E+00
      21     1     1     2   512   502 -1.712162530E+01  2.926493454E+01  3.803439708E+01  5.095293718E+01  1.261592536E-06  0.00000E+00  9.000E+00
#rwgt            1           1   3.3946421158711340E-002           9      383994           0
</event>
<event>
      5   9999  3.79277E-02  2.18128E+02 -1.00000E+00  1.10293E-01
       2    -1     0     0   502     0  0.000000000E+00  0.000000000E+00  1.223678649E+03  1.223678649E+03  0.000000000E+00  0.00000E+00  9.000E+00
      21    -1     0     0   501   502  0.000000000E+00  0.000000000E+00 -1.397159327E+02  1.397159327E+02  0.000000000E+00  0.00000E+00  9.000E+00
      25     1     1     2     0     0 -1.942176598E+02 -1.955535413E+02  1.667790806E+02  3.455458705E+02  1.250000000E+02  0.00000E+00  9.000E+00
      25     1     1     2     0     0  1.294335991E+02 -1.273144849E+01  2.052752943E+02  2.732729273E+02  1.250000000E+02  0.00000E+00  9.000E+00
       2     1     1     2   501     0  6.478406071E+01  2.082849898E+02  7.119083416E+02  7.445757841E+02  0.000000000E+00  0.00000E+00  9.000E+00
#rwgt            2          18   4.8090348157228777E-004           9      384117           0
</event>
<event>
      5   9999  3.79277E-02  1.37631E+02 -1.00000E+00  1.17894E-01
      21    -1     0     0   502   501  0.000000000E+00  0.000000000E+00  1.307808282E+03  1.307808282E+03  0.000000000E+00  0.00000E+00  9.000E+00
      21    -1     0     0   511   502  0.000000000E+00  0.000000000E+00 -1.327855732E+02  1.327855732E+02  0.000000000E+00  0.00000E+00  9.000E+00
      25     1     1     2     0     0 -2.365248473E+02  1.457498325E+02  2.706020786E+02  4.074769957E+02  1.250000000E+02  0.00000E+00  9.000E+00
      25     1     1     2     0     0  3.155882071E+02 -3.309417882E+01  7.631276594E+02  8.358707829E+02  1.250000000E+02  0.00000E+00  9.000E+00
      21     1     1     2   511   501 -7.906335975E+01 -1.126556537E+02  1.412929710E+02  1.972460768E+02  3.814697266E-06  0.00000E+00  9.000E+00
#rwgt            1           1   3.9458496658850449E-002           9      384151           0
</event>
<event>
      5   9999  3.79277E-02  4.56910E+01 -1.00000E+00  1.41346E-01
      21    -1     0     0   502   501  0.000000000E+00  0.000000000E+00  6.268849720E+02  6.268849720E+02  0.000000000E+00  0.00000E+00  9.000E+00
      21    -1     0     0   512   502  0.000000000E+00  0.000000000E+00 -2.124936128E+02  2.124936128E+02  0.000000000E+00  0.00000E+00  9.000E+00
      25     1     1     2     0     0  1.351944330E+02  9.716783726E+01  1.394026333E+01  2.086587028E+02  1.250000000E+02  0.00000E+00  9.000E+00
      25     1     1     2     0     0 -1.262042477E+02 -1.419656313E+02  4.844142031E+02  5.351297719E+02  1.250000000E+02  0.00000E+00  9.000E+00
      21     1     1     2   512   501 -8.990185297E+00  4.479779399E+01 -8.396310716E+01  9.559011006E+01  1.907348633E-06  0.00000E+00  9.000E+00
#rwgt            1           1   4.1808628430223600E-002           9      384270           0
</event>
<event>
      5   9999 -3.79277E-02  1.18839E+02 -1.00000E+00  1.20548E-01
      21    -1     0     0   502   501  0.000000000E+00  0.000000000E+00  3.017061113E+02  3.017061113E+02  0.000000000E+00  0.00000E+00  9.000E+00
      -1    -1     0     0     0   502  0.000000000E+00  0.000000000E+00 -4.396432645E+02  4.396432645E+02  0.000000000E+00  0.00000E+00  9.000E+00
      25     1     1     2     0     0  2.391458773E+02 -2.700590541E+01 -2.693736547E+01  2.725264963E+02  1.250000000E+02  0.00000E+00  9.000E+00
      25     1     1     2     0     0 -1.434005080E+02  9.740071523E+01  9.272784840E+01  2.329679353E+02  1.250000000E+02  0.00000E+00  9.000E+00
      -1     1     1     2     0   501 -9.574536930E+01 -7.039480982E+01 -2.037276361E+02  2.358549442E+02  0.000000000E+00  0.00000E+00  9.000E+00
#rwgt            1           1 -0.14909658406668447                9      384538           0
</event>
<event>
      5   9999  3.79277E-02  1.06261E+01 -1.00000E+00  1.92757E-01
      21    -1     0     0   502   501  0.000000000E+00  0.000000000E+00  1.976686784E+02  1.976686784E+02  0.000000000E+00  0.00000E+00  9.000E+00
      21    -1     0     0   511   502  0.000000000E+00  0.000000000E+00 -3.856485105E+02  3.856485105E+02  0.000000000E+00  0.00000E+00  9.000E+00
      25     1     1     2     0     0  5.780130495E+01  1.188175902E+02  4.156243012E+01  1.865771856E+02  1.250000000E+02  0.00000E+00  9.000E+00
      25     1     1     2     0     0 -6.379722327E+01 -1.275904276E+02 -2.429614256E+01  1.912189986E+02  1.250000000E+02  0.00000E+00  9.000E+00
      21     1     1     2   511   501  5.995918311E+00  8.772837351E+00 -2.052461196E+02  2.055210046E+02  0.000000000E+00  0.00000E+00  9.000E+00
#rwgt            1           1   3.7643004424660689E-002           9      384682           0
</event>
<event>
      5   9999  3.79277E-02  9.50390E+01 -1.00000E+00  1.24830E-01
      21    -1     0     0   512   501  0.000000000E+00  0.000000000E+00  4.568102124E+01  4.568102124E+01  0.000000000E+00  0.00000E+00  9.000E+00
      21    -1     0     0   501   502  0.000000000E+00  0.000000000E+00 -9.836209650E+02  9.836209650E+02  0.000000000E+00  0.00000E+00  9.000E+00
      25     1     1     2     0     0 -6.441353859E+01 -1.154181724E+01 -2.145416950E+02  2.567790030E+02  1.250000000E+02  0.00000E+00  9.000E+00
      25     1     1     2     0     0  7.047069769E+00  8.731452749E+01 -5.853430974E+02  6.049173741E+02  1.250000000E+02  0.00000E+00  9.000E+00
      21     1     1     2   512   502  5.736646883E+01 -7.577271025E+01 -1.380551514E+02  1.676056090E+02  2.697398305E-06  0.00000E+00  9.000E+00
#rwgt            1           1   3.2113286961644637E-002           9      384943           0
</event>
<event>
      5   9999  3.79277E-02  9.67906E+00 -1.00000E+00  1.97409E-01
      21    -1     0     0   502   501  0.000000000E+00  0.000000000E+00  4.034119509E+03  4.034119509E+03  0.000000000E+00  0.00000E+00  9.000E+00
      21    -1     0     0   501   511  0.000000000E+00  0.000000000E+00 -2.620528425E+01  2.620528425E+01  0.000000000E+00  0.00000E+00  9.000E+00
      25     1     1     2     0     0  4.425645536E+01 -1.033601695E+02  2.470805705E+03  2.476519289E+03  1.250000000E+02  0.00000E+00  9.000E+00
      25     1     1     2     0     0 -3.736193528E+01  1.101535327E+02  1.554528179E+03  1.563877417E+03  1.250000000E+02  0.00000E+00  9.000E+00
      21     1     1     2   502   511 -6.894520082E+00 -6.793363237E+00 -1.741965850E+01  1.992808805E+01  2.419684306E-06  0.00000E+00  9.000E+00
#rwgt            1           1   3.1982466931658494E-003           9      385042           0
</event>
<event>
      5   9999  3.79277E-02  1.16749E+01 -1.00000E+00  1.88291E-01
      21    -1     0     0   512   501  0.000000000E+00  0.000000000E+00  3.178284023E+01  3.178284023E+01  0.000000000E+00  0.00000E+00  9.000E+00
      21    -1     0     0   501   502  0.000000000E+00  0.000000000E+00 -7.073426044E+02  7.073426044E+02  0.000000000E+00  0.00000E+00  9.000E+00
      25     1     1     2     0     0 -1.985966265E+01 -4.845194273E+01 -4.585066689E+02  4.781164737E+02  1.250000000E+02  0.00000E+00  9.000E+00
      25     1     1     2     0     0  1.965216066E+01  3.677890577E+01 -2.080342685E+02  2.462562734E+02  1.250000000E+02  0.00000E+00  9.000E+00
      21     1     1     2   512   502  2.075019939E-01  1.167303696E+01 -9.018826794E+00  1.475269757E+01  0.000000000E+00  0.00000E+00  9.000E+00
#rwgt            1           1   4.2095129753304532E-002           9      385296           0
</event>
<event>
      5   9999  3.79277E-02  3.79857E+01 -1.00000E+00  1.46246E-01
      21    -1     0     0   502   511  0.000000000E+00  0.000000000E+00  6.404299444E+01  6.404299444E+01  0.000000000E+00  0.00000E+00  9.000E+00
      21    -1     0     0   501   502  0.000000000E+00  0.000000000E+00 -1.188637676E+03  1.188637676E+03  0.000000000E+00  0.00000E+00  9.000E+00
      25     1     1     2     0     0  1.272601517E+02 -1.511245368E+01 -7.616608466E+02  7.824166267E+02  1.250000000E+02  0.00000E+00  9.000E+00
      25     1     1     2     0     0 -8.930134028E+01  1.654104407E+01 -3.927012108E+02  4.220042375E+02  1.250000000E+02  0.00000E+00  9.000E+00
      21     1     1     2   501   511 -3.795881145E+01 -1.428590388E+00  2.976737582E+01  4.825980626E+01  2.078484985E-06  0.00000E+00  9.000E+00
#rwgt            1           1   4.4573644537532549E-002           9      385394           0
</event>
<event>
      5   9999 -3.79277E-02  2.19388E+02 -1.00000E+00  1.10205E-01
      21    -1     0     0   502   501  0.000000000E+00  0.000000000E+00  1.758943943E+03  1.758943943E+03  0.000000000E+00  0.00000E+00  9.000E+00
      21    -1     0     0   501   512  0.000000000E+00  0.000000000E+00 -1.054367930E+02  1.054367930E+02  0.000000000E+00  0.00000E+00  9.000E+00
      25     1     1     2     0     0  1.159369169E+02  1.594155921E+02  1.152125068E+03  1.175530464E+03  1.250000000E+02  0.00000E+00  9.000E+00
      25     1     1     2     0     0  9.222634510E+01 -9.013904500E+01  4.165742795E+02  4.536406910E+02  1.250000000E+02  0.00000E+00  9.000E+00
      21     1     1     2   502   512 -2.081632620E+02 -6.927654710E+01  8.480780267E+01  2.352095810E+02  1.348699152E-06  0.00000E+00  9.000E+00
#rwgt            1           1  -6.9101309389153792E-002           9      385502           0
</event>
<event>
      5   9999  3.79277E-02  4.79691E+01 -1.00000E+00  1.40111E-01
      21    -1     0     0   511   501  0.000000000E+00  0.000000000E+00  1.208887695E+03  1.208887695E+03  0.000000000E+00  0.00000E+00  9.000E+00
      21    -1     0     0   501   502  0.000000000E+00  0.000000000E+00 -6.819702443E+01  6.819702443E+01  0.000000000E+00  0.00000E+00  9.000E+00
      25     1     1     2     0     0  9.312141915E+01 -4.763409338E+01  6.040039850E+01  1.738212119E+02  1.250000000E+02  0.00000E+00  9.000E+00
      25     1     1     2     0     0 -8.039938331E+01  9.388540533E+01  8.285864706E+02  8.470295564E+02  1.250000000E+02  0.00000E+00  9.000E+00
      21     1     1     2   511   502 -1.272203583E+01 -4.625131195E+01  2.517038016E+02  2.562339513E+02  2.697398305E-06  0.00000E+00  9.000E+00
#rwgt            1           1   4.2738362204332865E-002           9      385553           0
</event>
<event>
      5   9999  3.79277E-02  4.63019E+01 -1.00000E+00  1.41007E-01
      21    -1     0     0   512   501  0.000000000E+00  0.000000000E+00  6.061740438E+02  6.061740438E+02  0.000000000E+00  0.00000E+00  9.000E+00
      21    -1     0     0   501   502  0.000000000E+00  0.000000000E+00 -7.874416110E+01  7.874416110E+01  0.000000000E+00  0.00000E+00  9.000E+00
      25     1     1     2     0     0 -7.119358412E+01 -9.772947477E+01  1.072290728E+02  2.043101826E+02  1.250000000E+02  0.00000E+00  9.000E+00
      25     1     1     2     0     0  1.136200239E+02  7.918596612E+01  3.248504967E+02  3.746101604E+02  1.250000000E+02  0.00000E+00  9.000E+00
      21     1     1     2   512   502 -4.242643977E+01  1.854350865E+01  9.535031310E+01  1.059978618E+02  1.348699152E-06  0.00000E+00  9.000E+00
#rwgt            1           1   9.0409493338751812E-002           9      385692           0
</event>
<event>
      5   9999 -3.79277E-02  5.23321E+01 -1.00000E+00  1.37955E-01
      21    -1     0     0   502   511  0.000000000E+00  0.000000000E+00  1.011212053E+02  1.011212053E+02  0.000000000E+00  0.00000E+00  9.000E+00
      21    -1     0     0   501   502  0.000000000E+00  0.000000000E+00 -1.916746569E+03  1.916746569E+03  0.000000000E+00  0.00000E+00  9.000E+00
      25     1     1     2     0     0 -3.684334075E+02  5.913172145E+01 -1.034862921E+03  1.107161235E+03  1.250000000E+02  0.00000E+00  9.000E+00
      25     1     1     2     0     0  3.226472857E+02 -8.447498082E+01 -7.809888134E+02  8.583739395E+02  1.250000000E+02  0.00000E+00  9.000E+00
      21     1     1     2   501   511  4.578612183E+01  2.534325937E+01  2.263701337E-01  5.233259970E+01  1.071738244E-06  0.00000E+00  9.000E+00
#rwgt            1           1  -5.5333169353887747E-002           9      385771           0
</event>
<event>
      5   9999  3.79277E-02  1.48519E+01 -1.00000E+00  1.77791E-01
      21    -1     0     0   512   501  0.000000000E+00  0.000000000E+00  1.345474872E+02  1.345474872E+02  0.000000000E+00  0.00000E+00  9.000E+00
      21    -1     0     0   501   502  0.000000000E+00  0.000000000E+00 -4.576507960E+02  4.576507960E+02  0.000000000E+00  0.00000E+00  9.000E+00
      25     1     1     2     0     0 -5.445045639E+00 -1.985654314E+02 -1.908294820E+02  3.024876366E+02  1.250000000E+02  0.00000E+00  9.000E+00
      25     1     1     2     0     0  1.862478414E+01  2.054118404E+02 -1.318244657E+02  2.748519539E+02  1.250000000E+02  0.00000E+00  9.000E+00
      21     1     1     2   512   502 -1.317973850E+01 -6.846409004E+00 -4.493609798E-01  1.485869269E+01  2.356669404E-07  0.00000E+00  9.000E+00
#rwgt            1           1  0.18189989759798345                9      385899           0
</event>
<event>
      5   9999  3.79277E-02  4.46158E+01 -1.00000E+00  1.41959E-01
      21    -1     0     0   502   501  0.000000000E+00  0.000000000E+00  1.210072288E+03  1.210072288E+03  0.000000000E+00  0.00000E+00  9.000E+00
      21    -1     0     0   511   502  0.000000000E+00  0.000000000E+00 -4.912145023E+01  4.912145023E+01  0.000000000E+00  0.00000E+00  9.000E+00
      25     1     1     2     0     0  1.265617168E+02 -9.144959183E+01  3.917473769E+02  4.398544115E+02  1.250000000E+02  0.00000E+00  9.000E+00
      25     1     1     2     0     0 -1.408464098E+02  4.918240835E+01  7.419599770E+02  7.670633793E+02  1.250000000E+02  0.00000E+00  9.000E+00
      21     1     1     2   511   501  1.428469301E+01  4.226718348E+01  2.724348369E+01  5.227594721E+01  1.581489940E-06  0.00000E+00  9.000E+00
#rwgt            1           1   3.8315654788662196E-002           9      386274           0
</event>
<event>
      5   9999  3.79277E-02  1.14792E+02 -1.00000E+00  1.21192E-01
      21    -1     0     0   502   512  0.000000000E+00  0.000000000E+00  2.119009649E+03  2.119009649E+03  0.000000000E+00  0.00000E+00  9.000E+00
      21    -1     0     0   501   502  0.000000000E+00  0.000000000E+00 -4.104861975E+01  4.104861975E+01  0.000000000E+00  0.00000E+00  9.000E+00
      25     1     1     2     0     0  8.380521867E+01 -2.384208087E+01  8.393875720E+02  8.531050671E+02  1.250000000E+02  0.00000E+00  9.000E+00
      25     1     1     2     0     0 -3.156369479E+01 -7.837372333E+01  1.514204114E+02  2.137565165E+02  1.250000000E+02  0.00000E+00  9.000E+00
      21     1     1     2   501   512 -5.224152388E+01  1.022158042E+02  1.087153046E+03  1.093196685E+03  1.525878906E-05  0.00000E+00  9.000E+00
#rwgt            1           1   6.5113686423956235E-002           9      386572           0
</event>
<event>
      5   9999  3.79277E-02  1.38027E+01 -1.00000E+00  1.80856E-01
      21    -1     0     0   511   501  0.000000000E+00  0.000000000E+00  1.982082059E+02  1.982082059E+02  0.000000000E+00  0.00000E+00  9.000E+00
      21    -1     0     0   501   502  0.000000000E+00  0.000000000E+00 -1.818210037E+03  1.818210037E+03  0.000000000E+00  0.00000E+00  9.000E+00
      25     1     1     2     0     0 -1.723056588E+02  8.102895001E+01 -1.355435529E+03  1.374440033E+03  1.250000000E+02  0.00000E+00  9.000E+00
      25     1     1     2     0     0  1.680172574E+02 -6.790929450E+01 -4.262293828E+02  4.797269618E+02  1.250000000E+02  0.00000E+00  9.000E+00
      21     1     1     2   511   502  4.288401369E+00 -1.311965552E+01  1.616630810E+02  1.622512481E+02  5.394796609E-06  0.00000E+00  9.000E+00
#rwgt            1           1   3.8673563356129224E-002           9      386684           0
</event>
<event>
      5   9999  3.79277E-02  1.27101E+01 -1.00000E+00  1.84441E-01
      21    -1     0     0   502   501  0.000000000E+00  0.000000000E+00  2.283182788E+02  2.283182788E+02  0.000000000E+00  0.00000E+00  9.000E+00
      21    -1     0     0   512   502  0.000000000E+00  0.000000000E+00 -3.779045006E+02  3.779045006E+02  0.000000000E+00  0.00000E+00  9.000E+00
      25     1     1     2     0     0 -1.509295146E+02  1.511101546E+02 -1.762963155E+02  3.038410572E+02  1.250000000E+02  0.00000E+00  9.000E+00
      25     1     1     2     0     0  1.382287565E+02 -1.506236328E+02  7.607236987E+01  2.514093740E+02  1.250000000E+02  0.00000E+00  9.000E+00
      21     1     1     2   512   501  1.270075817E+01 -4.865218483E-01 -4.936227620E+01  5.097234813E+01  6.743495762E-07  0.00000E+00  9.000E+00
#rwgt            1           1   3.5449090063616462E-002           9      386930           0
</event>
<event>
      5   9999 -3.79277E-02  2.86199E+01 -1.00000E+00  1.54474E-01
      21    -1     0     0   502   501  0.000000000E+00  0.000000000E+00  9.253378927E+01  9.253378927E+01  0.000000000E+00  0.00000E+00  9.000E+00
      21    -1     0     0   501   511  0.000000000E+00  0.000000000E+00 -9.578164306E+02  9.578164306E+02  0.000000000E+00  0.00000E+00  9.000E+00
      25     1     1     2     0     0 -2.257782281E+02 -3.984065591E+01 -2.286653707E+02  3.470964389E+02  1.250000000E+02  0.00000E+00  9.000E+00
      25     1     1     2     0     0  1.990088615E+02  4.996479941E+01 -4.129199639E+02  4.777330894E+02  1.250000000E+02  0.00000E+00  9.000E+00
      21     1     1     2   502   511  2.676936654E+01 -1.012414350E+01 -2.236973068E+02  2.255206916E+02  0.000000000E+00  0.00000E+00  9.000E+00
#rwgt            1           1  -9.5829321138569332E-002           9      387097           0
</event>
<event>
      5   9999  3.79277E-02  5.17579E+01 -1.00000E+00  1.38225E-01
      21    -1     0     0   512   501  0.000000000E+00  0.000000000E+00  6.310090276E+02  6.310090276E+02  0.000000000E+00  0.00000E+00  9.000E+00
      21    -1     0     0   501   502  0.000000000E+00  0.000000000E+00 -9.346279864E+01  9.346279864E+01  0.000000000E+00  0.00000E+00  9.000E+00
      25     1     1     2     0     0  1.050460647E+02 -7.361308516E+01  8.660919247E+01  1.989465110E+02  1.250000000E+02  0.00000E+00  9.000E+00
      25     1     1     2     0     0 -1.561031432E+02  8.210175348E+01  3.867701089E+02  4.430857777E+02  1.250000000E+02  0.00000E+00  9.000E+00
      21     1     1     2   512   502  5.105707856E+01 -8.488668321E+00  6.416692761E+01  8.243953760E+01  1.348699152E-06  0.00000E+00  9.000E+00
#rwgt            1           1   2.4120164133506192E-002           9      387263           0
</event>
<event>
      5   9999 -3.79277E-02  5.81423E+01 -1.00000E+00  1.35437E-01
      21    -1     0     0   502   501  0.000000000E+00  0.000000000E+00  9.897678402E+02  9.897678402E+02  0.000000000E+00  0.00000E+00  9.000E+00
      21    -1     0     0   501   511  0.000000000E+00  0.000000000E+00 -3.092529325E+02  3.092529325E+02  0.000000000E+00  0.00000E+00  9.000E+00
      25     1     1     2     0     0  1.308720603E+02  1.899840231E+02  2.706422503E+02  3.769531175E+02  1.250000000E+02  0.00000E+00  9.000E+00
      25     1     1     2     0     0 -7.764102772E+01 -2.133716462E+02  6.369489058E+02  6.876659779E+02  1.250000000E+02  0.00000E+00  9.000E+00
      21     1     1     2   502   511 -5.323103263E+01  2.338762315E+01 -2.270762483E+02  2.344016772E+02  5.394796609E-06  0.00000E+00  9.000E+00
#rwgt            1           1  -3.7524369894043660E-002           9      387544           0
</event>
<event>
      5   9999  3.79277E-02  2.60853E+01 -1.00000E+00  1.57381E-01
      21    -1     0     0   502   501  0.000000000E+00  0.000000000E+00  8.744417093E+01  8.744417093E+01  0.000000000E+00  0.00000E+00  9.000E+00
      21    -1     0     0   501   512  0.000000000E+00  0.000000000E+00 -1.653141886E+03  1.653141886E+03  0.000000000E+00  0.00000E+00  9.000E+00
      25     1     1     2     0     0 -3.312446078E+01  1.249307456E+02 -5.982324963E+01  1.894960218E+02  1.250000000E+02  0.00000E+00  9.000E+00
      25     1     1     2     0     0  4.812350923E+01 -1.462724949E+02 -4.155591570E+02  4.604627323E+02  1.250000000E+02  0.00000E+00  9.000E+00
      21     1     1     2   502   512 -1.499904845E+01  2.134174937E+01 -1.090315308E+03  1.090627303E+03  2.157918644E-05  0.00000E+00  9.000E+00
#rwgt            1           1   3.0629959328477299E-002           9      387624           0
</event>
<event>
      5   9999  3.79277E-02  2.62402E+01 -1.00000E+00  1.57192E-01
      21    -1     0     0   511   501  0.000000000E+00  0.000000000E+00  1.469034682E+02  1.469034682E+02  0.000000000E+00  0.00000E+00  9.000E+00
      21    -1     0     0   501   502  0.000000000E+00  0.000000000E+00 -6.634991201E+02  6.634991201E+02  0.000000000E+00  0.00000E+00  9.000E+00
      25     1     1     2     0     0  1.039810791E+02  2.448838264E+02 -3.110443057E+02  4.279646169E+02  1.250000000E+02  0.00000E+00  9.000E+00
      25     1     1     2     0     0 -1.203538699E+02 -2.243781756E+02 -2.135023903E+02  3.550195633E+02  1.250000000E+02  0.00000E+00  9.000E+00
      21     1     1     2   511   502  1.637279080E+01 -2.050565081E+01  7.951044021E+00  2.741840796E+01  4.380028980E-07  0.00000E+00  9.000E+00
#rwgt            1           1   8.9529913590549973E-002           9      387784           0
</event>
<event>
      5   9999  3.79277E-02  1.62545E+01 -1.00000E+00  1.74159E-01
      21    -1     0     0   502   512  0.000000000E+00  0.000000000E+00  1.647070345E+03  1.647070345E+03  0.000000000E+00  0.00000E+00  9.000E+00
      21    -1     0     0   501   502  0.000000000E+00  0.000000000E+00 -3.349623038E+01  3.349623038E+01  0.000000000E+00  0.00000E+00  9.000E+00
      25     1     1     2     0     0 -1.629631938E+02 -6.472674987E+01  6.124275751E+02  6.491834020E+02  1.250000000E+02  0.00000E+00  9.000E+00
      25     1     1     2     0     0  1.572458479E+02  7.994250361E+01  7.731928269E+02  8.028506761E+02  1.250000000E+02  0.00000E+00  9.000E+00
      21     1     1     2   501   512  5.717345896E+00 -1.521575374E+01  2.279537123E+02  2.285324970E+02  0.000000000E+00  0.00000E+00  9.000E+00
#rwgt            1           1   4.3102446748687878E-002           9      387956           0
</event>
<event>
      5   9999  3.79277E-02  9.49161E+00 -1.00000E+00  1.98414E-01
      21    -1     0     0   502   501  0.000000000E+00  0.000000000E+00  1.294967256E+02  1.294967256E+02  0.000000000E+00  0.00000E+00  9.000E+00
       1    -1     0     0   501     0  0.000000000E+00  0.000000000E+00 -2.763706412E+03  2.763706412E+03  0.000000000E+00  0.00000E+00  9.000E+00
      25     1     1     2     0     0 -2.154582237E+02  7.304977076E+01 -9.512707345E+01  2.764646004E+02  1.250000000E+02  0.00000E+00  9.000E+00
      25     1     1     2     0     0  2.155812806E+02 -8.254058067E+01 -4.050120423E+02  4.826468589E+02  1.250000000E+02  0.00000E+00  9.000E+00
       1     1     1     2   502     0 -1.230568532E-01  9.490809915E+00 -2.134070571E+03  2.134091679E+03  3.051757812E-05  0.00000E+00  9.000E+00
#rwgt            1           1   3.1836212763274099E-002           9      388155           0
</event>
<event>
      5   9999  3.79277E-02  5.35949E+01 -1.00000E+00  1.37377E-01
      21    -1     0     0   502   501  0.000000000E+00  0.000000000E+00  2.385953633E+02  2.385953633E+02  0.000000000E+00  0.00000E+00  9.000E+00
       2    -1     0     0   501     0  0.000000000E+00  0.000000000E+00 -2.380770166E+03  2.380770166E+03  0.000000000E+00  0.00000E+00  9.000E+00
      25     1     1     2     0     0  1.856580429E+02 -2.928897361E+02  5.041909869E+01  3.720489106E+02  1.250000000E+02  0.00000E+00  9.000E+00
      25     1     1     2     0     0 -2.145066040E+02  2.477214711E+02 -1.125516579E+03  1.178894219E+03  1.250000000E+02  0.00000E+00  9.000E+00
       2     1     1     2   502     0  2.884856116E+01  4.516826502E+01 -1.067077323E+03  1.068422400E+03  2.157918644E-05  0.00000E+00  9.000E+00
#rwgt            1           1  0.30573816554838557                9      388558           0
</event>
<event>
      5   9999  3.79277E-02  3.51687E+01 -1.00000E+00  1.48395E-01
      21    -1     0     0   511   501  0.000000000E+00  0.000000000E+00  6.598309463E+02  6.598309463E+02  0.000000000E+00  0.00000E+00  9.000E+00
      21    -1     0     0   501   502  0.000000000E+00  0.000000000E+00 -7.115340948E+01  7.115340948E+01  0.000000000E+00  0.00000E+00  9.000E+00
      25     1     1     2     0     0 -7.193539463E+01  7.028496463E+00  4.175546249E+01  1.503084143E+02  1.250000000E+02  0.00000E+00  9.000E+00
      25     1     1     2     0     0  9.814266878E+01  1.642395282E+01  4.568024206E+02  4.839371665E+02  1.250000000E+02  0.00000E+00  9.000E+00
      21     1     1     2   511   502 -2.620727415E+01 -2.345244928E+01  9.011965376E+01  9.673877500E+01  2.132480600E-06  0.00000E+00  9.000E+00
#rwgt            1           1   4.2828782484696584E-002           9      388776           0
</event>
<event>
      5   9999  3.79277E-02  2.96500E+01 -1.00000E+00  1.53395E-01
      21    -1     0     0   502   512  0.000000000E+00  0.000000000E+00  1.231031567E+03  1.231031567E+03  0.000000000E+00  0.00000E+00  9.000E+00
      21    -1     0     0   501   502  0.000000000E+00  0.000000000E+00 -4.096006797E+02  4.096006797E+02  0.000000000E+00  0.00000E+00  9.000E+00
      25     1     1     2     0     0  8.881392630E+01 -4.426325602E+02  7.214708785E+02  8.602073735E+02  1.250000000E+02  0.00000E+00  9.000E+00
      25     1     1     2     0     0 -6.827366817E+01  4.640152772E+02 -1.658734887E+02  5.129429651E+02  1.250000000E+02  0.00000E+00  9.000E+00
      21     1     1     2   501   512 -2.054025812E+01 -2.138271701E+01  2.658334973E+02  2.674819079E+02  6.607249480E-06  0.00000E+00  9.000E+00
#rwgt            1           1   3.8817468116372218E-002           9      388892           0
</event>
<event>
      5   9999  3.79277E-02  2.18721E+01 -1.00000E+00  1.63225E-01
      21    -1     0     0   502   501  0.000000000E+00  0.000000000E+00  1.840040111E+02  1.840040111E+02  0.000000000E+00  0.00000E+00  9.000E+00
      21    -1     0     0   501   511  0.000000000E+00  0.000000000E+00 -2.518716111E+03  2.518716111E+03  0.000000000E+00  0.00000E+00  9.000E+00
      25     1     1     2     0     0 -7.198322193E+01  2.714019020E+02 -2.123684821E+02  3.735852632E+02  1.250000000E+02  0.00000E+00  9.000E+00
      25     1     1     2     0     0  8.763240423E+01 -2.561214460E+02 -1.117450378E+02  3.184173156E+02  1.250000000E+02  0.00000E+00  9.000E+00
      21     1     1     2   502   511 -1.564918230E+01 -1.528045597E+01 -2.010598580E+03  2.010717543E+03  2.157918644E-05  0.00000E+00  9.000E+00
#rwgt            1           1   3.9507591990094348E-002           9      389131           0
</event>
<event>
      5   9999  3.79277E-02  2.09668E+01 -1.00000E+00  1.64695E-01
      21    -1     0     0   502   501  0.000000000E+00  0.000000000E+00  1.877914283E+03  1.877914283E+03  0.000000000E+00  0.00000E+00  9.000E+00
      21    -1     0     0   501   512  0.000000000E+00  0.000000000E+00 -5.375708381E+01  5.375708381E+01  0.000000000E+00  0.00000E+00  9.000E+00
      25     1     1     2     0     0 -3.222675029E+01 -2.841554133E+02  8.185271862E+02  8.760106260E+02  1.250000000E+02  0.00000E+00  9.000E+00
      25     1     1     2     0     0  4.554956954E+01  2.679655629E+02  9.577957508E+02  1.003433110E+03  1.250000000E+02  0.00000E+00  9.000E+00
      21     1     1     2   502   512 -1.332281925E+01  1.618985043E+01  4.783426211E+01  5.222763064E+01  6.743495762E-07  0.00000E+00  9.000E+00
#rwgt            1           1  0.13782312350384490                9      389341           0
</event>
<event>
      5   9999  3.79277E-02  4.40073E+01 -1.00000E+00  1.42315E-01
      21    -1     0     0   502   501  0.000000000E+00  0.000000000E+00  1.260012679E+02  1.260012679E+02  0.000000000E+00  0.00000E+00  9.000E+00
      21    -1     0     0   501   511  0.000000000E+00  0.000000000E+00 -6.164612017E+02  6.164612017E+02  0.000000000E+00  0.00000E+00  9.000E+00
      25     1     1     2     0     0  5.290733522E+01  5.343872851E+01 -2.036036370E+02  2.504682112E+02  1.250000000E+02  0.00000E+00  9.000E+00
      25     1     1     2     0     0 -7.840450897E+01 -1.757037933E+01  4.653359972E+01  1.557124310E+02  1.250000000E+02  0.00000E+00  9.000E+00
      21     1     1     2   502   511  2.549717375E+01 -3.586834919E+01 -3.333898966E+02  3.362818275E+02  6.607249480E-06  0.00000E+00  9.000E+00
#rwgt            1           1   3.0536387475311382E-002           9      389506           0
</event>
<event>
      5   9999  3.79277E-02  1.41310E+01 -1.00000E+00  1.79861E-01
      21    -1     0     0   512   501  0.000000000E+00  0.000000000E+00  1.816432001E+02  1.816432001E+02  0.000000000E+00  0.00000E+00  9.000E+00
      21    -1     0     0   501   502  0.000000000E+00  0.000000000E+00 -2.719859297E+02  2.719859297E+02  0.000000000E+00  0.00000E+00  9.000E+00
      25     1     1     2     0     0 -1.562487562E+02  4.161700867E+01  1.208883118E+01  2.047359008E+02  1.250000000E+02  0.00000E+00  9.000E+00
      25     1     1     2     0     0  1.445896417E+02 -4.960134969E+01 -1.162399997E+02  2.291357587E+02  1.250000000E+02  0.00000E+00  9.000E+00
      21     1     1     2   512   502  1.165911454E+01  7.984341021E+00  1.380843890E+01  1.975747044E+01  2.920019320E-07  0.00000E+00  9.000E+00
#rwgt            1           1   3.5660880653487374E-002           9      389621           0
</event>
<event>
      5   9999  3.79277E-02  1.52189E+02 -1.00000E+00  1.16145E-01
      21    -1     0     0   511   501  0.000000000E+00  0.000000000E+00  9.053497215E+02  9.053497215E+02  0.000000000E+00  0.00000E+00  9.000E+00
      21    -1     0     0   501   502  0.000000000E+00  0.000000000E+00 -1.498943021E+02  1.498943021E+02  0.000000000E+00  0.00000E+00  9.000E+00
      25     1     1     2     0     0  1.069718587E+02  2.018439980E+02  2.989403295E+01  2.621118679E+02  1.250000000E+02  0.00000E+00  9.000E+00
      25     1     1     2     0     0 -3.789111461E+01 -6.623664528E+01  5.001797059E+02  5.211792091E+02  1.250000000E+02  0.00000E+00  9.000E+00
      21     1     1     2   511   502 -6.908074406E+01 -1.356073527E+02  2.253816805E+02  2.719529467E+02  0.000000000E+00  0.00000E+00  9.000E+00
#rwgt            2          11   2.3420493391813936E-003           9      390053           0
</event>
<event>
      5   9999  3.79277E-02  3.71454E+02 -1.00000E+00  1.02662E-01
      21    -1     0     0   502   512  0.000000000E+00  0.000000000E+00  3.154296542E+02  3.154296542E+02  0.000000000E+00  0.00000E+00  9.000E+00
      21    -1     0     0   501   502  0.000000000E+00  0.000000000E+00 -7.600195534E+02  7.600195534E+02  0.000000000E+00  0.00000E+00  9.000E+00
      25     1     1     2     0     0 -2.662699324E+02 -1.042842750E+02 -6.149093079E+01  3.180896438E+02  1.250000000E+02  0.00000E+00  9.000E+00
      25     1     1     2     0     0 -8.307454189E+01 -2.195513844E+01 -3.535699915E+02  3.847338645E+02  1.250000000E+02  0.00000E+00  9.000E+00
      21     1     1     2   501   512  3.493444743E+02  1.262394134E+02 -2.952897691E+01  3.726256992E+02  4.511091215E-06  0.00000E+00  9.000E+00
#rwgt            2          11   5.7897281541893905E-004           9      390103           0
</event>
<event>
      5   9999  3.79277E-02  1.66050E+01 -1.00000E+00  1.73323E-01
      -2    -1     0     0     0   501  0.000000000E+00  0.000000000E+00  3.096967730E+02  3.096967730E+02  0.000000000E+00  0.00000E+00  9.000E+00
      21    -1     0     0   501   502  0.000000000E+00  0.000000000E+00 -6.033562919E+02  6.033562919E+02  0.000000000E+00  0.00000E+00  9.000E+00
      25     1     1     2     0     0  3.982598571E+01 -2.808459033E-01 -4.880928680E+02  5.054164973E+02  1.250000000E+02  0.00000E+00  9.000E+00
      25     1     1     2     0     0 -3.129218001E+01 -1.396346978E+01 -6.684329810E+01  1.458327999E+02  1.250000000E+02  0.00000E+00  9.000E+00
      -2     1     1     2     0   502 -8.533805702E+00  1.424431569E+01  2.612766472E+02  2.618037676E+02  5.394796609E-06  0.00000E+00  9.000E+00
#rwgt            1           1   4.8256081651280425E-002           9      390138           0
</event>
<event>
      5   9999  3.79277E-02  3.11762E+01 -1.00000E+00  1.51889E-01
      21    -1     0     0   502   511  0.000000000E+00  0.000000000E+00  2.283752440E+02  2.283752440E+02  0.000000000E+00  0.00000E+00  9.000E+00
      21    -1     0     0   501   502  0.000000000E+00  0.000000000E+00 -4.085215724E+02  4.085215724E+02  0.000000000E+00  0.00000E+00  9.000E+00
      25     1     1     2     0     0 -1.312825139E+02  1.564112499E+02 -1.456839284E+02  2.802648471E+02  1.250000000E+02  0.00000E+00  9.000E+00
      25     1     1     2     0     0  1.363668806E+02 -1.871700416E+02 -1.020072847E+02  2.822393253E+02  1.250000000E+02  0.00000E+00  9.000E+00
      21     1     1     2   501   511 -5.084366695E+00  3.075879172E+01  6.754488463E+01  7.439264407E+01  9.536743164E-07  0.00000E+00  9.000E+00
#rwgt            2          11   8.1691877976928530E-004           9      390378           0
</event>
<event>
      5   9999  3.79277E-02  7.38848E+01 -1.00000E+00  1.30044E-01
       2    -1     0     0   502     0  0.000000000E+00  0.000000000E+00  2.829965526E+03  2.829965526E+03  0.000000000E+00  0.00000E+00  9.000E+00
      21    -1     0     0   501   502  0.000000000E+00  0.000000000E+00 -1.579759848E+02  1.579759848E+02  0.000000000E+00  0.00000E+00  9.000E+00
      25     1     1     2     0     0  2.439624352E+02  1.671969560E+02  2.592984851E+02  4.127144246E+02  1.250000000E+02  0.00000E+00  9.000E+00
      25     1     1     2     0     0 -1.706792712E+02 -1.766066947E+02  1.547155750E+02  3.160431100E+02  1.250000000E+02  0.00000E+00  9.000E+00
       2     1     1     2   501     0 -7.328316396E+01  9.409738756E+00  2.257975481E+03  2.259183976E+03  0.000000000E+00  0.00000E+00  9.000E+00
#rwgt            1           1   3.9906317093580591E-002           9      390443           0
</event>
<event>
      5   9999 -3.79277E-02  2.52896E+01 -1.00000E+00  1.58377E-01
      21    -1     0     0   502   511  0.000000000E+00  0.000000000E+00  2.198582022E+02  2.198582022E+02  0.000000000E+00  0.00000E+00  9.000E+00
      21    -1     0     0   501   502  0.000000000E+00  0.000000000E+00 -1.829004897E+02  1.829004897E+02  0.000000000E+00  0.00000E+00  9.000E+00
      25     1     1     2     0     0 -1.100345967E+02 -1.106472697E+01 -7.069010994E+01  1.812515718E+02  1.250000000E+02  0.00000E+00  9.000E+00
      25     1     1     2     0     0  1.064496388E+02  3.609893677E+01  9.013608161E+01  1.907463553E+02  1.250000000E+02  0.00000E+00  9.000E+00
      21     1     1     2   501   511  3.584957847E+00 -2.503420980E+01  1.751174086E+01  3.076076480E+01  3.371747881E-07  0.00000E+00  9.000E+00
#rwgt            1           1  -7.0272674432012280E-002           9      390534           0
</event>
<event>
      5   9999  3.79277E-02  6.58100E+01 -1.00000E+00  1.32593E-01
      21    -1     0     0   502   501  0.000000000E+00  0.000000000E+00  1.412504813E+02  1.412504813E+02  0.000000000E+00  0.00000E+00  9.000E+00
      21    -1     0     0   501   512  0.000000000E+00  0.000000000E+00 -4.797691750E+02  4.797691750E+02  0.000000000E+00  0.00000E+00  9.000E+00
      25     1     1     2     0     0  4.319294939E+01 -1.786081215E+02 -2.415661434E+02  3.282463916E+02  1.250000000E+02  0.00000E+00  9.000E+00
      25     1     1     2     0     0 -4.241365280E+01  1.128027163E+02  2.343516594E+00  1.736486764E+02  1.250000000E+02  0.00000E+00  9.000E+00
      21     1     1     2   502   512 -7.792965987E-01  6.580540518E+01 -9.929606682E+01  1.191245883E+02  0.000000000E+00  0.00000E+00  9.000E+00
#rwgt            1           1   3.3480611466562761E-002           9      390729           0
</event>
<event>
      5   9999  3.79277E-02  3.57409E+01 -1.00000E+00  1.47939E-01
      21    -1     0     0   502   501  0.000000000E+00  0.000000000E+00  3.942289815E+02  3.942289815E+02  0.000000000E+00  0.00000E+00  9.000E+00
      21    -1     0     0   511   502  0.000000000E+00  0.000000000E+00 -6.271201443E+02  6.271201443E+02  0.000000000E+00  0.00000E+00  9.000E+00
      25     1     1     2     0     0  3.406321548E+01  3.713072776E+02 -1.410891324E+02  4.178044283E+02  1.250000000E+02  0.00000E+00  9.000E+00
      25     1     1     2     0     0 -4.825239952E+00 -3.918632853E+02  8.763987851E+01  4.205780137E+02  1.250000000E+02  0.00000E+00  9.000E+00
      21     1     1     2   511   501 -2.923797553E+01  2.055600777E+01 -1.794419089E+02  1.829666837E+02  0.000000000E+00  0.00000E+00  9.000E+00
#rwgt            1           1  0.10678473652616807                9      390853           0
</event>
<event>
      5   9999  3.79277E-02  2.43277E+01 -1.00000E+00  1.59643E-01
      21    -1     0     0   512   501  0.000000000E+00  0.000000000E+00  8.518820597E+02  8.518820597E+02  0.000000000E+00  0.00000E+00  9.000E+00
      21    -1     0     0   501   502  0.000000000E+00  0.000000000E+00 -6.415805975E+01  6.415805975E+01  0.000000000E+00  0.00000E+00  9.000E+00
      25     1     1     2     0     0  1.129866560E+02  1.029444442E+02  1.633670554E+02  2.562759018E+02  1.250000000E+02  0.00000E+00  9.000E+00
      25     1     1     2     0     0 -9.019558649E+01 -9.443545349E+01  4.711739712E+02  5.046614804E+02  1.250000000E+02  0.00000E+00  9.000E+00
      21     1     1     2   512   502 -2.279106951E+01 -8.508990758E+00  1.531829734E+02  1.551027373E+02  3.303624740E-06  0.00000E+00  9.000E+00
#rwgt            1           1   3.6749773751573914E-002           9      391025           0
</event>
<event>
      5   9999  3.79277E-02  4.44292E+01 -1.00000E+00  1.42067E-01
      21    -1     0     0   502   501  0.000000000E+00  0.000000000E+00  1.920875162E+02  1.920875162E+02  0.000000000E+00  0.00000E+00  9.000E+00
      21    -1     0     0   501   511  0.000000000E+00  0.000000000E+00 -3.940567937E+02  3.940567937E+02  0.000000000E+00  0.00000E+00  9.000E+00
      25     1     1     2     0     0 -8.184908200E+01  4.772807776E+01 -1.338911827E+01  1.574214411E+02  1.250000000E+02  0.00000E+00  9.000E+00
      25     1     1     2     0     0  1.157237727E+02 -7.647625414E+01  4.408225909E+01  1.918563384E+02  1.250000000E+02  0.00000E+00  9.000E+00
      21     1     1     2   502   511 -3.387469066E+01  2.874817638E+01 -2.326624184E+02  2.368665304E+02  2.697398305E-06  0.00000E+00  9.000E+00
#rwgt            1           1   3.6493906903901731E-002           9      391176           0
</event>
<event>
      5   9999  3.79277E-02  8.50586E+01 -1.00000E+00  1.27074E-01
      21    -1     0     0   502   501  0.000000000E+00  0.000000000E+00  1.136112456E+02  1.136112456E+02  0.000000000E+00  0.00000E+00  9.000E+00
       1    -1     0     0   501     0  0.000000000E+00  0.000000000E+00 -1.498121909E+03  1.498121909E+03  0.000000000E+00  0.00000E+00  9.000E+00
      25     1     1     2     0     0 -1.370478234E+02 -5.056459487E+01 -1.934515899E+02  2.727405393E+02  1.250000000E+02  0.00000E+00  9.000E+00
      25     1     1     2     0     0  2.156836272E+02  1.813977450E+01 -1.439521766E+02  2.884366613E+02  1.250000000E+02  0.00000E+00  9.000E+00
       1     1     1     2   502     0 -7.863580373E+01  3.242482036E+01 -1.047106897E+03  1.050555953E+03  1.525878906E-05  0.00000E+00  9.000E+00
#rwgt            1           1   3.1984321723100839E-002           9      391434           0
</event>
<event>
      5   9999  3.79277E-02  2.77635E+01 -1.00000E+00  1.55414E-01
      21    -1     0     0   502   511  0.000000000E+00  0.000000000E+00  4.582880576E+02  4.582880576E+02  0.000000000E+00  0.00000E+00  9.000E+00
      21    -1     0     0   501   502  0.000000000E+00  0.000000000E+00 -1.703261048E+02  1.703261048E+02  0.000000000E+00  0.00000E+00  9.000E+00
      25     1     1     2     0     0  1.732384887E+02 -1.394013100E+02  1.218094995E+02  2.826780030E+02  1.250000000E+02  0.00000E+00  9.000E+00
      25     1     1     2     0     0 -1.771798733E+02  1.668835906E+02  1.382064875E+02  3.065434284E+02  1.250000000E+02  0.00000E+00  9.000E+00
      21     1     1     2   501   511  3.941384555E+00 -2.748228060E+01  2.794596570E+01  3.939273103E+01  4.768371582E-07  0.00000E+00  9.000E+00
#rwgt            1           1   4.9582734203552192E-002           9      391501           0
</event>
<event>
      5   9999  3.79277E-02  6.81416E+01 -1.00000E+00  1.31815E-01
      21    -1     0     0   502   512  0.000000000E+00  0.000000000E+00  2.315751214E+02  2.315751214E+02  0.000000000E+00  0.00000E+00  9.000E+00
      21    -1     0     0   501   502  0.000000000E+00  0.000000000E+00 -4.819443624E+02  4.819443624E+02  0.000000000E+00  0.00000E+00  9.000E+00
      25     1     1     2     0     0 -2.765878380E+01  9.156964519E+01 -4.046101011E+02  4.341478344E+02  1.250000000E+02  0.00000E+00  9.000E+00
      25     1     1     2     0     0 -3.996590912E+01 -8.319205615E+01  1.412813598E+02  2.100086063E+02  1.250000000E+02  0.00000E+00  9.000E+00
      21     1     1     2   501   512  6.762469292E+01 -8.377589035E+00  1.295950031E+01  6.936304303E+01  5.057621821E-07  0.00000E+00  9.000E+00
#rwgt            1           1   3.8417024981991170E-002           9      391667           0
</event>
<event>
      5   9999  3.79277E-02  1.70668E+01 -1.00000E+00  1.72260E-01
      21    -1     0     0   502   501  0.000000000E+00  0.000000000E+00  1.856501471E+02  1.856501471E+02  0.000000000E+00  0.00000E+00  9.000E+00
      21    -1     0     0   501   511  0.000000000E+00  0.000000000E+00 -2.427093679E+02  2.427093679E+02  0.000000000E+00  0.00000E+00  9.000E+00
      25     1     1     2     0     0  9.800711425E+01  1.113078661E+02 -9.079070969E+01  2.141559910E+02  1.250000000E+02  0.00000E+00  9.000E+00
      25     1     1     2     0     0 -1.028246226E+02 -9.493515447E+01  4.598029715E+01  1.931962067E+02  1.250000000E+02  0.00000E+00  9.000E+00
      21     1     1     2   502   511  4.817508390E+00 -1.637271165E+01 -1.224880823E+01  2.100731722E+01  5.057621821E-07  0.00000E+00  9.000E+00
#rwgt            1           1   4.9918600877112911E-002           9      391739           0
</event>
<event>
      5   9999  3.79277E-02  7.55031E+01 -1.00000E+00  1.29577E-01
      21    -1     0     0   502   512  0.000000000E+00  0.000000000E+00  1.593825474E+02  1.593825474E+02  0.000000000E+00  0.00000E+00  9.000E+00
      21    -1     0     0   501   502  0.000000000E+00  0.000000000E+00 -5.307123183E+02  5.307123183E+02  0.000000000E+00  0.00000E+00  9.000E+00
      25     1     1     2     0     0  5.529206024E+01  1.162175329E+02 -4.315019758E+01  1.845282267E+02  1.250000000E+02  0.00000E+00  9.000E+00
      25     1     1     2     0     0 -1.270104663E+02 -9.261259476E+01 -3.687208684E+02  4.198676339E+02  1.250000000E+02  0.00000E+00  9.000E+00
      21     1     1     2   501   512  7.171840605E+01 -2.360493818E+01  4.054129501E+01  8.569900509E+01  8.259061849E-07  0.00000E+00  9.000E+00
#rwgt            1           1   4.1353113698411839E-002           9      391886           0
</event>
<event>
      5   9999  3.79277E-02  2.37344E+01 -1.00000E+00  1.60460E-01
      21    -1     0     0   502   511  0.000000000E+00  0.000000000E+00  8.617122722E+02  8.617122722E+02  0.000000000E+00  0.00000E+00  9.000E+00
      21    -1     0     0   501   502  0.000000000E+00  0.000000000E+00 -1.040489100E+02  1.040489100E+02  0.000000000E+00  0.00000E+00  9.000E+00
      25     1     1     2     0     0 -4.585262301E+00  2.358168504E+02  4.654254395E+02  5.365411925E+02  1.250000000E+02  0.00000E+00  9.000E+00
      25     1     1     2     0     0 -1.899015977E+01 -2.385592524E+02  2.055261603E+02  3.393186491E+02  1.250000000E+02  0.00000E+00  9.000E+00
      21     1     1     2   501   511  2.357542207E+01  2.742401970E+00  8.671176243E+01  8.990134058E+01  1.348699152E-06  0.00000E+00  9.000E+00
#rwgt            1           1   4.6105228008946640E-002           9      391949           0
</event>
<event>
      5   9999  3.79277E-02  3.52271E+01 -1.00000E+00  1.48348E-01
      21    -1     0     0   502   501  0.000000000E+00  0.000000000E+00  1.145897842E+02  1.145897842E+02  0.000000000E+00  0.00000E+00  9.000E+00
      21    -1     0     0   501   512  0.000000000E+00  0.000000000E+00 -5.551774213E+02  5.551774213E+02  0.000000000E+00  0.00000E+00  9.000E+00
      25     1     1     2     0     0 -1.518575663E+02 -3.987010219E+01 -3.638638869E+01  2.039591007E+02  1.250000000E+02  0.00000E+00  9.000E+00
      25     1     1     2     0     0  1.508399079E+02  4.657664806E+00 -3.511431285E+02  4.021204650E+02  1.250000000E+02  0.00000E+00  9.000E+00
      21     1     1     2   502   512  1.017658396E+00  3.521243738E+01 -5.305811992E+01  6.368763981E+01  1.168007728E-06  0.00000E+00  9.000E+00
#rwgt            1           1   3.7019292867421449E-002           9      392212           0
</event>
<event>
      5   9999  3.79277E-02  1.34691E+01 -1.00000E+00  1.81904E-01
      21    -1     0     0   502   501  0.000000000E+00  0.000000000E+00  2.379340996E+02  2.379340996E+02  0.000000000E+00  0.00000E+00  9.000E+00
      21    -1     0     0   511   502  0.000000000E+00  0.000000000E+00 -2.624780873E+02  2.624780873E+02  0.000000000E+00  0.00000E+00  9.000E+00
      25     1     1     2     0     0  1.281787031E+02 -7.145327345E+01 -5.347311687E+01  2.000493050E+02  1.250000000E+02  0.00000E+00  9.000E+00
      25     1     1     2     0     0 -1.416464923E+02  7.126439195E+01  1.018955236E+02  2.261637462E+02  1.250000000E+02  0.00000E+00  9.000E+00
      21     1     1     2   511   501  1.346778924E+01  1.888814905E-01 -7.296639444E+01  7.419913571E+01  9.536743164E-07  0.00000E+00  9.000E+00
#rwgt            1           1   3.8813211040654508E-002           9      392307           0
</event>
<event>
      5   9999  3.79277E-02  3.74410E+01 -1.00000E+00  1.46644E-01
      21    -1     0     0   502   501  0.000000000E+00  0.000000000E+00  2.816329547E+02  2.816329547E+02  0.000000000E+00  0.00000E+00  9.000E+00
      21    -1     0     0   501   512  0.000000000E+00  0.000000000E+00 -1.685705553E+02  1.685705553E+02  0.000000000E+00  0.00000E+00  9.000E+00
      25     1     1     2     0     0  6.723648595E+01 -1.092005561E+02 -2.262071340E+01  1.805054104E+02  1.250000000E+02  0.00000E+00  9.000E+00
      25     1     1     2     0     0 -8.776653845E+01  7.789011165E+01  1.517451531E+02  2.289572586E+02  1.250000000E+02  0.00000E+00  9.000E+00
      21     1     1     2   502   512  2.053005250E+01  3.131044448E+01 -1.606204027E+01  4.074084102E+01  4.129530925E-07  0.00000E+00  9.000E+00
#rwgt            1           1   3.4359614096920454E-002           9      392631           0
</event>
<event>
      5   9999  3.79277E-02  1.31672E+02 -1.00000E+00  1.18682E-01
      21    -1     0     0   502   501  0.000000000E+00  0.000000000E+00  6.124726219E+02  6.124726219E+02  0.000000000E+00  0.00000E+00  9.000E+00
       2    -1     0     0   501     0  0.000000000E+00  0.000000000E+00 -1.615111284E+03  1.615111284E+03  0.000000000E+00  0.00000E+00  9.000E+00
      25     1     1     2     0     0 -1.410783802E+02  2.610008158E+02 -5.941144089E+00  3.220012925E+02  1.250000000E+02  0.00000E+00  9.000E+00
      25     1     1     2     0     0  1.604334253E+02 -1.307593089E+02  4.190085245E+02  4.837664978E+02  1.250000000E+02  0.00000E+00  9.000E+00
       2     1     1     2   502     0 -1.935504510E+01 -1.302415068E+02 -1.415706042E+03  1.421816115E+03  1.525878906E-05  0.00000E+00  9.000E+00
#rwgt            1           1   3.3679309927104342E-002           9      392734           0
</event>
<event>
      5   9999  3.79277E-02  2.14742E+02 -1.00000E+00  1.10535E-01
      21    -1     0     0   502   501  0.000000000E+00  0.000000000E+00  2.631877241E+02  2.631877241E+02  0.000000000E+00  0.00000E+00  9.000E+00
      21    -1     0     0   501   511  0.000000000E+00  0.000000000E+00 -1.750635205E+03  1.750635205E+03  0.000000000E+00  0.00000E+00  9.000E+00
      25     1     1     2     0     0 -1.336407291E+01 -9.718743488E+01  1.267398770E+02  2.032535175E+02  1.250000000E+02  0.00000E+00  9.000E+00
      25     1     1     2     0     0 -1.482663196E+01  3.100710673E+02 -2.212441462E+02  4.011706220E+02  1.250000000E+02  0.00000E+00  9.000E+00
      21     1     1     2   502   511  2.819070487E+01 -2.128836324E+02 -1.392943212E+03  1.409398790E+03  2.157918644E-05  0.00000E+00  9.000E+00
#rwgt            2          11   8.3936499176709845E-004           9      393086           0
</event>
<event>
      5   9999  3.79277E-02  1.74890E+01 -1.00000E+00  1.71324E-01
      21    -1     0     0   502   512  0.000000000E+00  0.000000000E+00  2.092018459E+02  2.092018459E+02  0.000000000E+00  0.00000E+00  9.000E+00
      21    -1     0     0   501   502  0.000000000E+00  0.000000000E+00 -4.256063921E+02  4.256063921E+02  0.000000000E+00  0.00000E+00  9.000E+00
      25     1     1     2     0     0 -1.581938558E+01  5.462195557E+01 -3.815832935E+02  4.055423787E+02  1.250000000E+02  0.00000E+00  9.000E+00
      25     1     1     2     0     0  9.557953328E+00 -3.829219660E+01  1.091677467E+02  1.705879354E+02  1.250000000E+02  0.00000E+00  9.000E+00
      21     1     1     2   501   512  6.261432251E+00 -1.632975898E+01  5.601100063E+01  5.867792390E+01  0.000000000E+00  0.00000E+00  9.000E+00
#rwgt            1           1   4.5173330259936834E-002           9      393256           0
</event>
<event>
      5   9999  3.79277E-02  2.42318E+01 -1.00000E+00  1.59773E-01
      21    -1     0     0   511   501  0.000000000E+00  0.000000000E+00  9.424883488E+02  9.424883488E+02  0.000000000E+00  0.00000E+00  9.000E+00
      21    -1     0     0   501   502  0.000000000E+00  0.000000000E+00 -1.013804199E+02  1.013804199E+02  0.000000000E+00  0.00000E+00  9.000E+00
      25     1     1     2     0     0 -1.828655756E+02 -1.756443964E+02  2.567241673E+02  3.818678709E+02  1.250000000E+02  0.00000E+00  9.000E+00
      25     1     1     2     0     0  1.642400443E+02  1.911450113E+02  4.945916281E+02  5.689965607E+02  1.250000000E+02  0.00000E+00  9.000E+00
      21     1     1     2   511   502  1.862553137E+01 -1.550061491E+01  8.979213348E+01  9.300433709E+01  1.348699152E-06  0.00000E+00  9.000E+00
#rwgt            1           1   2.6669133083796145E-002           9      393652           0
</event>
<event>
      5   9999 -3.79277E-02  7.66530E+01 -1.00000E+00  1.29254E-01
      21    -1     0     0   502   512  0.000000000E+00  0.000000000E+00  6.345223538E+02  6.345223538E+02  0.000000000E+00  0.00000E+00  9.000E+00
      21    -1     0     0   501   502  0.000000000E+00  0.000000000E+00 -3.706168783E+02  3.706168783E+02  0.000000000E+00  0.00000E+00  9.000E+00
      25     1     1     2     0     0 -1.275421934E+02  2.437414575E+02 -4.829270996E+01  3.059968873E+02  1.250000000E+02  0.00000E+00  9.000E+00
      25     1     1     2     0     0  8.441648273E+01 -1.803706644E+02 -1.173666239E+02  2.627920157E+02  1.250000000E+02  0.00000E+00  9.000E+00
      21     1     1     2   501   512  4.312571066E+01 -6.337079310E+01  4.295648093E+02  4.363503291E+02  5.394796609E-06  0.00000E+00  9.000E+00
#rwgt            1           1 -0.37648089686995689                9      393872           0
</event>
<event>
      5   9999  3.79277E-02  3.23701E+01 -1.00000E+00  1.50781E-01
      21    -1     0     0   502   501  0.000000000E+00  0.000000000E+00  2.080006468E+02  2.080006468E+02  0.000000000E+00  0.00000E+00  9.000E+00
      21    -1     0     0   501   511  0.000000000E+00  0.000000000E+00 -4.910722977E+02  4.910722977E+02  0.000000000E+00  0.00000E+00  9.000E+00
      25     1     1     2     0     0 -5.404087528E+01  1.368061512E+02  1.128679369E+02  2.236079390E+02  1.250000000E+02  0.00000E+00  9.000E+00
      25     1     1     2     0     0  2.332887345E+01 -1.470333007E+02 -2.077579132E+02  2.845195570E+02  1.250000000E+02  0.00000E+00  9.000E+00
      21     1     1     2   502   511  3.071200183E+01  1.022714951E+01 -1.881816746E+02  1.909454485E+02  0.000000000E+00  0.00000E+00  9.000E+00
#rwgt            1           1   4.4301235916923552E-002           9      394059           0
</event>
<event>
      5   9999  3.79277E-02  7.91624E+01 -1.00000E+00  1.28571E-01
      21    -1     0     0   512   501  0.000000000E+00  0.000000000E+00  2.865368231E+01  2.865368231E+01  0.000000000E+00  0.00000E+00  9.000E+00
      21    -1     0     0   501   502  0.000000000E+00  0.000000000E+00 -1.712059432E+03  1.712059432E+03  0.000000000E+00  0.00000E+00  9.000E+00
      25     1     1     2     0     0 -1.438874507E+02  1.930268144E+01 -8.006277507E+02  8.232290004E+02  1.250000000E+02  0.00000E+00  9.000E+00
      25     1     1     2     0     0  8.078783047E+01 -6.710558511E+01 -6.906887759E+02  7.097223529E+02  1.250000000E+02  0.00000E+00  9.000E+00
      21     1     1     2   512   502  6.309962023E+01  4.780290367E+01 -1.920892229E+02  2.077617607E+02  2.697398305E-06  0.00000E+00  9.000E+00
#rwgt            1           1   2.3136347877157334E-002           9      394215           0
</event>
<event>
      5   9999  3.79277E-02  4.47942E+01 -1.00000E+00  1.41856E-01
      21    -1     0     0   502   511  0.000000000E+00  0.000000000E+00  1.674042458E+03  1.674042458E+03  0.000000000E+00  0.00000E+00  9.000E+00
      21    -1     0     0   501   502  0.000000000E+00  0.000000000E+00 -2.972367885E+01  2.972367885E+01  0.000000000E+00  0.00000E+00  9.000E+00
      25     1     1     2     0     0 -1.137113859E+02 -6.342000710E+01  7.780088210E+02  7.986708347E+02  1.250000000E+02  0.00000E+00  9.000E+00
      25     1     1     2     0     0  1.475139582E+02  3.402774901E+01  5.186922534E+02  5.546033801E+02  1.250000000E+02  0.00000E+00  9.000E+00
      21     1     1     2   501   511 -3.380257234E+01  2.939225809E+01  3.476177048E+02  3.504919220E+02  6.607249480E-06  0.00000E+00  9.000E+00
#rwgt            1           1   3.5635700377899995E-002           9      394408           0
</event>
<event>
      5   9999  3.79277E-02  8.72781E+01 -1.00000E+00  1.26545E-01
      21    -1     0     0   502   501  0.000000000E+00  0.000000000E+00  1.386694477E+02  1.386694477E+02  0.000000000E+00  0.00000E+00  9.000E+00
      21    -1     0     0   501   512  0.000000000E+00  0.000000000E+00 -6.704728613E+02  6.704728613E+02  0.000000000E+00  0.00000E+00  9.000E+00
      25     1     1     2     0     0  9.883822915E+01  1.137676358E+02 -9.230370738E+01  2.164648814E+02  1.250000000E+02  0.00000E+00  9.000E+00
      25     1     1     2     0     0 -1.428169136E+02 -1.891556150E+02 -1.903588173E+02  3.286913397E+02  1.250000000E+02  0.00000E+00  9.000E+00
      21     1     1     2   502   512  4.397868443E+01  7.538797922E+01 -2.491408889E+02  2.639860879E+02  2.697398305E-06  0.00000E+00  9.000E+00
#rwgt            2          11   1.4474042804209120E-003           9      394727           0
</event>
<event>
      5   9999  3.79277E-02  5.50610E+01 -1.00000E+00  1.36728E-01
      21    -1     0     0   502   511  0.000000000E+00  0.000000000E+00  1.835846351E+03  1.835846351E+03  0.000000000E+00  0.00000E+00  9.000E+00
      21    -1     0     0   501   502  0.000000000E+00  0.000000000E+00 -2.881592908E+01  2.881592908E+01  0.000000000E+00  0.00000E+00  9.000E+00
      25     1     1     2     0     0  1.722309841E+02  6.411026181E+01  7.896290266E+02  8.203125241E+02  1.250000000E+02  0.00000E+00  9.000E+00
      25     1     1     2     0     0 -1.257509510E+02 -3.459219377E+01  7.784097348E+02  7.990973888E+02  1.250000000E+02  0.00000E+00  9.000E+00
      21     1     1     2   501   511 -4.648003310E+01 -2.951806804E+01  2.389916608E+02  2.452523675E+02  0.000000000E+00  0.00000E+00  9.000E+00
#rwgt            1           1  0.13112965196012677                9      394792           0
</event>
<event>
      5   9999  3.79277E-02  5.64627E+01 -1.00000E+00  1.36129E-01
      21    -1     0     0   502   512  0.000000000E+00  0.000000000E+00  6.856614912E+02  6.856614912E+02  0.000000000E+00  0.00000E+00  9.000E+00
      21    -1     0     0   501   502  0.000000000E+00  0.000000000E+00 -1.097736773E+03  1.097736773E+03  0.000000000E+00  0.00000E+00  9.000E+00
      25     1     1     2     0     0  3.522037110E+02  7.309033199E+02 -3.045764728E+02  8.755906263E+02  1.250000000E+02  0.00000E+00  9.000E+00
      25     1     1     2     0     0 -3.321088986E+02 -6.781374581E+02 -2.074717949E+02  7.929919787E+02  1.250000000E+02  0.00000E+00  9.000E+00
      21     1     1     2   501   512 -2.009481239E+01 -5.276586174E+01  9.997298596E+01  1.148156591E+02  1.348699152E-06  0.00000E+00  9.000E+00
#rwgt            1           1   1.3829013629744886E-002           9      395037           0
</event>
<event>
      5   9999  3.79277E-02  2.75695E+01 -1.00000E+00  1.55633E-01
      21    -1     0     0   511   501  0.000000000E+00  0.000000000E+00  1.888082693E+02  1.888082693E+02  0.000000000E+00  0.00000E+00  9.000E+00
      21    -1     0     0   501   502  0.000000000E+00  0.000000000E+00 -6.328863790E+02  6.328863790E+02  0.000000000E+00  0.00000E+00  9.000E+00
      25     1     1     2     0     0 -2.341107143E+02  6.049535328E+01 -3.001918207E+02  4.052254231E+02  1.250000000E+02  0.00000E+00  9.000E+00
      25     1     1     2     0     0  2.225122427E+02 -3.548426329E+01 -2.179202091E+02  3.374685892E+02  1.250000000E+02  0.00000E+00  9.000E+00
      21     1     1     2   511   502  1.159847152E+01 -2.501108999E+01  7.403392012E+01  7.900063603E+01  2.523185073E-06  0.00000E+00  9.000E+00
#rwgt            1           1  0.26430866142217430                9      395228           0
</event>
<event>
      5   9999  3.79277E-02  1.10691E+02 -1.00000E+00  1.21876E-01
      21    -1     0     0   502   512  0.000000000E+00  0.000000000E+00  1.670590335E+03  1.670590335E+03  0.000000000E+00  0.00000E+00  9.000E+00
      21    -1     0     0   501   502  0.000000000E+00  0.000000000E+00 -1.785474104E+02  1.785474104E+02  0.000000000E+00  0.00000E+00  9.000E+00
      25     1     1     2     0     0  5.009532677E+01 -2.373948454E+02  3.678499131E+02  4.580441168E+02  1.250000000E+02  0.00000E+00  9.000E+00
      25     1     1     2     0     0  1.208904935E+01  1.458224296E+02 -6.012097938E+01  2.016181000E+02  1.250000000E+02  0.00000E+00  9.000E+00
      21     1     1     2   501   512 -6.218437612E+01  9.157241574E+01  1.184313991E+03  1.189475529E+03  2.157918644E-05  0.00000E+00  9.000E+00
#rwgt            1           1   3.0260453425852943E-002           9      395383           0
</event>
<event>
      5   9999 -3.79277E-02  6.58802E+00 -1.00000E+00  2.19345E-01
      21    -1     0     0   502   511  0.000000000E+00  0.000000000E+00  5.853307496E+02  5.853307496E+02  0.000000000E+00  0.00000E+00  9.000E+00
      21    -1     0     0   501   502  0.000000000E+00  0.000000000E+00 -1.737819069E+02  1.737819069E+02  0.000000000E+00  0.00000E+00  9.000E+00
      25     1     1     2     0     0 -2.550901918E+02  1.256397550E+02  2.857510932E+02  4.220604711E+02  1.250000000E+02  0.00000E+00  9.000E+00
      25     1     1     2     0     0  2.499574374E+02 -1.215097698E+02  1.178692557E+02  3.267437928E+02  1.250000000E+02  0.00000E+00  9.000E+00
      21     1     1     2   501   511  5.132754400E+00 -4.129985197E+00  7.928493665E+00  1.030839256E+01  1.192092896E-07  0.00000E+00  9.000E+00
#rwgt            1           1  -7.3549290489923161E-002           9      395468           0
</event>
<event>
      5   9999  3.79277E-02  6.07473E+01 -1.00000E+00  1.34417E-01
      21    -1     0     0   502   501  0.000000000E+00  0.000000000E+00  7.948843657E+01  7.948843657E+01  0.000000000E+00  0.00000E+00  9.000E+00
       2    -1     0     0   501     0  0.000000000E+00  0.000000000E+00 -2.184618314E+03  2.184618314E+03  0.000000000E+00  0.00000E+00  9.000E+00
      25     1     1     2     0     0 -1.547720207E+02  1.100213302E+01 -9.052337964E+01  2.188490520E+02  1.250000000E+02  0.00000E+00  9.000E+00
      25     1     1     2     0     0  1.117020887E+02 -5.384152803E+01 -5.120962808E+02  5.415199605E+02  1.250000000E+02  0.00000E+00  9.000E+00
       2     1     1     2   502     0  4.306993199E+01  4.283939501E+01 -1.502510217E+03  1.503737738E+03  3.051757812E-05  0.00000E+00  9.000E+00
#rwgt            1           1   1.5226012311139060E-002           9      395935           0
</event>
<event>
      5   9999  3.79277E-02  7.79007E+01 -1.00000E+00  1.28911E-01
      21    -1     0     0   511   501  0.000000000E+00  0.000000000E+00  2.115069297E+02  2.115069297E+02  0.000000000E+00  0.00000E+00  9.000E+00
      21    -1     0     0   501   502  0.000000000E+00  0.000000000E+00 -4.790911364E+02  4.790911364E+02  0.000000000E+00  0.00000E+00  9.000E+00
      25     1     1     2     0     0  9.773646156E+01 -4.652366886E+01  1.046405793E+02  1.956821875E+02  1.250000000E+02  0.00000E+00  9.000E+00
      25     1     1     2     0     0 -2.118053733E+01  6.093563334E+01 -3.903610066E+02  4.149319005E+02  1.250000000E+02  0.00000E+00  9.000E+00
      21     1     1     2   511   502 -7.655592423E+01 -1.441196448E+01  1.813622061E+01  7.998397810E+01  8.259061849E-07  0.00000E+00  9.000E+00
#rwgt            1           1   3.8609901258059243E-002           9      396190           0
</event>
<event>
      5   9999  3.79277E-02  1.08132E+02 -1.00000E+00  1.22320E-01
      21    -1     0     0   502   501  0.000000000E+00  0.000000000E+00  2.501912950E+02  2.501912950E+02  0.000000000E+00  0.00000E+00  9.000E+00
      21    -1     0     0   501   512  0.000000000E+00  0.000000000E+00 -6.538699779E+02  6.538699779E+02  0.000000000E+00  0.00000E+00  9.000E+00
      25     1     1     2     0     0 -6.817439232E+01 -8.371942759E+01 -2.509981626E+02  3.004692463E+02  1.250000000E+02  0.00000E+00  9.000E+00
      25     1     1     2     0     0 -6.961479234E+00  1.614824906E+02  1.684076226E+02  2.647851663E+02  1.250000000E+02  0.00000E+00  9.000E+00
      21     1     1     2   502   512  7.513587155E+01 -7.776306297E+01 -3.210881429E+02  3.388068604E+02  3.814697266E-06  0.00000E+00  9.000E+00
#rwgt            1           1   4.4457448835834877E-002           9      396291           0
</event>
<event>
      5   9999  3.79277E-02  4.38077E+01 -1.00000E+00  1.42433E-01
      21    -1     0     0   511   501  0.000000000E+00  0.000000000E+00  7.840983619E+01  7.840983619E+01  0.000000000E+00  0.00000E+00  9.000E+00
      21    -1     0     0   501   502  0.000000000E+00  0.000000000E+00 -9.553612334E+02  9.553612334E+02  0.000000000E+00  0.00000E+00  9.000E+00
      25     1     1     2     0     0 -1.442927847E+02  1.684809911E+02 -5.682937356E+02  6.227270847E+02  1.250000000E+02  0.00000E+00  9.000E+00
      25     1     1     2     0     0  1.427753260E+02 -1.246995347E+02 -2.483961388E+02  3.365418390E+02  1.250000000E+02  0.00000E+00  9.000E+00
      21     1     1     2   511   502  1.517458717E+00 -4.378145643E+01 -6.026152278E+01  7.450214585E+01  6.743495762E-07  0.00000E+00  9.000E+00
#rwgt            1           1   3.2084587652069889E-002           9      396418           0
</event>
<event>
      5   9999  3.79277E-02  3.82660E+01 -1.00000E+00  1.46044E-01
      21    -1     0     0   502   501  0.000000000E+00  0.000000000E+00  2.467652745E+02  2.467652745E+02  0.000000000E+00  0.00000E+00  9.000E+00
      21    -1     0     0   512   502  0.000000000E+00  0.000000000E+00 -1.793055685E+02  1.793055685E+02  0.000000000E+00  0.00000E+00  9.000E+00
      25     1     1     2     0     0  1.032667318E+02  2.760932068E+01 -1.368070278E+01  1.650407650E+02  1.250000000E+02  0.00000E+00  9.000E+00
      25     1     1     2     0     0 -1.326370179E+02 -3.080292846E+00  1.101783530E+02  2.129937468E+02  1.250000000E+02  0.00000E+00  9.000E+00
      21     1     1     2   512   501  2.937028614E+01 -2.452902784E+01 -2.903794415E+01  4.803633120E+01  8.920806376E-07  0.00000E+00  9.000E+00
#rwgt            1           1   2.5803729289985873E-002           9      396619           0
</event>
<event>
      5   9999  3.79277E-02  1.57954E+02 -1.00000E+00  1.15511E-01
      21    -1     0     0   511   501  0.000000000E+00  0.000000000E+00  9.137270675E+02  9.137270675E+02  0.000000000E+00  0.00000E+00  9.000E+00
      21    -1     0     0   501   502  0.000000000E+00  0.000000000E+00 -3.540976968E+02  3.540976968E+02  0.000000000E+00  0.00000E+00  9.000E+00
      25     1     1     2     0     0 -8.547309810E+01 -2.066189438E+02 -1.298107485E+02  2.871808992E+02  1.250000000E+02  0.00000E+00  9.000E+00
      25     1     1     2     0     0 -4.744160417E+01  2.919598945E+02  5.370140056E+01  3.255766057E+02  1.250000000E+02  0.00000E+00  9.000E+00
      21     1     1     2   511   502  1.329147023E+02 -8.534095069E+01  6.357387187E+02  6.550672594E+02  1.078959322E-05  0.00000E+00  9.000E+00
#rwgt            1           1   3.8308635770175278E-002           9      396811           0
</event>
<event>
      5   9999  3.79277E-02  1.85752E+01 -1.00000E+00  1.69062E-01
      21    -1     0     0   512   501  0.000000000E+00  0.000000000E+00  5.708707553E+02  5.708707553E+02  0.000000000E+00  0.00000E+00  9.000E+00
      21    -1     0     0   501   502  0.000000000E+00  0.000000000E+00 -1.259318988E+02  1.259318988E+02  0.000000000E+00  0.00000E+00  9.000E+00
      25     1     1     2     0     0 -4.036015774E+01 -1.030225644E+02  3.230728349E+02  3.636531971E+02  1.250000000E+02  0.00000E+00  9.000E+00
      25     1     1     2     0     0  2.542364643E+01  1.140651020E+02 -3.543890743E+01  1.747516107E+02  1.250000000E+02  0.00000E+00  9.000E+00
      21     1     1     2   512   502  1.493651131E+01 -1.104253756E+01  1.573049290E+02  1.583978462E+02  0.000000000E+00  0.00000E+00  9.000E+00
#rwgt            1           1   2.9080038792140561E-002           9      396845           0
</event>
<event>
      5   9999  3.79277E-02  4.92508E+01 -1.00000E+00  1.39451E-01
      21    -1     0     0   511   501  0.000000000E+00  0.000000000E+00  6.065270396E+01  6.065270396E+01  0.000000000E+00  0.00000E+00  9.000E+00
      21    -1     0     0   501   502  0.000000000E+00  0.000000000E+00 -8.710652069E+02  8.710652069E+02  0.000000000E+00  0.00000E+00  9.000E+00
      25     1     1     2     0     0  1.831028554E+01 -1.128322540E+02 -5.145638097E+02  5.417262208E+02  1.250000000E+02  0.00000E+00  9.000E+00
      25     1     1     2     0     0 -3.900129409E+01  1.575258757E+02 -2.373455296E+02  3.135177872E+02  1.250000000E+02  0.00000E+00  9.000E+00
      21     1     1     2   511   502  2.069100855E+01 -4.469362174E+01 -5.850316371E+01  7.647390289E+01  9.536743164E-07  0.00000E+00  9.000E+00
#rwgt            1           1   3.1606018415278589E-002           9      397271           0
</event>
<event>
      5   9999  3.79277E-02  3.10531E+01 -1.00000E+00  1.52006E-01
      21    -1     0     0   502   501  0.000000000E+00  0.000000000E+00  5.124309003E+01  5.124309003E+01  0.000000000E+00  0.00000E+00  9.000E+00
       2    -1     0     0   501     0  0.000000000E+00  0.000000000E+00 -8.314014229E+02  8.314014229E+02  0.000000000E+00  0.00000E+00  9.000E+00
      25     1     1     2     0     0  4.346133755E+01  1.504138988E+01 -7.418751019E+01  1.524595616E+02  1.250000000E+02  0.00000E+00  9.000E+00
      25     1     1     2     0     0 -2.572285105E+01  1.044663050E+01 -3.469626450E+02  3.698362803E+02  1.250000000E+02  0.00000E+00  9.000E+00
       2     1     1     2   502     0 -1.773848649E+01 -2.548802037E+01 -3.590081777E+02  3.603486710E+02  0.000000000E+00  0.00000E+00  9.000E+00
#rwgt            1           1   3.5825826721629948E-002           9      397368           0
</event>
<event>
      5   9999 -3.79277E-02  4.36619E+01 -1.00000E+00  1.42520E-01
      21    -1     0     0   502   511  0.000000000E+00  0.000000000E+00  7.655227665E+01  7.655227665E+01  0.000000000E+00  0.00000E+00  9.000E+00
      21    -1     0     0   501   502  0.000000000E+00  0.000000000E+00 -1.390102515E+03  1.390102515E+03  0.000000000E+00  0.00000E+00  9.000E+00
      25     1     1     2     0     0  9.271137540E+01 -6.806700364E+01 -1.215111197E+03  1.226926541E+03  1.250000000E+02  0.00000E+00  9.000E+00
      25     1     1     2     0     0 -6.524886279E+01  3.412337432E+01 -1.537457738E+01  1.458876157E+02  1.250000000E+02  0.00000E+00  9.000E+00
      21     1     1     2   501   511 -2.746251261E+01  3.394362932E+01 -8.306446311E+01  9.384063406E+01  1.907348633E-06  0.00000E+00  9.000E+00
#rwgt            1           1  -8.1999533183954882E-003           9      397462           0
</event>
<event>
      5   9999  3.79277E-02  1.48695E+01 -1.00000E+00  1.77742E-01
      21    -1     0     0   502   501  0.000000000E+00  0.000000000E+00  1.031347632E+02  1.031347632E+02  0.000000000E+00  0.00000E+00  9.000E+00
      21    -1     0     0   512   502  0.000000000E+00  0.000000000E+00 -3.779684178E+02  3.779684178E+02  0.000000000E+00  0.00000E+00  9.000E+00
      25     1     1     2     0     0 -7.302503434E+01  9.773753860E+01 -2.337218791E+02  2.917810804E+02  1.250000000E+02  0.00000E+00  9.000E+00
      25     1     1     2     0     0  6.145047857E+01 -8.840313016E+01 -2.409468936E+01  1.667238099E+02  1.250000000E+02  0.00000E+00  9.000E+00
      21     1     1     2   512   501  1.157455577E+01 -9.334408437E+00 -1.701708604E+01  2.259829063E+01  4.129530925E-07  0.00000E+00  9.000E+00
#rwgt            1           1   5.7349000439812434E-002           9      397705           0
</event>
<event>
      5   9999  3.79277E-02  1.12343E+02 -1.00000E+00  1.21596E-01
      21    -1     0     0   502   511  0.000000000E+00  0.000000000E+00  5.869945557E+01  5.869945557E+01  0.000000000E+00  0.00000E+00  9.000E+00
      21    -1     0     0   501   502  0.000000000E+00  0.000000000E+00 -3.255994672E+03  3.255994672E+03  0.000000000E+00  0.00000E+00  9.000E+00
      25     1     1     2     0     0 -1.672588241E+02 -2.403204591E+02 -1.080197394E+03  1.126135359E+03  1.250000000E+02  0.00000E+00  9.000E+00
      25     1     1     2     0     0  1.313500861E+02  3.467701247E+02 -1.938227008E+03  1.977334392E+03  1.250000000E+02  0.00000E+00  9.000E+00
      21     1     1     2   501   511  3.590873793E+01 -1.064496656E+02 -1.788708142E+02  2.112243758E+02  0.000000000E+00  0.00000E+00  9.000E+00
#rwgt            1           1   2.6668460360460406E-002           9      397971           0
</event>
<event>
      5   9999 -3.79277E-02  3.11521E+01 -1.00000E+00  1.51912E-01
      21    -1     0     0   502   501  0.000000000E+00  0.000000000E+00  1.763667963E+02  1.763667963E+02  0.000000000E+00  0.00000E+00  9.000E+00
      21    -1     0     0   501   512  0.000000000E+00  0.000000000E+00 -5.206628234E+02  5.206628234E+02  0.000000000E+00  0.00000E+00  9.000E+00
      25     1     1     2     0     0 -1.971649897E+02  1.259110422E+02 -2.534079727E+02  3.668354186E+02  1.250000000E+02  0.00000E+00  9.000E+00
      25     1     1     2     0     0  1.777226918E+02 -1.502512940E+02 -3.536193660E+01  2.665263085E+02  1.250000000E+02  0.00000E+00  9.000E+00
      21     1     1     2   502   512  1.944229787E+01  2.434025180E+01 -5.552611774E+01  6.366789266E+01  6.743495762E-07  0.00000E+00  9.000E+00
#rwgt            1           1 -0.12294288350724934                9      398076           0
</event>
<event>
      5   9999  3.79277E-02  9.88991E+00 -1.00000E+00  1.96315E-01
      21    -1     0     0   502   501  0.000000000E+00  0.000000000E+00  9.571356631E+02  9.571356631E+02  0.000000000E+00  0.00000E+00  9.000E+00
      21    -1     0     0   511   502  0.000000000E+00  0.000000000E+00 -7.071195162E+01  7.071195162E+01  0.000000000E+00  0.00000E+00  9.000E+00
      25     1     1     2     0     0  1.079024665E+02  1.162304122E+01  5.755281900E+01  1.752579937E+02  1.250000000E+02  0.00000E+00  9.000E+00
      25     1     1     2     0     0 -9.802710059E+01 -1.108695036E+01  8.274081607E+02  8.425921299E+02  1.250000000E+02  0.00000E+00  9.000E+00
      21     1     1     2   511   501 -9.875365936E+00 -5.360908591E-01  1.462731795E+00  9.997491189E+00  1.632340424E-07  0.00000E+00  9.000E+00
#rwgt            1           1   4.0478042972434632E-002           9      398329           0
</event>
<event>
      5   9999  3.79277E-02  3.86748E+01 -1.00000E+00  1.45753E-01
      21    -1     0     0   502   501  0.000000000E+00  0.000000000E+00  8.952973673E+02  8.952973673E+02  0.000000000E+00  0.00000E+00  9.000E+00
      21    -1     0     0   501   512  0.000000000E+00  0.000000000E+00 -7.494301915E+01  7.494301915E+01  0.000000000E+00  0.00000E+00  9.000E+00
      25     1     1     2     0     0 -3.658651414E+01  2.581146568E+01  7.519748685E+02  7.636072338E+02  1.250000000E+02  0.00000E+00  9.000E+00
      25     1     1     2     0     0  5.870825539E+01 -5.753478147E+01  7.506979328E+01  1.673839425E+02  1.250000000E+02  0.00000E+00  9.000E+00
      21     1     1     2   502   512 -2.212174124E+01  3.172331579E+01 -6.690313608E+00  3.924921014E+01  1.000932194E-06  0.00000E+00  9.000E+00
#rwgt            2          11   1.2574890715294487E-003           9      398829           0
</event>
<event>
      5   9999 -3.79277E-02  1.31703E+02 -1.00000E+00  1.18677E-01
      21    -1     0     0   502   511  0.000000000E+00  0.000000000E+00  4.614789834E+02  4.614789834E+02  0.000000000E+00  0.00000E+00  9.000E+00
      21    -1     0     0   501   502  0.000000000E+00  0.000000000E+00 -1.817573910E+02  1.817573910E+02  0.000000000E+00  0.00000E+00  9.000E+00
      25     1     1     2     0     0  2.098102512E+02 -1.243294107E+02  1.239001301E+02  3.007563568E+02  1.250000000E+02  0.00000E+00  9.000E+00
      25     1     1     2     0     0 -1.152282634E+02  3.267778180E+01  8.305764312E+01  1.920129219E+02  1.250000000E+02  0.00000E+00  9.000E+00
      21     1     1     2   501   511 -9.458198781E+01  9.165162891E+01  7.276381917E+01  1.504670957E+02  3.693564745E-06  0.00000E+00  9.000E+00
#rwgt            1           1  -5.0133663865290633E-002           9      398969           0
</event>
<event>
      5   9999  3.79277E-02  4.83731E+01 -1.00000E+00  1.39900E-01
      21    -1     0     0   512   501  0.000000000E+00  0.000000000E+00  1.442479404E+03  1.442479404E+03  0.000000000E+00  0.00000E+00  9.000E+00
      21    -1     0     0   501   502  0.000000000E+00  0.000000000E+00 -5.209087914E+02  5.209087914E+02  0.000000000E+00  0.00000E+00  9.000E+00
      25     1     1     2     0     0  2.875031657E+01  2.416309184E+02 -2.258993817E+02  3.547782576E+02  1.250000000E+02  0.00000E+00  9.000E+00
      25     1     1     2     0     0 -6.940854026E+01 -2.678391252E+02 -1.299650221E+02  3.302593669E+02  1.250000000E+02  0.00000E+00  9.000E+00
      21     1     1     2   512   502  4.065822368E+01  2.620820680E+01  1.277435017E+03  1.278350571E+03  2.157918644E-05  0.00000E+00  9.000E+00
#rwgt            1           1   3.6361537822503655E-002           9      399193           0
</event>
<event>
      5   9999  3.79277E-02  4.17312E+01 -1.00000E+00  1.43708E-01
      21    -1     0     0   502   501  0.000000000E+00  0.000000000E+00  1.341916508E+02  1.341916508E+02  0.000000000E+00  0.00000E+00  9.000E+00
      21    -1     0     0   501   511  0.000000000E+00  0.000000000E+00 -6.052393119E+02  6.052393119E+02  0.000000000E+00  0.00000E+00  9.000E+00
      25     1     1     2     0     0 -1.013553011E+02  1.287090479E+02 -4.382311187E+01  2.106760100E+02  1.250000000E+02  0.00000E+00  9.000E+00
      25     1     1     2     0     0  1.393732615E+02 -1.115007218E+02 -1.937626425E+02  2.915926587E+02  1.250000000E+02  0.00000E+00  9.000E+00
      21     1     1     2   502   511 -3.801796045E+01 -1.720832600E+01 -2.334619067E+02  2.371622940E+02  3.814697266E-06  0.00000E+00  9.000E+00
#rwgt            1           1   4.5154053727618298E-002           9      399453           0
</event>
<event>
      5   9999  3.79277E-02  3.86272E+01 -1.00000E+00  1.45787E-01
      21    -1     0     0   502   501  0.000000000E+00  0.000000000E+00  3.148437339E+02  3.148437339E+02  0.000000000E+00  0.00000E+00  9.000E+00
      21    -1     0     0   501   512  0.000000000E+00  0.000000000E+00 -4.275558060E+02  4.275558060E+02  0.000000000E+00  0.00000E+00  9.000E+00
      25     1     1     2     0     0  2.238534339E+02  4.768160370E+01  1.328686973E+02  2.926823977E+02  1.250000000E+02  0.00000E+00  9.000E+00
      25     1     1     2     0     0 -2.450300488E+02 -1.537659789E+01 -9.063226953E+01  2.900265037E+02  1.250000000E+02  0.00000E+00  9.000E+00
      21     1     1     2   502   512  2.117661496E+01 -3.230500580E+01 -1.549484999E+02  1.596906385E+02  1.907348633E-06  0.00000E+00  9.000E+00
#rwgt            1           1   2.4170231281084066E-002           9      399611           0
</event>
<event>
      5   9999  3.79277E-02  4.86794E+01 -1.00000E+00  1.39742E-01
      21    -1     0     0   511   501  0.000000000E+00  0.000000000E+00  2.533365550E+01  2.533365550E+01  0.000000000E+00  0.00000E+00  9.000E+00
      21    -1     0     0   501   502  0.000000000E+00  0.000000000E+00 -2.689435442E+03  2.689435442E+03  0.000000000E+00  0.00000E+00  9.000E+00
      25     1     1     2     0     0 -1.755969406E+02 -5.084005886E+00 -1.245608887E+03  1.264130781E+03  1.250000000E+02  0.00000E+00  9.000E+00
      25     1     1     2     0     0  2.050799436E+02  4.381947878E+01 -1.296606863E+03  1.319390878E+03  1.250000000E+02  0.00000E+00  9.000E+00
      21     1     1     2   511   502 -2.948300302E+01 -3.873547289E+01 -1.218860357E+02  1.312474382E+02  2.336015456E-06  0.00000E+00  9.000E+00
#rwgt            1           1   6.1475053544765505E-002           9      399762           0
</event>
<event>
      5   9999  3.79277E-02  3.96092E+02 -1.00000E+00  1.01814E-01
       2    -1     0     0   502     0  0.000000000E+00  0.000000000E+00  2.002678533E+03  2.002678533E+03  0.000000000E+00  0.00000E+00  9.000E+00
      21    -1     0     0   501   502  0.000000000E+00  0.000000000E+00 -1.090811751E+03  1.090811751E+03  0.000000000E+00  0.00000E+00  9.000E+00
      25     1     1     2     0     0 -3.587068788E+02  2.375248919E+02 -8.572104301E+02  9.672245968E+02  1.250000000E+02  0.00000E+00  9.000E+00
      25     1     1     2     0     0 -3.141727154E+01 -1.690237758E+02 -8.605644308E+01  2.293181047E+02  1.250000000E+02  0.00000E+00  9.000E+00
       2     1     1     2   501     0  3.901241504E+02 -6.850111612E+01  1.855133654E+03  1.896947583E+03  0.000000000E+00  0.00000E+00  9.000E+00
#rwgt            1           1   3.0042004346614217E-002           9      399855           0
</event>
<event>
      5   9999  3.79277E-02  2.51599E+02 -1.00000E+00  1.08136E-01
      21    -1     0     0   511   501  0.000000000E+00  0.000000000E+00  1.513049184E+03  1.513049184E+03  0.000000000E+00  0.00000E+00  9.000E+00
      21    -1     0     0   501   502  0.000000000E+00  0.000000000E+00 -1.809085704E+02  1.809085704E+02  0.000000000E+00  0.00000E+00  9.000E+00
      25     1     1     2     0     0  7.618514356E+01 -4.862189804E+01  3.998881217E+02  4.286067836E+02  1.250000000E+02  0.00000E+00  9.000E+00
      25     1     1     2     0     0  9.972009965E+01 -1.312654395E+02 -8.036715994E+01  2.219427725E+02  1.250000000E+02  0.00000E+00  9.000E+00
      21     1     1     2   511   502 -1.759052432E+02  1.798873375E+02  1.012619652E+03  1.043408198E+03  1.525878906E-05  0.00000E+00  9.000E+00
#rwgt            1           1   3.8099394919687196E-002           9      399980           0
</event>
<event>
      5   9999  3.79277E-02  7.41769E+01 -1.00000E+00  1.29958E-01
      21    -1     0     0   502   512  0.000000000E+00  0.000000000E+00  1.993883760E+02  1.993883760E+02  0.000000000E+00  0.00000E+00  9.000E+00
      21    -1     0     0   501   502  0.000000000E+00  0.000000000E+00 -3.004685712E+02  3.004685712E+02  0.000000000E+00  0.00000E+00  9.000E+00
      25     1     1     2     0     0 -4.195147581E+00  1.728382634E+02 -1.093746660E+02  2.397467041E+02  1.250000000E+02  0.00000E+00  9.000E+00
      25     1     1     2     0     0  6.683208409E-01 -9.874520471E+01 -4.868790081E+01  1.665730284E+02  1.250000000E+02  0.00000E+00  9.000E+00
      21     1     1     2   501   512  3.526826740E+00 -7.409305873E+01  5.698237155E+01  9.353721466E+01  1.168007728E-06  0.00000E+00  9.000E+00
#rwgt            1           1   4.2208906780322512E-002           9      400063           0
</event>
<event>
      5   9999  3.79277E-02  1.36658E+02 -1.00000E+00  1.18020E-01
      21    -1     0     0   502   511  0.000000000E+00  0.000000000E+00  9.393710137E+02  9.393710137E+02  0.000000000E+00  0.00000E+00  9.000E+00
      21    -1     0     0   501   502  0.000000000E+00  0.000000000E+00 -1.148373951E+02  1.148373951E+02  0.000000000E+00  0.00000E+00  9.000E+00
      25     1     1     2     0     0 -1.409201781E+02 -1.909775716E+02  1.735939156E+02  3.195164738E+02  1.250000000E+02  0.00000E+00  9.000E+00
      25     1     1     2     0     0  7.806273801E+00  1.600547637E+02  3.647265511E+02  4.175271517E+02  1.250000000E+02  0.00000E+00  9.000E+00
      21     1     1     2   501   511  1.331139043E+02  3.092280788E+01  2.862131518E+02  3.171647834E+02  0.000000000E+00  0.00000E+00  9.000E+00
#rwgt            1           1   4.3582198364377780E-002           9      400138           0
</event>
<event>
      5   9999  3.79277E-02  1.24728E+02 -1.00000E+00  1.19660E-01
      21    -1     0     0   502   512  0.000000000E+00  0.000000000E+00  4.794968707E+02  4.794968707E+02  0.000000000E+00  0.00000E+00  9.000E+00
      21    -1     0     0   501   502  0.000000000E+00  0.000000000E+00 -6.559006111E+02  6.559006111E+02  0.000000000E+00  0.00000E+00  9.000E+00
      25     1     1     2     0     0  1.153454968E+02 -3.290034453E+02 -4.534038136E+02  5.854467258E+02  1.250000000E+02  0.00000E+00  9.000E+00
      25     1     1     2     0     0 -6.686052792E+01  2.140847683E+02  1.197566356E+01  2.570428656E+02  1.250000000E+02  0.00000E+00  9.000E+00
      21     1     1     2   501   512 -4.848496885E+01  1.149186770E+02  2.650244097E+02  2.929078904E+02  0.000000000E+00  0.00000E+00  9.000E+00
#rwgt            1           1   2.5020131975913081E-002           9      400195           0
</event>
<event>
      5   9999  3.79277E-02  5.15231E+01 -1.00000E+00  1.38336E-01
      21    -1     0     0   502   501  0.000000000E+00  0.000000000E+00  9.285664996E+02  9.285664996E+02  0.000000000E+00  0.00000E+00  9.000E+00
      21    -1     0     0   511   502  0.000000000E+00  0.000000000E+00 -1.667105610E+02  1.667105610E+02  0.000000000E+00  0.00000E+00  9.000E+00
      25     1     1     2     0     0 -1.587497500E+01  2.229991527E+02  4.059842197E+02  4.800300236E+02  1.250000000E+02  0.00000E+00  9.000E+00
      25     1     1     2     0     0  2.575308843E+01 -1.724318423E+02  4.552743647E+02  5.032849183E+02  1.250000000E+02  0.00000E+00  9.000E+00
      21     1     1     2   511   501 -9.878113422E+00 -5.056731037E+01 -9.940264592E+01  1.119621187E+02  3.015782986E-06  0.00000E+00  9.000E+00
#rwgt            1           1   3.5198464410430758E-002           9      400293           0
</event>
<event>
      5   9999  3.79277E-02  9.31874E+00 -1.00000E+00  1.99367E-01
      21    -1     0     0   512   501  0.000000000E+00  0.000000000E+00  5.872911907E+02  5.872911907E+02  0.000000000E+00  0.00000E+00  9.000E+00
      21    -1     0     0   501   502  0.000000000E+00  0.000000000E+00 -9.546993993E+01  9.546993993E+01  0.000000000E+00  0.00000E+00  9.000E+00
      25     1     1     2     0     0  1.702009239E+01 -1.763411172E+02  1.287805440E+02  2.521810890E+02  1.250000000E+02  0.00000E+00  9.000E+00
      25     1     1     2     0     0 -1.087374875E+01  1.833454954E+02  3.469976452E+02  4.120269104E+02  1.250000000E+02  0.00000E+00  9.000E+00
      21     1     1     2   512   502 -6.146343636E+00 -7.004378208E+00  1.604306159E+01  1.855313125E+01  2.384185791E-07  0.00000E+00  9.000E+00
#rwgt            1           1   2.9349532780143999E-002           9      400477           0
</event>
<event>
      5   9999  3.79277E-02  1.43232E+02 -1.00000E+00  1.17194E-01
       1    -1     0     0   502     0  0.000000000E+00  0.000000000E+00  1.035073195E+03  1.035073195E+03  0.000000000E+00  0.00000E+00  9.000E+00
      21    -1     0     0   501   502  0.000000000E+00  0.000000000E+00 -2.229149858E+02  2.229149858E+02  0.000000000E+00  0.00000E+00  9.000E+00
      25     1     1     2     0     0 -1.925008121E+02 -2.431504892E+02  1.849041832E+02  3.820906699E+02  1.250000000E+02  0.00000E+00  9.000E+00
      25     1     1     2     0     0  1.221227350E+02  3.678997843E+02  2.638613852E+02  4.852958317E+02  1.250000000E+02  0.00000E+00  9.000E+00
       1     1     1     2   501     0  7.037807710E+01 -1.247492950E+02  3.633926406E+02  3.906016789E+02  5.394796609E-06  0.00000E+00  9.000E+00
#rwgt            1           1   4.0658693210069603E-002           9      400880           0
</event>
<event>
      5   9999  3.79277E-02  8.20278E+01 -1.00000E+00  1.27826E-01
       2    -1     0     0   502     0  0.000000000E+00  0.000000000E+00  2.101852492E+03  2.101852492E+03  0.000000000E+00  0.00000E+00  9.000E+00
      21    -1     0     0   501   502  0.000000000E+00  0.000000000E+00 -4.455575356E+01  4.455575356E+01  0.000000000E+00  0.00000E+00  9.000E+00
      25     1     1     2     0     0  8.688024298E+01 -1.333990439E+02  3.659093112E+02  4.181603826E+02  1.250000000E+02  0.00000E+00  9.000E+00
      25     1     1     2     0     0 -7.501147515E+01  2.145636189E+02  1.457241891E+03  1.480149721E+03  1.250000000E+02  0.00000E+00  9.000E+00
       2     1     1     2   501     0 -1.186876783E+01 -8.116457502E+01  2.341455371E+02  2.480981427E+02  2.697398305E-06  0.00000E+00  9.000E+00
#rwgt            1           1   3.9827625471874052E-002           9      400942           0
</event>
<event>
      5   9999  3.79277E-02  6.90770E+01 -1.00000E+00  1.31513E-01
      21    -1     0     0   502   501  0.000000000E+00  0.000000000E+00  4.104082977E+02  4.104082977E+02  0.000000000E+00  0.00000E+00  9.000E+00
      21    -1     0     0   511   502  0.000000000E+00  0.000000000E+00 -3.563040784E+02  3.563040784E+02  0.000000000E+00  0.00000E+00  9.000E+00
      25     1     1     2     0     0 -3.364544359E+02 -5.547111771E+00 -5.887877980E+01  3.637637538E+02  1.250000000E+02  0.00000E+00  9.000E+00
      25     1     1     2     0     0  2.814689180E+02 -3.626462268E+01  1.220919774E+02  3.332736497E+02  1.250000000E+02  0.00000E+00  9.000E+00
      21     1     1     2   511   501  5.498551794E+01  4.181173445E+01 -9.108978205E+00  6.967497259E+01  1.353957259E-06  0.00000E+00  9.000E+00
#rwgt            1           1   4.2500512600671954E-002           9      401090           0
</event>
<event>
      5   9999  3.79277E-02  1.52467E+01 -1.00000E+00  1.76719E-01
      21    -1     0     0   502   512  0.000000000E+00  0.000000000E+00  9.348559782E+01  9.348559782E+01  0.000000000E+00  0.00000E+00  9.000E+00
      21    -1     0     0   501   502  0.000000000E+00  0.000000000E+00 -7.710073532E+02  7.710073532E+02  0.000000000E+00  0.00000E+00  9.000E+00
      25     1     1     2     0     0 -3.024980428E+01  1.281573058E+02 -1.315830957E+02  2.242285815E+02  1.250000000E+02  0.00000E+00  9.000E+00
      25     1     1     2     0     0  3.494852847E+01 -1.426619061E+02 -5.755238958E+02  6.069815266E+02  1.250000000E+02  0.00000E+00  9.000E+00
      21     1     1     2   501   512 -4.698724192E+00  1.450460033E+01  2.958523606E+01  3.328284291E+01  6.743495762E-07  0.00000E+00  9.000E+00
#rwgt            1           1   4.5233009264573625E-002           9      401144           0
</event>
<event>
      5   9999  3.79277E-02  5.25368E+01 -1.00000E+00  1.37860E-01
      21    -1     0     0   502   511  0.000000000E+00  0.000000000E+00  9.886202058E+02  9.886202058E+02  0.000000000E+00  0.00000E+00  9.000E+00
      21    -1     0     0   501   502  0.000000000E+00  0.000000000E+00 -1.879400078E+02  1.879400078E+02  0.000000000E+00  0.00000E+00  9.000E+00
      25     1     1     2     0     0 -6.491012964E+01 -7.885247310E+01 -1.120004419E+02  1.964691742E+02  1.250000000E+02  0.00000E+00  9.000E+00
      25     1     1     2     0     0  1.403956321E+01  9.197865137E+01  1.522854376E+02  2.178830791E+02  1.250000000E+02  0.00000E+00  9.000E+00
      21     1     1     2   501   511  5.087056643E+01 -1.312617828E+01  7.603952023E+02  7.622079603E+02  1.078959322E-05  0.00000E+00  9.000E+00
#rwgt            1           1   3.5986021939625988E-002           9      401342           0
</event>
<event>
      5   9999  3.79277E-02  6.11876E+01 -1.00000E+00  1.34250E-01
      21    -1     0     0   502   501  0.000000000E+00  0.000000000E+00  1.185467735E+03  1.185467735E+03  0.000000000E+00  0.00000E+00  9.000E+00
      21    -1     0     0   512   502  0.000000000E+00  0.000000000E+00 -4.035132453E+01  4.035132453E+01  0.000000000E+00  0.00000E+00  9.000E+00
      25     1     1     2     0     0  1.317360904E+01 -3.267051047E+01  1.982615390E+02  2.370095864E+02  1.250000000E+02  0.00000E+00  9.000E+00
      25     1     1     2     0     0 -6.564410424E+01  6.414704772E+01  8.957860405E+02  9.091103467E+02  1.250000000E+02  0.00000E+00  9.000E+00
      21     1     1     2   512   501  5.247049520E+01 -3.147653725E+01  5.106883132E+01  7.969912670E+01  9.536743164E-07  0.00000E+00  9.000E+00
#rwgt            1           1   4.6185530898064840E-002           9      401574           0
</event>
<event>
      5   9999  3.79277E-02  3.23394E+01 -1.00000E+00  1.50809E-01
      21    -1     0     0   502   501  0.000000000E+00  0.000000000E+00  1.575141488E+02  1.575141488E+02  0.000000000E+00  0.00000E+00  9.000E+00
      21    -1     0     0   501   511  0.000000000E+00  0.000000000E+00 -3.965851670E+02  3.965851670E+02  0.000000000E+00  0.00000E+00  9.000E+00
      25     1     1     2     0     0 -9.693973504E+01 -1.471570868E+02 -1.901855324E+02  2.878333843E+02  1.250000000E+02  0.00000E+00  9.000E+00
      25     1     1     2     0     0  7.324604376E+01  1.691672426E+02 -2.127142961E+01  2.237409498E+02  1.250000000E+02  0.00000E+00  9.000E+00
      21     1     1     2   502   511  2.369369128E+01 -2.201015586E+01 -2.761405614E+01  4.252498164E+01  3.371747881E-07  0.00000E+00  9.000E+00
#rwgt            1           1   2.3366604234524566E-002           9      401833           0
</event>
<event>
      5   9999  3.79277E-02  6.13055E+01 -1.00000E+00  1.34206E-01
      21    -1     0     0   502   501  0.000000000E+00  0.000000000E+00  2.912742769E+02  2.912742769E+02  0.000000000E+00  0.00000E+00  9.000E+00
      21    -1     0     0   501   512  0.000000000E+00  0.000000000E+00 -3.541093981E+02  3.541093981E+02  0.000000000E+00  0.00000E+00  9.000E+00
      25     1     1     2     0     0 -7.911700334E+01 -1.596792796E+02  1.091493610E+02  2.435067875E+02  1.250000000E+02  0.00000E+00  9.000E+00
      25     1     1     2     0     0  1.046090982E+02  2.154333436E+02 -6.387696791E+01  2.775965706E+02  1.250000000E+02  0.00000E+00  9.000E+00
      21     1     1     2   502   512 -2.549209483E+01 -5.575406399E+01 -1.081075142E+02  1.242803170E+02  1.348699152E-06  0.00000E+00  9.000E+00
#rwgt            1           1   3.7975283353305821E-002           9      401951           0
</event>
<event>
      5   9999  3.79277E-02  1.25261E+01 -1.00000E+00  1.85090E-01
      21    -1     0     0   502   501  0.000000000E+00  0.000000000E+00  3.582780231E+02  3.582780231E+02  0.000000000E+00  0.00000E+00  9.000E+00
      21    -1     0     0   501   511  0.000000000E+00  0.000000000E+00 -2.005862214E+03  2.005862214E+03  0.000000000E+00  0.00000E+00  9.000E+00
      25     1     1     2     0     0  9.281969395E+00 -1.212169684E+02  1.233905936E+02  2.136116733E+02  1.250000000E+02  0.00000E+00  9.000E+00
      25     1     1     2     0     0 -1.237295157E+01  1.090781964E+02  1.532937987E+02  2.262192113E+02  1.250000000E+02  0.00000E+00  9.000E+00
      21     1     1     2   502   511  3.090982179E+00  1.213877202E+01 -1.924268584E+03  1.924309353E+03  3.051757812E-05  0.00000E+00  9.000E+00
#rwgt            1           1   2.8138096891490740E-002           9      402047           0
</event>
<event>
      5   9999  3.79277E-02  1.92154E+01 -1.00000E+00  1.67816E-01
      21    -1     0     0   502   501  0.000000000E+00  0.000000000E+00  2.175632993E+02  2.175632993E+02  0.000000000E+00  0.00000E+00  9.000E+00
      21    -1     0     0   512   502  0.000000000E+00  0.000000000E+00 -6.692249701E+02  6.692249701E+02  0.000000000E+00  0.00000E+00  9.000E+00
      25     1     1     2     0     0 -6.929415375E+01 -6.682887582E+01 -4.803547742E+01  1.649247873E+02  1.250000000E+02  0.00000E+00  9.000E+00
      25     1     1     2     0     0  8.503556279E+01  7.784884125E+01  1.134569023E+02  2.044234764E+02  1.250000000E+02  0.00000E+00  9.000E+00
      21     1     1     2   512   501 -1.574140904E+01 -1.101996543E+01 -5.170830957E+02  5.174400057E+02  1.078959322E-05  0.00000E+00  9.000E+00
#rwgt            1           1   4.2312652950369845E-002           9      402282           0
</event>
<event>
      5   9999  3.79277E-02  6.03621E+01 -1.00000E+00  1.34564E-01
      21    -1     0     0   511   501  0.000000000E+00  0.000000000E+00  1.883401270E+03  1.883401270E+03  0.000000000E+00  0.00000E+00  9.000E+00
      21    -1     0     0   501   502  0.000000000E+00  0.000000000E+00 -1.529718445E+02  1.529718445E+02  0.000000000E+00  0.00000E+00  9.000E+00
      25     1     1     2     0     0 -4.108529046E+02  2.366989049E+01  5.482813540E+02  6.968484886E+02  1.250000000E+02  0.00000E+00  9.000E+00
      25     1     1     2     0     0  4.668261245E+02 -4.626605828E+01  6.899377138E+02  8.436268296E+02  1.250000000E+02  0.00000E+00  9.000E+00
      21     1     1     2   511   502 -5.597321994E+01  2.259616779E+01  4.922103578E+02  4.958977964E+02  5.394796609E-06  0.00000E+00  9.000E+00
#rwgt            1           1  0.16235206035034538                9      402487           0
</event>
<event>
      5   9999  3.79277E-02  5.42509E+01 -1.00000E+00  1.37083E-01
      21    -1     0     0   502   512  0.000000000E+00  0.000000000E+00  1.083497553E+02  1.083497553E+02  0.000000000E+00  0.00000E+00  9.000E+00
      21    -1     0     0   501   502  0.000000000E+00  0.000000000E+00 -7.893989476E+02  7.893989476E+02  0.000000000E+00  0.00000E+00  9.000E+00
      25     1     1     2     0     0  2.750551577E+01  1.386593927E+02 -3.094785646E+02  3.624706368E+02  1.250000000E+02  0.00000E+00  9.000E+00
      25     1     1     2     0     0 -7.613579536E+01 -1.146124483E+02 -4.220487218E+02  4.611754506E+02  1.250000000E+02  0.00000E+00  9.000E+00
      21     1     1     2   501   512  4.863027959E+01 -2.404694447E+01  5.047809414E+01  7.410261547E+01  1.907348633E-06  0.00000E+00  9.000E+00
#rwgt            2          11   1.7835571632235027E-003           9      402606           0
</event>
<event>
      5   9999  3.79277E-02  1.41440E+02 -1.00000E+00  1.17414E-01
       3    -1     0     0   502     0  0.000000000E+00  0.000000000E+00  1.702063543E+03  1.702063543E+03  0.000000000E+00  0.00000E+00  9.000E+00
      21    -1     0     0   501   502  0.000000000E+00  0.000000000E+00 -5.775100392E+02  5.775100392E+02  0.000000000E+00  0.00000E+00  9.000E+00
      25     1     1     2     0     0 -1.636175844E+01  4.110483642E+01 -4.535724032E+02  4.725571285E+02  1.250000000E+02  0.00000E+00  9.000E+00
      25     1     1     2     0     0  1.018634898E+02  7.156632855E+01 -4.149512482E+01  1.812312206E+02  1.250000000E+02  0.00000E+00  9.000E+00
       3     1     1     2   501     0 -8.550173134E+01 -1.126711650E+02  1.619621032E+03  1.625785233E+03  2.157918644E-05  0.00000E+00  9.000E+00
#rwgt            2          19   8.7619332178227036E-004           9      402956           0
</event>
<event>
      5   9999  3.79277E-02  2.64876E+01 -1.00000E+00  1.56893E-01
      21    -1     0     0   502   501  0.000000000E+00  0.000000000E+00  3.716529208E+02  3.716529208E+02  0.000000000E+00  0.00000E+00  9.000E+00
      21    -1     0     0   511   502  0.000000000E+00  0.000000000E+00 -1.340188265E+02  1.340188265E+02  0.000000000E+00  0.00000E+00  9.000E+00
      25     1     1     2     0     0 -1.036624338E+01  1.953101299E+01 -6.420276803E+01  1.422529961E+02  1.250000000E+02  0.00000E+00  9.000E+00
      25     1     1     2     0     0  3.653330064E+01 -2.363958512E+01  3.088519365E+02  3.360179024E+02  1.250000000E+02  0.00000E+00  9.000E+00
      21     1     1     2   511   501 -2.616705726E+01  4.108572131E+00 -7.015074238E+00  2.740084884E+01  2.795705652E-07  0.00000E+00  9.000E+00
#rwgt            1           1   4.4000949156026606E-002           9      403035           0
</event>
<event>
      5   9999  3.79277E-02  8.04293E+01 -1.00000E+00  1.28237E-01
      21    -1     0     0   502   501  0.000000000E+00  0.000000000E+00  1.475731815E+02  1.475731815E+02  0.000000000E+00  0.00000E+00  9.000E+00
      21    -1     0     0   512   502  0.000000000E+00  0.000000000E+00 -7.225952727E+02  7.225952727E+02  0.000000000E+00  0.00000E+00  9.000E+00
      25     1     1     2     0     0  1.142088835E+02 -6.666160666E+01 -2.086213286E+02  2.768308105E+02  1.250000000E+02  0.00000E+00  9.000E+00
      25     1     1     2     0     0 -4.043508136E+01  9.869751903E+01  4.801294099E+01  1.711912339E+02  1.250000000E+02  0.00000E+00  9.000E+00
      21     1     1     2   512   501 -7.377380217E+01 -3.203591237E+01 -4.144137036E+02  4.221464097E+02  5.394796609E-06  0.00000E+00  9.000E+00
#rwgt            1           1   2.7150566989125369E-002           9      403224           0
</event>
<event>
      5   9999  3.79277E-02  7.05282E+01 -1.00000E+00  1.31056E-01
      21    -1     0     0   502   501  0.000000000E+00  0.000000000E+00  4.250004189E+02  4.250004189E+02  0.000000000E+00  0.00000E+00  9.000E+00
      21    -1     0     0   511   502  0.000000000E+00  0.000000000E+00 -3.048470097E+02  3.048470097E+02  0.000000000E+00  0.00000E+00  9.000E+00
      25     1     1     2     0     0 -6.239836791E+00  2.039907763E+02  2.796218012E+02  3.680550558E+02  1.250000000E+02  0.00000E+00  9.000E+00
      25     1     1     2     0     0 -6.427699158E+01 -2.027251891E+02 -8.942999125E+01  2.623961838E+02  1.250000000E+02  0.00000E+00  9.000E+00
      21     1     1     2   511   501  7.051682837E+01 -1.265587227E+00 -7.003840079E+01  9.939618896E+01  9.536743164E-07  0.00000E+00  9.000E+00
#rwgt            1           1   4.1325797908178516E-002           9      403302           0
</event>
<event>
      5   9999  3.79277E-02  1.67399E+01 -1.00000E+00  1.73008E-01
      21    -1     0     0   502   512  0.000000000E+00  0.000000000E+00  7.340736447E+02  7.340736447E+02  0.000000000E+00  0.00000E+00  9.000E+00
      21    -1     0     0   501   502  0.000000000E+00  0.000000000E+00 -9.940394408E+01  9.940394408E+01  0.000000000E+00  0.00000E+00  9.000E+00
      25     1     1     2     0     0  1.005608597E+02  3.954493110E+01  3.976140164E+02  4.305789058E+02  1.250000000E+02  0.00000E+00  9.000E+00
      25     1     1     2     0     0 -8.385064037E+01 -4.054067346E+01 -9.124785070E+00  1.561497288E+02  1.250000000E+02  0.00000E+00  9.000E+00
      21     1     1     2   501   512 -1.671021934E+01  9.957423635E-01  2.461804693E+02  2.467489542E+02  2.697398305E-06  0.00000E+00  9.000E+00
#rwgt            1           1   3.7263369359539375E-002           9      403424           0
</event>
<event>
      5   9999  3.79277E-02  1.50178E+01 -1.00000E+00  1.77335E-01
      21    -1     0     0   502   511  0.000000000E+00  0.000000000E+00  5.103720988E+02  5.103720988E+02  0.000000000E+00  0.00000E+00  9.000E+00
      21    -1     0     0   501   502  0.000000000E+00  0.000000000E+00 -1.396454794E+03  1.396454794E+03  0.000000000E+00  0.00000E+00  9.000E+00
      25     1     1     2     0     0 -4.006736236E+01  4.174147516E+01 -2.012465041E+02  2.438706618E+02  1.250000000E+02  0.00000E+00  9.000E+00
      25     1     1     2     0     0  4.317500160E+01 -5.643427461E+01 -1.169376597E+03  1.178183149E+03  1.250000000E+02  0.00000E+00  9.000E+00
      21     1     1     2   501   511 -3.107639234E+00  1.469279945E+01  4.845404058E+02  4.847730816E+02  1.078959322E-05  0.00000E+00  9.000E+00
#rwgt            1           1   5.4627662179242836E-002           9      403739           0
</event>
<event>
      5   9999  3.79277E-02  1.13292E+02 -1.00000E+00  1.21438E-01
      21    -1     0     0   502   501  0.000000000E+00  0.000000000E+00  1.691772457E+03  1.691772457E+03  0.000000000E+00  0.00000E+00  9.000E+00
      21    -1     0     0   501   512  0.000000000E+00  0.000000000E+00 -4.929824647E+01  4.929824647E+01  0.000000000E+00  0.00000E+00  9.000E+00
      25     1     1     2     0     0  1.429495405E+02 -7.127309471E+01  8.563824868E+02  8.800740814E+02  1.250000000E+02  0.00000E+00  9.000E+00
      25     1     1     2     0     0 -6.443914865E+01 -1.040455265E+01  7.115317458E+02  7.253709974E+02  1.250000000E+02  0.00000E+00  9.000E+00
      21     1     1     2   502   512 -7.851039183E+01  8.167764736E+01  7.455997761E+01  1.356256243E+02  2.336015456E-06  0.00000E+00  9.000E+00
#rwgt            1           1   3.4237650628808652E-002           9      403931           0
</event>
<event>
      5   9999  3.79277E-02  1.08438E+02 -1.00000E+00  1.22266E-01
      21    -1     0     0   502   501  0.000000000E+00  0.000000000E+00  3.303432364E+02  3.303432364E+02  0.000000000E+00  0.00000E+00  9.000E+00
      -3    -1     0     0     0   502  0.000000000E+00  0.000000000E+00 -3.352332091E+02  3.352332091E+02  0.000000000E+00  0.00000E+00  9.000E+00
      25     1     1     2     0     0  1.870625201E+02 -1.608241649E+01  1.863103919E+02  2.925535724E+02  1.250000000E+02  0.00000E+00  9.000E+00
      25     1     1     2     0     0 -7.864454208E+01  1.817408823E+01  4.967108250E+00  1.488789228E+02  1.250000000E+02  0.00000E+00  9.000E+00
      -3     1     1     2     0   501 -1.084179781E+02 -2.091671735E+00 -1.961674729E+02  2.241439503E+02  3.814697266E-06  0.00000E+00  9.000E+00
#rwgt            1           1   3.4988597123064742E-002           9      404017           0
</event>
<event>
      5   9999  3.79277E-02  2.33002E+01 -1.00000E+00  1.61076E-01
      21    -1     0     0   502   501  0.000000000E+00  0.000000000E+00  1.096131658E+03  1.096131658E+03  0.000000000E+00  0.00000E+00  9.000E+00
      21    -1     0     0   511   502  0.000000000E+00  0.000000000E+00 -9.727777825E+01  9.727777825E+01  0.000000000E+00  0.00000E+00  9.000E+00
      25     1     1     2     0     0  8.353716428E+01 -2.529053862E+02  2.706301934E+02  3.997565431E+02  1.250000000E+02  0.00000E+00  9.000E+00
      25     1     1     2     0     0 -9.840327871E+01  2.349638473E+02  7.081998141E+02  7.629306597E+02  1.250000000E+02  0.00000E+00  9.000E+00
      21     1     1     2   511   501  1.486611444E+01  1.794153889E+01  2.002387258E+01  3.072223379E+01  2.384185791E-07  0.00000E+00  9.000E+00
#rwgt            1           1   4.2069147031671500E-002           9      404119           0
</event>
<event>
      5   9999  3.79277E-02  6.57038E+01 -1.00000E+00  1.32629E-01
      21    -1     0     0   502   501  0.000000000E+00  0.000000000E+00  1.160492126E+03  1.160492126E+03  0.000000000E+00  0.00000E+00  9.000E+00
      21    -1     0     0   501   512  0.000000000E+00  0.000000000E+00 -1.144347824E+02  1.144347824E+02  0.000000000E+00  0.00000E+00  9.000E+00
      25     1     1     2     0     0 -1.174991661E+02  1.544898957E+01  6.974040855E+02  7.183607616E+02  1.250000000E+02  0.00000E+00  9.000E+00
      25     1     1     2     0     0  1.133620893E+02 -8.102241375E+01  4.198471226E+02  4.596870687E+02  1.250000000E+02  0.00000E+00  9.000E+00
      21     1     1     2   502   512  4.137076778E+00  6.557342419E+01 -7.119386469E+01  9.687907789E+01  1.907348633E-06  0.00000E+00  9.000E+00
#rwgt            1           1   4.8848939470562104E-002           9      404284           0
</event>
<event>
      5   9999  3.79277E-02  2.96333E+01 -1.00000E+00  1.53412E-01
      21    -1     0     0   502   501  0.000000000E+00  0.000000000E+00  3.327905938E+02  3.327905938E+02  0.000000000E+00  0.00000E+00  9.000E+00
      21    -1     0     0   501   511  0.000000000E+00  0.000000000E+00 -1.689991810E+02  1.689991810E+02  0.000000000E+00  0.00000E+00  9.000E+00
      25     1     1     2     0     0  2.205747557E+01 -1.228515365E+02  2.032201567E+02  2.692628165E+02  1.250000000E+02  0.00000E+00  9.000E+00
      25     1     1     2     0     0 -5.168447249E+01  1.222382485E+02  1.103329373E+00  1.823175566E+02  1.250000000E+02  0.00000E+00  9.000E+00
      21     1     1     2   502   511  2.962699692E+01  6.132880549E-01 -4.053207323E+01  5.020940180E+01  4.768371582E-07  0.00000E+00  9.000E+00
#rwgt            1           1   3.9523886766835103E-002           9      404512           0
</event>
<event>
      5   9999  3.79277E-02  3.52467E+01 -1.00000E+00  1.48332E-01
      21    -1     0     0   502   512  0.000000000E+00  0.000000000E+00  4.408346910E+02  4.408346910E+02  0.000000000E+00  0.00000E+00  9.000E+00
      21    -1     0     0   501   502  0.000000000E+00  0.000000000E+00 -1.197704152E+02  1.197704152E+02  0.000000000E+00  0.00000E+00  9.000E+00
      25     1     1     2     0     0 -5.272814179E+01  3.832159699E+01  2.553228437E+02  2.916565724E+02  1.250000000E+02  0.00000E+00  9.000E+00
      25     1     1     2     0     0  5.990918963E+01 -7.282900297E+01 -3.651832334E+01  1.607848333E+02  1.250000000E+02  0.00000E+00  9.000E+00
      21     1     1     2   501   512 -7.181047845E+00  3.450740597E+01  1.022597555E+02  1.081637005E+02  0.000000000E+00  0.00000E+00  9.000E+00
#rwgt            1           1   2.5022034289830075E-002           9      404676           0
</event>
<event>
      5   9999  3.79277E-02  7.67008E+01 -1.00000E+00  1.29241E-01
      21    -1     0     0   502   501  0.000000000E+00  0.000000000E+00  3.024371690E+02  3.024371690E+02  0.000000000E+00  0.00000E+00  9.000E+00
      21    -1     0     0   511   502  0.000000000E+00  0.000000000E+00 -1.039189036E+02  1.039189036E+02  0.000000000E+00  0.00000E+00  9.000E+00
      25     1     1     2     0     0  6.823508781E+00 -4.083338309E+01  9.231417682E+01  1.608130364E+02  1.250000000E+02  0.00000E+00  9.000E+00
      25     1     1     2     0     0  6.406513403E+01  1.154492686E+01  8.978454164E+01  1.671044304E+02  1.250000000E+02  0.00000E+00  9.000E+00
      21     1     1     2   511   501 -7.088864281E+01  2.928845623E+01  1.641954693E+01  7.843860573E+01  0.000000000E+00  0.00000E+00  9.000E+00
#rwgt            1           1   3.6118475445905515E-003           9      404842           0
</event>
<event>
      5   9999  3.79277E-02  1.07647E+02 -1.00000E+00  1.22405E-01
      21    -1     0     0   502   501  0.000000000E+00  0.000000000E+00  3.415067325E+02  3.415067325E+02  0.000000000E+00  0.00000E+00  9.000E+00
      21    -1     0     0   512   502  0.000000000E+00  0.000000000E+00 -3.499785447E+02  3.499785447E+02  0.000000000E+00  0.00000E+00  9.000E+00
      25     1     1     2     0     0  1.072822905E+02 -2.065912157E+02  5.225703992E+01  2.693421959E+02  1.250000000E+02  0.00000E+00  9.000E+00
      25     1     1     2     0     0 -2.016440789E+01  2.698241101E+02  9.928697228E-01  2.980564368E+02  1.250000000E+02  0.00000E+00  9.000E+00
      21     1     1     2   512   501 -8.711788261E+01 -6.323289434E+01 -6.172172188E+01  1.240866445E+02  1.168007728E-06  0.00000E+00  9.000E+00
#rwgt            1           1   3.6802065749299791E-002           9      404902           0
</event>
<event>
      5   9999  3.79277E-02  4.58503E+01 -1.00000E+00  1.41257E-01
      21    -1     0     0   502   511  0.000000000E+00  0.000000000E+00  1.061851931E+02  1.061851931E+02  0.000000000E+00  0.00000E+00  9.000E+00
      21    -1     0     0   501   502  0.000000000E+00  0.000000000E+00 -6.910702149E+02  6.910702149E+02  0.000000000E+00  0.00000E+00  9.000E+00
      25     1     1     2     0     0  1.219819325E+02 -1.233597599E+02 -3.053599503E+02  3.727826732E+02  1.250000000E+02  0.00000E+00  9.000E+00
      25     1     1     2     0     0 -7.983417718E+01  1.414101326E+02 -3.084070678E+02  3.702840003E+02  1.250000000E+02  0.00000E+00  9.000E+00
      21     1     1     2   501   511 -4.214775533E+01 -1.805037270E+01  2.888199627E+01  5.418873446E+01  6.743495762E-07  0.00000E+00  9.000E+00
#rwgt            1           1   4.0515436749916846E-002           9      404956           0
</event>
<event>
      5   9999  3.79277E-02  2.66009E+01 -1.00000E+00  1.56758E-01
      21    -1     0     0   502   512  0.000000000E+00  0.000000000E+00  6.057881376E+01  6.057881376E+01  0.000000000E+00  0.00000E+00  9.000E+00
      21    -1     0     0   501   502  0.000000000E+00  0.000000000E+00 -1.372576654E+03  1.372576654E+03  0.000000000E+00  0.00000E+00  9.000E+00
      25     1     1     2     0     0  5.096304980E+00 -2.322982309E+02 -3.791731378E+02  4.619369100E+02  1.250000000E+02  0.00000E+00  9.000E+00
      25     1     1     2     0     0 -2.934732916E+00  2.057853350E+02 -8.757262578E+02  9.082277773E+02  1.250000000E+02  0.00000E+00  9.000E+00
      21     1     1     2   501   512 -2.161572064E+00  2.651289593E+01 -5.709844442E+01  6.299078028E+01  9.536743164E-07  0.00000E+00  9.000E+00
#rwgt            1           1   1.2957131949049402E-002           9      405183           0
</event>
<event>
      5   9999  3.79277E-02  1.12740E+01 -1.00000E+00  1.89924E-01
      21    -1     0     0   502   501  0.000000000E+00  0.000000000E+00  3.621260981E+02  3.621260981E+02  0.000000000E+00  0.00000E+00  9.000E+00
      21    -1     0     0   501   511  0.000000000E+00  0.000000000E+00 -1.657971782E+02  1.657971782E+02  0.000000000E+00  0.00000E+00  9.000E+00
      25     1     1     2     0     0  1.406769757E+02  4.382525976E+01  2.373421467E+02  3.060505832E+02  1.250000000E+02  0.00000E+00  9.000E+00
      25     1     1     2     0     0 -1.517694758E+02 -4.584004139E+01 -2.669544959E+01  2.036490369E+02  1.250000000E+02  0.00000E+00  9.000E+00
      21     1     1     2   502   511  1.109250010E+01  2.014781629E+00 -1.431777722E+01  1.822365627E+01  1.685873940E-07  0.00000E+00  9.000E+00
#rwgt            1           1   4.6823581722419745E-002           9      405349           0
</event>
<event>
      5   9999  3.79277E-02  1.41656E+02 -1.00000E+00  1.17387E-01
      21    -1     0     0   502   501  0.000000000E+00  0.000000000E+00  4.032932666E+02  4.032932666E+02  0.000000000E+00  0.00000E+00  9.000E+00
      21    -1     0     0   512   502  0.000000000E+00  0.000000000E+00 -4.400040259E+02  4.400040259E+02  0.000000000E+00  0.00000E+00  9.000E+00
      25     1     1     2     0     0 -7.255837441E+01 -1.780753405E+01 -1.922248635E+02  2.411580895E+02  1.250000000E+02  0.00000E+00  9.000E+00
      25     1     1     2     0     0 -6.573471598E+00  1.352999413E+02  3.296386243E+02  3.776716924E+02  1.250000000E+02  0.00000E+00  9.000E+00
      21     1     1     2   512   501  7.913184600E+01 -1.174924072E+02 -1.741245201E+02  2.244675105E+02  3.303624740E-06  0.00000E+00  9.000E+00
#rwgt            1           1   3.7814937221006727E-002           9      405577           0
</event>
<event>
      5   9999  3.79277E-02  7.19703E+01 -1.00000E+00  1.30613E-01
      21    -1     0     0   502   511  0.000000000E+00  0.000000000E+00  1.129408777E+02  1.129408777E+02  0.000000000E+00  0.00000E+00  9.000E+00
      21    -1     0     0   501   502  0.000000000E+00  0.000000000E+00 -1.416928984E+03  1.416928984E+03  0.000000000E+00  0.00000E+00  9.000E+00
      25     1     1     2     0     0 -1.267799845E+02  1.507400482E+02 -5.187699539E+02  5.688083963E+02  1.250000000E+02  0.00000E+00  9.000E+00
      25     1     1     2     0     0  1.987424424E+02 -1.518020606E+02 -8.303197753E+02  8.761269048E+02  1.250000000E+02  0.00000E+00  9.000E+00
      21     1     1     2   501   511 -7.196245782E+01  1.062012409E+00  4.510162296E+01  8.493456069E+01  2.861022949E-06  0.00000E+00  9.000E+00
#rwgt            1           1   3.2411538055316318E-002           9      405708           0
</event>
<event>
      5   9999  3.79277E-02  6.76107E+01 -1.00000E+00  1.31989E-01
      21    -1     0     0   502   512  0.000000000E+00  0.000000000E+00  5.330232244E+02  5.330232244E+02  0.000000000E+00  0.00000E+00  9.000E+00
      21    -1     0     0   501   502  0.000000000E+00  0.000000000E+00 -2.888490724E+02  2.888490724E+02  0.000000000E+00  0.00000E+00  9.000E+00
      25     1     1     2     0     0 -7.853092017E+01 -1.386039950E+02 -2.044730988E+02  2.877714736E+02  1.250000000E+02  0.00000E+00  9.000E+00
      25     1     1     2     0     0  2.620487343E+01  1.814198247E+02  3.541296313E+02  4.178907082E+02  1.250000000E+02  0.00000E+00  9.000E+00
      21     1     1     2   501   512  5.232604674E+01 -4.281582965E+01  9.451761946E+01  1.162101150E+02  1.907348633E-06  0.00000E+00  9.000E+00
#rwgt            1           1   4.1280897500456812E-002           9      405933           0
</event>
<event>
      5   9999  3.79277E-02  1.34126E+02 -1.00000E+00  1.18352E-01
      21    -1     0     0   511   501  0.000000000E+00  0.000000000E+00  3.391502688E+02  3.391502688E+02  0.000000000E+00  0.00000E+00  9.000E+00
      21    -1     0     0   501   502  0.000000000E+00  0.000000000E+00 -5.516145241E+02  5.516145241E+02  0.000000000E+00  0.00000E+00  9.000E+00
      25     1     1     2     0     0 -5.659125013E+01 -1.824183634E+02 -5.083914452E+01  2.338560402E+02  1.250000000E+02  0.00000E+00  9.000E+00
      25     1     1     2     0     0 -4.494657611E+01  2.700529003E+02 -3.267138366E+02  4.442023127E+02  1.250000000E+02  0.00000E+00  9.000E+00
      21     1     1     2   511   502  1.015378262E+02 -8.763453681E+01  1.650887259E+02  2.127064400E+02  0.000000000E+00  0.00000E+00  9.000E+00
#rwgt            1           1   3.9965935119929283E-002           9      406037           0
</event>
<event>
      5   9999  3.79277E-02  2.47976E+01 -1.00000E+00  1.59016E-01
      21    -1     0     0   512   501  0.000000000E+00  0.000000000E+00  3.056239015E+02  3.056239015E+02  0.000000000E+00  0.00000E+00  9.000E+00
      21    -1     0     0   501   502  0.000000000E+00  0.000000000E+00 -1.461940724E+02  1.461940724E+02  0.000000000E+00  0.00000E+00  9.000E+00
      25     1     1     2     0     0 -1.604726211E+00  1.336981906E+02  8.870344690E+01  2.033988270E+02  1.250000000E+02  0.00000E+00  9.000E+00
      25     1     1     2     0     0 -1.529387675E+01 -1.518464071E+02  2.831972732E+01  1.992943576E+02  1.250000000E+02  0.00000E+00  9.000E+00
      21     1     1     2   512   502  1.689860296E+01  1.814821648E+01  4.240665494E+01  4.912478933E+01  0.000000000E+00  0.00000E+00  9.000E+00
#rwgt            1           1   2.9580643726803718E-002           9      406179           0
</event>
<event>
      5   9999  3.79277E-02  2.83440E+01 -1.00000E+00  1.54773E-01
      21    -1     0     0   502   501  0.000000000E+00  0.000000000E+00  8.882503896E+01  8.882503896E+01  0.000000000E+00  0.00000E+00  9.000E+00
      21    -1     0     0   511   502  0.000000000E+00  0.000000000E+00 -6.410146641E+02  6.410146641E+02  0.000000000E+00  0.00000E+00  9.000E+00
      25     1     1     2     0     0 -1.317086329E+02 -1.292064856E+01 -4.346699662E+02  4.712505562E+02  1.250000000E+02  0.00000E+00  9.000E+00
      25     1     1     2     0     0  1.034379626E+02  1.088284674E+01 -2.840414025E+01  1.650746608E+02  1.250000000E+02  0.00000E+00  9.000E+00
      21     1     1     2   511   501  2.827067031E+01  2.037801824E+00 -8.911551864E+01  9.351448604E+01  0.000000000E+00  0.00000E+00  9.000E+00
#rwgt            1           1   3.2647443230629410E-002           9      406303           0
</event>
<event>
      5   9999  3.79277E-02  7.56859E+01 -1.00000E+00  1.29526E-01
      21    -1     0     0   502   501  0.000000000E+00  0.000000000E+00  5.608980194E+02  5.608980194E+02  0.000000000E+00  0.00000E+00  9.000E+00
      21    -1     0     0   501   512  0.000000000E+00  0.000000000E+00 -1.474166065E+02  1.474166065E+02  0.000000000E+00  0.00000E+00  9.000E+00
      25     1     1     2     0     0  1.787084268E+01 -1.053804471E+02  3.003083218E+02  3.423952303E+02  1.250000000E+02  0.00000E+00  9.000E+00
      25     1     1     2     0     0 -1.229377657E+01  1.808606307E+02  1.641657609E+02  2.746581543E+02  1.250000000E+02  0.00000E+00  9.000E+00
      21     1     1     2   502   512 -5.577066109E+00 -7.548018362E+01 -5.099266971E+01  9.126124123E+01  9.536743164E-07  0.00000E+00  9.000E+00
#rwgt            1           1   4.1436802394943496E-002           9      406491           0
</event>
<event>
      5   9999  3.79277E-02  8.99847E+01 -1.00000E+00  1.25925E-01
      21    -1     0     0   511   501  0.000000000E+00  0.000000000E+00  2.511063005E+02  2.511063005E+02  0.000000000E+00  0.00000E+00  9.000E+00
      21    -1     0     0   501   502  0.000000000E+00  0.000000000E+00 -3.884878410E+02  3.884878410E+02  0.000000000E+00  0.00000E+00  9.000E+00
      25     1     1     2     0     0  3.696138247E+01  9.553979024E+00  1.492975459E+02  1.984242413E+02  1.250000000E+02  0.00000E+00  9.000E+00
      25     1     1     2     0     0  8.634363514E+00 -8.713150348E+01 -3.123112282E+02  3.476057456E+02  1.250000000E+02  0.00000E+00  9.000E+00
      21     1     1     2   511   502 -4.559574599E+01  7.757752446E+01  2.563214180E+01  9.356415471E+01  1.936921693E-06  0.00000E+00  9.000E+00
#rwgt            1           1   5.0665039143426245E-002           9      406569           0
</event>
<event>
      5   9999  3.79277E-02  2.81111E+01 -1.00000E+00  1.55028E-01
      21    -1     0     0   502   501  0.000000000E+00  0.000000000E+00  1.048696428E+03  1.048696428E+03  0.000000000E+00  0.00000E+00  9.000E+00
      21    -1     0     0   512   502  0.000000000E+00  0.000000000E+00 -3.878024499E+01  3.878024499E+01  0.000000000E+00  0.00000E+00  9.000E+00
      25     1     1     2     0     0  9.254314989E+01 -1.049288787E+02  4.921353145E+02  5.266844141E+02  1.250000000E+02  0.00000E+00  9.000E+00
      25     1     1     2     0     0 -7.020445286E+01  8.786379381E+01  5.000319364E+02  5.275468215E+02  1.250000000E+02  0.00000E+00  9.000E+00
      21     1     1     2   512   501 -2.233869703E+01  1.706508490E+01  1.774893164E+01  3.324543701E+01  2.384185791E-07  0.00000E+00  9.000E+00
#rwgt            1           1   5.2291655487659586E-002           9      406775           0
</event>
<event>
      5   9999  3.79277E-02  5.04023E+01 -1.00000E+00  1.38877E-01
      21    -1     0     0   502   501  0.000000000E+00  0.000000000E+00  3.635889091E+02  3.635889091E+02  0.000000000E+00  0.00000E+00  9.000E+00
      21    -1     0     0   511   502  0.000000000E+00  0.000000000E+00 -1.843728355E+03  1.843728355E+03  0.000000000E+00  0.00000E+00  9.000E+00
      25     1     1     2     0     0 -2.971114025E+01  9.501232971E+01  3.206260209E+02  3.582403382E+02  1.250000000E+02  0.00000E+00  9.000E+00
      25     1     1     2     0     0  7.405318404E+01 -7.105043468E+01 -2.516393054E+02  2.991310388E+02  1.250000000E+02  0.00000E+00  9.000E+00
      21     1     1     2   511   501 -4.434204379E+01 -2.396189503E+01 -1.549126161E+03  1.549945887E+03  2.157918644E-05  0.00000E+00  9.000E+00
#rwgt            1           1   5.1747067308478334E-002           9      406890           0
</event>
<event>
      5   9999  3.79277E-02  6.52349E+01 -1.00000E+00  1.32790E-01
      21    -1     0     0   502   501  0.000000000E+00  0.000000000E+00  1.603760958E+02  1.603760958E+02  0.000000000E+00  0.00000E+00  9.000E+00
      21    -1     0     0   501   512  0.000000000E+00  0.000000000E+00 -3.668469929E+02  3.668469929E+02  0.000000000E+00  0.00000E+00  9.000E+00
      25     1     1     2     0     0  1.367031625E+02  7.890158471E+01  1.379200576E+01  2.018128691E+02  1.250000000E+02  0.00000E+00  9.000E+00
      25     1     1     2     0     0 -8.267015995E+01 -4.234988695E+01 -9.036524593E+01  1.800520645E+02  1.250000000E+02  0.00000E+00  9.000E+00
      21     1     1     2   502   512 -5.403300260E+01 -3.655169776E+01 -1.298976569E+02  1.453581551E+02  0.000000000E+00  0.00000E+00  9.000E+00
#rwgt            1           1   2.7267187500096698E-002           9      407016           0
</event>
<event>
      5   9999  3.79277E-02  2.82962E+01 -1.00000E+00  1.54825E-01
      21    -1     0     0   502   501  0.000000000E+00  0.000000000E+00  6.046143145E+01  6.046143145E+01  0.000000000E+00  0.00000E+00  9.000E+00
      21    -1     0     0   511   502  0.000000000E+00  0.000000000E+00 -1.650667184E+03  1.650667184E+03  0.000000000E+00  0.00000E+00  9.000E+00
      25     1     1     2     0     0 -3.535299203E+01  1.639002312E+02 -5.531792233E+02  5.913927400E+02  1.250000000E+02  0.00000E+00  9.000E+00
      25     1     1     2     0     0  1.415301335E+01 -1.826415646E+02 -2.580865490E+02  3.402821119E+02  1.250000000E+02  0.00000E+00  9.000E+00
      21     1     1     2   511   501  2.119997868E+01  1.874133347E+01 -7.789399798E+02  7.794537631E+02  1.078959322E-05  0.00000E+00  9.000E+00
#rwgt            1           1   3.4164652880590070E-002           9      407088           0
</event>
<event>
      5   9999  3.79277E-02  8.68456E+01 -1.00000E+00  1.26647E-01
       1    -1     0     0   502     0  0.000000000E+00  0.000000000E+00  2.465170006E+03  2.465170006E+03  0.000000000E+00  0.00000E+00  9.000E+00
      21    -1     0     0   501   502  0.000000000E+00  0.000000000E+00 -8.266525149E+01  8.266525149E+01  0.000000000E+00  0.00000E+00  9.000E+00
      25     1     1     2     0     0  3.854646172E+01  5.489975919E+01  3.573302337E+02  3.844602830E+02  1.250000000E+02  0.00000E+00  9.000E+00
      25     1     1     2     0     0  3.267461020E+01 -5.203499335E+00 -6.858990013E+00  1.294864947E+02  1.250000000E+02  0.00000E+00  9.000E+00
       1     1     1     2   501     0 -7.122107192E+01 -4.969625985E+01  2.032033510E+03  2.033888479E+03  0.000000000E+00  0.00000E+00  9.000E+00
#rwgt            1           1   4.2280856461507949E-002           9      407234           0
</event>
<event>
      5   9999  3.79277E-02  5.17332E+01 -1.00000E+00  1.38236E-01
      21    -1     0     0   502   501  0.000000000E+00  0.000000000E+00  6.773061086E+01  6.773061086E+01  0.000000000E+00  0.00000E+00  9.000E+00
      21    -1     0     0   511   502  0.000000000E+00  0.000000000E+00 -1.806167771E+03  1.806167771E+03  0.000000000E+00  0.00000E+00  9.000E+00
      25     1     1     2     0     0  1.800256618E+02 -9.408238664E+01 -2.419532029E+02  3.397456207E+02  1.250000000E+02  0.00000E+00  9.000E+00
      25     1     1     2     0     0 -1.545906249E+02  1.391310220E+02 -8.060209165E+02  8.417543706E+02  1.250000000E+02  0.00000E+00  9.000E+00
      21     1     1     2   511   501 -2.543503693E+01 -4.504863534E+01 -6.904630407E+02  6.923983905E+02  1.078959322E-05  0.00000E+00  9.000E+00
#rwgt            1           1   5.2081383207249934E-002           9      407336           0
</event>
<event>
      5   9999  3.79277E-02  1.72685E+01 -1.00000E+00  1.71809E-01
      21    -1     0     0   502   501  0.000000000E+00  0.000000000E+00  2.033525239E+02  2.033525239E+02  0.000000000E+00  0.00000E+00  9.000E+00
       2    -1     0     0   501     0  0.000000000E+00  0.000000000E+00 -3.200077126E+02  3.200077126E+02  0.000000000E+00  0.00000E+00  9.000E+00
      25     1     1     2     0     0 -4.404357883E+01  5.308845178E+01  1.365423516E+02  1.975526116E+02  1.250000000E+02  0.00000E+00  9.000E+00
      25     1     1     2     0     0  6.037466335E+01 -5.870078304E+01 -1.231887854E+02  1.946570285E+02  1.250000000E+02  0.00000E+00  9.000E+00
       2     1     1     2   502     0 -1.633108452E+01  5.612331263E+00 -1.300087549E+02  1.311505964E+02  1.907348633E-06  0.00000E+00  9.000E+00
#rwgt            1           1   3.0764201611191328E-002           9      407448           0
</event>
<event>
      5   9999 -3.79277E-02  2.36741E+01 -1.00000E+00  1.60544E-01
      21    -1     0     0   502   501  0.000000000E+00  0.000000000E+00  2.819191103E+02  2.819191103E+02  0.000000000E+00  0.00000E+00  9.000E+00
      21    -1     0     0   501   511  0.000000000E+00  0.000000000E+00 -1.814174533E+02  1.814174533E+02  0.000000000E+00  0.00000E+00  9.000E+00
      25     1     1     2     0     0 -1.318656843E+02 -2.773286037E+01  1.057797009E+02  2.120660636E+02  1.250000000E+02  0.00000E+00  9.000E+00
      25     1     1     2     0     0  1.486781707E+02  1.106547575E+01  4.141691649E+01  1.989170787E+02  1.250000000E+02  0.00000E+00  9.000E+00
      21     1     1     2   502   511 -1.681248648E+01  1.666738461E+01 -4.669496030E+01  5.235342137E+01  0.000000000E+00  0.00000E+00  9.000E+00
#rwgt            1           1  -9.3503714989672138E-002           9      407689           0
</event>
<event>
      5   9999 -3.79277E-02  7.92251E+01 -1.00000E+00  1.28554E-01
      21    -1     0     0   512   501  0.000000000E+00  0.000000000E+00  3.626968247E+02  3.626968247E+02  0.000000000E+00  0.00000E+00  9.000E+00
      21    -1     0     0   501   502  0.000000000E+00  0.000000000E+00 -2.638785962E+02  2.638785962E+02  0.000000000E+00  0.00000E+00  9.000E+00
      25     1     1     2     0     0 -1.819165956E+02  4.888650160E+01  8.505034756E+01  2.415410926E+02  1.250000000E+02  0.00000E+00  9.000E+00
      25     1     1     2     0     0  2.553472119E+02 -1.914487073E+01 -4.217393703E+01  2.880492418E+02  1.250000000E+02  0.00000E+00  9.000E+00
      21     1     1     2   512   502 -7.343061636E+01 -2.974163087E+01  5.594181790E+01  9.698508656E+01  6.743495762E-07  0.00000E+00  9.000E+00
#rwgt            1           1 -0.11489914251809269                9      407910           0
</event>
<event>
      5   9999  3.79277E-02  6.82405E+01 -1.00000E+00  1.31783E-01
      21    -1     0     0   502   501  0.000000000E+00  0.000000000E+00  1.398966916E+03  1.398966916E+03  0.000000000E+00  0.00000E+00  9.000E+00
      21    -1     0     0   511   502  0.000000000E+00  0.000000000E+00 -2.737110465E+02  2.737110465E+02  0.000000000E+00  0.00000E+00  9.000E+00
      25     1     1     2     0     0  3.890400571E+01 -1.909108593E+02  4.213804201E+02  4.807774291E+02  1.250000000E+02  0.00000E+00  9.000E+00
      25     1     1     2     0     0 -9.812215966E+01  1.569995880E+02  9.296116782E+02  9.560751545E+02  1.250000000E+02  0.00000E+00  9.000E+00
      21     1     1     2   511   501  5.921815395E+01  3.391127128E+01 -2.257362291E+02  2.358253787E+02  0.000000000E+00  0.00000E+00  9.000E+00
#rwgt            1           1   3.5401863631669334E-002           9      408023           0
</event>
<event>
      5   9999  3.79277E-02  1.61604E+01 -1.00000E+00  1.74388E-01
      21    -1     0     0   512   501  0.000000000E+00  0.000000000E+00  5.436403411E+02  5.436403411E+02  0.000000000E+00  0.00000E+00  9.000E+00
      21    -1     0     0   501   502  0.000000000E+00  0.000000000E+00 -1.364267341E+02  1.364267341E+02  0.000000000E+00  0.00000E+00  9.000E+00
      25     1     1     2     0     0 -1.922719088E+01 -4.110397701E+01  2.999409069E+02  3.280987190E+02  1.250000000E+02  0.00000E+00  9.000E+00
      25     1     1     2     0     0  2.141623849E+01  5.711541015E+01 -8.236242804E+01  1.616458935E+02  1.250000000E+02  0.00000E+00  9.000E+00
      21     1     1     2   512   502 -2.189047608E+00 -1.601143315E+01  1.896351282E+02  1.903224626E+02  0.000000000E+00  0.00000E+00  9.000E+00
#rwgt            1           1   4.3357824413726001E-002           9      408110           0
</event>
<event>
      5   9999  3.79277E-02  2.57045E+01 -1.00000E+00  1.57852E-01
      21    -1     0     0   502   501  0.000000000E+00  0.000000000E+00  1.218646409E+02  1.218646409E+02  0.000000000E+00  0.00000E+00  9.000E+00
      21    -1     0     0   501   511  0.000000000E+00  0.000000000E+00 -3.113844353E+02  3.113844353E+02  0.000000000E+00  0.00000E+00  9.000E+00
      25     1     1     2     0     0 -1.394166032E+02  5.529043708E+00 -5.987001186E+01  1.966646331E+02  1.250000000E+02  0.00000E+00  9.000E+00
      25     1     1     2     0     0  1.137319212E+02 -6.537455928E+00 -9.677676346E+01  1.948548952E+02  1.250000000E+02  0.00000E+00  9.000E+00
      21     1     1     2   502   511  2.568468204E+01  1.008412221E+00 -3.287301904E+01  4.172954789E+01  4.768371582E-07  0.00000E+00  9.000E+00
#rwgt            1           1   4.2320631851952728E-002           9      408347           0
</event>
<event>
      5   9999  3.79277E-02  3.30478E+01 -1.00000E+00  1.50177E-01
      21    -1     0     0   512   501  0.000000000E+00  0.000000000E+00  2.523774693E+02  2.523774693E+02  0.000000000E+00  0.00000E+00  9.000E+00
      21    -1     0     0   501   502  0.000000000E+00  0.000000000E+00 -3.378942177E+02  3.378942177E+02  0.000000000E+00  0.00000E+00  9.000E+00
      25     1     1     2     0     0 -1.369862830E+02 -2.154472860E+02 -3.010028981E+01  2.858562615E+02  1.250000000E+02  0.00000E+00  9.000E+00
      25     1     1     2     0     0  1.465411078E+02  1.838108269E+02 -5.079836962E+01  2.710464734E+02  1.250000000E+02  0.00000E+00  9.000E+00
      21     1     1     2   512   502 -9.554824821E+00  3.163645912E+01 -4.618088960E+00  3.336895217E+01  6.769786293E-07  0.00000E+00  9.000E+00
#rwgt            1           1   5.9052862835370111E-002           9      408680           0
</event>
<event>
      5   9999  3.79277E-02  6.56744E+01 -1.00000E+00  1.32639E-01
      21    -1     0     0   502   501  0.000000000E+00  0.000000000E+00  2.773568401E+03  2.773568401E+03  0.000000000E+00  0.00000E+00  9.000E+00
       4    -1     0     0   501     0  0.000000000E+00  0.000000000E+00 -1.210430036E+02  1.210430036E+02  0.000000000E+00  0.00000E+00  9.000E+00
      25     1     1     2     0     0  2.317781211E+02 -1.187240777E+02  6.470083880E+02  7.085628823E+02  1.250000000E+02  0.00000E+00  9.000E+00
      25     1     1     2     0     0 -1.877220203E+02  1.674291391E+02  2.072964996E+03  2.091908447E+03  1.250000000E+02  0.00000E+00  9.000E+00
       4     1     1     2   502     0 -4.405610075E+01 -4.870506142E+01 -6.744798654E+01  9.414007600E+01  2.132480600E-06  0.00000E+00  9.000E+00
#rwgt            1           1   6.7750773342720436E-002           9      408837           0
</event>
<event>
      5   9999  3.79277E-02  1.04627E+02 -1.00000E+00  1.22951E-01
      21    -1     0     0   502   501  0.000000000E+00  0.000000000E+00  1.687035306E+02  1.687035306E+02  0.000000000E+00  0.00000E+00  9.000E+00
       2    -1     0     0   501     0  0.000000000E+00  0.000000000E+00 -1.729539269E+03  1.729539269E+03  0.000000000E+00  0.00000E+00  9.000E+00
      25     1     1     2     0     0  2.105916153E+02 -1.649639865E+02 -1.158172695E+03  1.195220037E+03  1.250000000E+02  0.00000E+00  9.000E+00
      25     1     1     2     0     0 -2.633936158E+02  2.552896954E+02 -1.264082062E+02  4.076187680E+02  1.250000000E+02  0.00000E+00  9.000E+00
       2     1     1     2   502     0  5.280200048E+01 -9.032570895E+01 -2.762548365E+02  2.954039940E+02  3.814697266E-06  0.00000E+00  9.000E+00
#rwgt            2          13   3.0961286179417694E-004           9      409023           0
</event>
<event>
      5   9999  3.79277E-02  2.95177E+01 -1.00000E+00  1.53530E-01
      21    -1     0     0   502   511  0.000000000E+00  0.000000000E+00  3.868433553E+01  3.868433553E+01  0.000000000E+00  0.00000E+00  9.000E+00
      21    -1     0     0   501   502  0.000000000E+00  0.000000000E+00 -9.754977106E+02  9.754977106E+02  0.000000000E+00  0.00000E+00  9.000E+00
      25     1     1     2     0     0  1.094959115E+02 -5.602947388E+01 -4.123378609E+02  4.480805375E+02  1.250000000E+02  0.00000E+00  9.000E+00
      25     1     1     2     0     0 -1.180766251E+02  2.778653031E+01 -4.933953061E+02  5.232380995E+02  1.250000000E+02  0.00000E+00  9.000E+00
      21     1     1     2   501   511  8.580713658E+00  2.824294357E+01 -3.108020810E+01  4.286340915E+01  1.118282261E-06  0.00000E+00  9.000E+00
#rwgt            1           1   5.0544535568638950E-002           9      409057           0
</event>
<event>
      5   9999 -3.79277E-02  7.90318E+01 -1.00000E+00  1.28606E-01
      21    -1     0     0   512   501  0.000000000E+00  0.000000000E+00  5.161979209E+02  5.161979209E+02  0.000000000E+00  0.00000E+00  9.000E+00
      21    -1     0     0   501   502  0.000000000E+00  0.000000000E+00 -1.874675964E+02  1.874675964E+02  0.000000000E+00  0.00000E+00  9.000E+00
      25     1     1     2     0     0 -1.758615560E+02 -4.660895426E+01  1.350670600E+02  2.587813599E+02  1.250000000E+02  0.00000E+00  9.000E+00
      25     1     1     2     0     0  2.413377749E+02  9.086836539E+01  6.495053708E+01  2.938444379E+02  1.250000000E+02  0.00000E+00  9.000E+00
      21     1     1     2   512   502 -6.547621884E+01 -4.425941113E+01  1.287127274E+02  1.510397196E+02  2.697398305E-06  0.00000E+00  9.000E+00
#rwgt            1           1  -7.7510955569272538E-002           9      409115           0
</event>
<event>
      5   9999  3.79277E-02  1.31293E+01 -1.00000E+00  1.83013E-01
      21    -1     0     0   511   501  0.000000000E+00  0.000000000E+00  3.272389392E+02  3.272389392E+02  0.000000000E+00  0.00000E+00  9.000E+00
      21    -1     0     0   501   502  0.000000000E+00  0.000000000E+00 -8.979210545E+01  8.979210545E+01  0.000000000E+00  0.00000E+00  9.000E+00
      25     1     1     2     0     0 -8.880613759E+01  6.521182940E+01  1.424967313E+02  2.192474200E+02  1.250000000E+02  0.00000E+00  9.000E+00
      25     1     1     2     0     0  7.572522350E+01 -6.408600039E+01  8.230946880E+01  1.795582735E+02  1.250000000E+02  0.00000E+00  9.000E+00
      21     1     1     2   511   502  1.308091409E+01 -1.125829010E+00  1.264063367E+01  1.822535113E+01  2.920019320E-07  0.00000E+00  9.000E+00
#rwgt            1           1   2.6074978731145042E-002           9      409169           0
</event>
<event>
      5   9999  3.79277E-02  7.68427E+01 -1.00000E+00  1.29202E-01
      21    -1     0     0   502   512  0.000000000E+00  0.000000000E+00  6.875202421E+02  6.875202421E+02  0.000000000E+00  0.00000E+00  9.000E+00
      21    -1     0     0   501   502  0.000000000E+00  0.000000000E+00 -1.306773206E+02  1.306773206E+02  0.000000000E+00  0.00000E+00  9.000E+00
      25     1     1     2     0     0 -2.413185817E+01 -7.388316706E+01  2.307935777E+02  2.737366334E+02  1.250000000E+02  0.00000E+00  9.000E+00
      25     1     1     2     0     0  9.344604848E+01  4.071176307E+01 -4.346245385E+01  1.670436964E+02  1.250000000E+02  0.00000E+00  9.000E+00
      21     1     1     2   501   512 -6.931419030E+01  3.317140399E+01  3.695117977E+02  3.774172328E+02  5.394796609E-06  0.00000E+00  9.000E+00
#rwgt            1           1   3.9175578029590437E-002           9      409487           0
</event>
<event>
      5   9999  3.79277E-02  8.92169E+00 -1.00000E+00  2.01665E-01
      21    -1     0     0   502   501  0.000000000E+00  0.000000000E+00  7.462122731E+01  7.462122731E+01  0.000000000E+00  0.00000E+00  9.000E+00
       1    -1     0     0   501     0  0.000000000E+00  0.000000000E+00 -2.641394613E+03  2.641394613E+03  0.000000000E+00  0.00000E+00  9.000E+00
      25     1     1     2     0     0  1.184675528E+02  1.137106573E+02 -8.207997993E+02  8.463462560E+02  1.250000000E+02  0.00000E+00  9.000E+00
      25     1     1     2     0     0 -1.267220911E+02 -1.170958016E+02 -1.216944778E+02  2.453659737E+02  1.250000000E+02  0.00000E+00  9.000E+00
       1     1     1     2   502     0  8.254538234E+00  3.385144338E+00 -1.624279108E+03  1.624303610E+03  0.000000000E+00  0.00000E+00  9.000E+00
#rwgt            1           1   4.2674373332626428E-002           9      409559           0
</event>
<event>
      5   9999  3.79277E-02  7.96143E+00 -1.00000E+00  2.07945E-01
      21    -1     0     0   502   511  0.000000000E+00  0.000000000E+00  2.972758818E+02  2.972758818E+02  0.000000000E+00  0.00000E+00  9.000E+00
      21    -1     0     0   501   502  0.000000000E+00  0.000000000E+00 -9.101300462E+01  9.101300462E+01  0.000000000E+00  0.00000E+00  9.000E+00
      25     1     1     2     0     0  8.783677711E+01  1.461380874E+01  6.929387119E+01  1.683909243E+02  1.250000000E+02  0.00000E+00  9.000E+00
      25     1     1     2     0     0 -9.519236901E+01 -1.156755912E+01  1.109607024E+02  1.926983991E+02  1.250000000E+02  0.00000E+00  9.000E+00
      21     1     1     2   501   511  7.355591904E+00 -3.046249625E+00  2.600830367E+01  2.719956303E+01  3.371747881E-07  0.00000E+00  9.000E+00
#rwgt            1           1   2.6434926364251495E-002           9      409811           0
</event>
<event>
      5   9999  3.79277E-02  1.42254E+01 -1.00000E+00  1.79581E-01
      21    -1     0     0   502   501  0.000000000E+00  0.000000000E+00  1.477611681E+02  1.477611681E+02  0.000000000E+00  0.00000E+00  9.000E+00
       2    -1     0     0   501     0  0.000000000E+00  0.000000000E+00 -1.098056326E+03  1.098056326E+03  0.000000000E+00  0.00000E+00  9.000E+00
      25     1     1     2     0     0 -7.386080772E+00  6.916231735E+01  8.459580910E+01  1.661909481E+02  1.250000000E+02  0.00000E+00  9.000E+00
      25     1     1     2     0     0  9.404451825E+00 -8.324376852E+01 -2.314852078E+02  2.760948571E+02  1.250000000E+02  0.00000E+00  9.000E+00
       2     1     1     2   502     0 -2.018371053E+00  1.408145117E+01 -8.034057591E+02  8.035316887E+02  1.078959322E-05  0.00000E+00  9.000E+00
#rwgt            1           1   4.1540279128410178E-002           9      410035           0
</event>
<event>
      5   9999  3.79277E-02  4.30640E+01 -1.00000E+00  1.42880E-01
      21    -1     0     0   502   511  0.000000000E+00  0.000000000E+00  1.599894976E+02  1.599894976E+02  0.000000000E+00  0.00000E+00  9.000E+00
      21    -1     0     0   501   502  0.000000000E+00  0.000000000E+00 -1.009934196E+03  1.009934196E+03  0.000000000E+00  0.00000E+00  9.000E+00
      25     1     1     2     0     0 -1.121765868E+02 -1.467899817E+02 -6.388718531E+02  6.766927885E+02  1.250000000E+02  0.00000E+00  9.000E+00
      25     1     1     2     0     0  1.084349160E+02  1.038888710E+02 -3.206532202E+02  3.754923650E+02  1.250000000E+02  0.00000E+00  9.000E+00
      21     1     1     2   501   511  3.741670808E+00  4.290111067E+01  1.095803746E+02  1.177385404E+02  2.336015456E-06  0.00000E+00  9.000E+00
#rwgt            1           1   4.4453839311223084E-002           9      410298           0
</event>
<event>
      5   9999  3.79277E-02  1.66073E+02 -1.00000E+00  1.14668E-01
      21    -1     0     0   502   501  0.000000000E+00  0.000000000E+00  6.859408493E+02  6.859408493E+02  0.000000000E+00  0.00000E+00  9.000E+00
      21    -1     0     0   512   502  0.000000000E+00  0.000000000E+00 -1.775873412E+02  1.775873412E+02  0.000000000E+00  0.00000E+00  9.000E+00
      25     1     1     2     0     0 -1.075713138E+02 -4.168517554E+01  1.395816448E+02  2.200392624E+02  1.250000000E+02  0.00000E+00  9.000E+00
      25     1     1     2     0     0  1.524146791E+02  2.015891980E+02  3.843640830E+02  4.766856275E+02  1.250000000E+02  0.00000E+00  9.000E+00
      21     1     1     2   512   501 -4.484336526E+01 -1.599040224E+02 -1.559221974E+01  1.668033007E+02  2.443063442E-06  0.00000E+00  9.000E+00
#rwgt            1           1   3.5589377281801608E-002           9      410415           0
</event>
<event>
      5   9999  3.79277E-02  5.38753E+01 -1.00000E+00  1.37251E-01
       1    -1     0     0   502     0  0.000000000E+00  0.000000000E+00  6.244461020E+02  6.244461020E+02  0.000000000E+00  0.00000E+00  9.000E+00
      21    -1     0     0   501   502  0.000000000E+00  0.000000000E+00 -2.781898228E+02  2.781898228E+02  0.000000000E+00  0.00000E+00  9.000E+00
      25     1     1     2     0     0 -4.585838405E+01 -2.193759695E+02 -8.275280345E+01  2.696327760E+02  1.250000000E+02  0.00000E+00  9.000E+00
      25     1     1     2     0     0  9.973191708E+01  2.198085140E+02  8.500171929E+01  2.848026166E+02  1.250000000E+02  0.00000E+00  9.000E+00
       1     1     1     2   501     0 -5.387353303E+01 -4.325444798E-01  3.440073634E+02  3.482005323E+02  3.814697266E-06  0.00000E+00  9.000E+00
#rwgt            1           1   3.7212921422192125E-002           9      410565           0
</event>
<event>
      5   9999  3.79277E-02  5.68237E+01 -1.00000E+00  1.35978E-01
       1    -1     0     0   502     0  0.000000000E+00  0.000000000E+00  1.406060985E+03  1.406060985E+03  0.000000000E+00  0.00000E+00  9.000E+00
      21    -1     0     0   501   502  0.000000000E+00  0.000000000E+00 -6.803582041E+01  6.803582041E+01  0.000000000E+00  0.00000E+00  9.000E+00
      25     1     1     2     0     0 -1.253943337E+02  5.291816098E+01  1.014917899E+02  2.108308661E+02  1.250000000E+02  0.00000E+00  9.000E+00
      25     1     1     2     0     0  1.059786171E+02  4.855773117E-01  5.375271147E+02  5.619538256E+02  1.250000000E+02  0.00000E+00  9.000E+00
       1     1     1     2   501     0  1.941571655E+01 -5.340373830E+01  6.990062596E+02  7.013121133E+02  0.000000000E+00  0.00000E+00  9.000E+00
#rwgt            1           1   3.3985978156851622E-002           9      410642           0
</event>
<event>
      5   9999  3.79277E-02  3.96305E+01 -1.00000E+00  1.45091E-01
      21    -1     0     0   511   501  0.000000000E+00  0.000000000E+00  3.396995421E+02  3.396995421E+02  0.000000000E+00  0.00000E+00  9.000E+00
      21    -1     0     0   501   502  0.000000000E+00  0.000000000E+00 -4.757149076E+02  4.757149076E+02  0.000000000E+00  0.00000E+00  9.000E+00
      25     1     1     2     0     0  4.410303653E+01 -2.120851554E+01 -4.341653828E+02  4.544441204E+02  1.250000000E+02  0.00000E+00  9.000E+00
      25     1     1     2     0     0 -7.926933700E+01  2.935326684E+00  2.813558569E+02  3.179282343E+02  1.250000000E+02  0.00000E+00  9.000E+00
      21     1     1     2   511   502  3.516630047E+01  1.827318886E+01  1.679416046E+01  4.304209504E+01  4.768371582E-07  0.00000E+00  9.000E+00
#rwgt            1           1   3.2024272144216825E-002           9      410772           0
</event>
<event>
      5   9999  3.79277E-02  2.93494E+01 -1.00000E+00  1.53704E-01
      21    -1     0     0   512   501  0.000000000E+00  0.000000000E+00  2.794746827E+02  2.794746827E+02  0.000000000E+00  0.00000E+00  9.000E+00
      21    -1     0     0   501   502  0.000000000E+00  0.000000000E+00 -3.486634123E+02  3.486634123E+02  0.000000000E+00  0.00000E+00  9.000E+00
      25     1     1     2     0     0 -9.409248527E+00  8.153702145E+00  5.862666759E+01  1.386257659E+02  1.250000000E+02  0.00000E+00  9.000E+00
      25     1     1     2     0     0  5.859418769E+00  2.098027269E+01 -2.942860246E+02  3.204742874E+02  1.250000000E+02  0.00000E+00  9.000E+00
      21     1     1     2   512   502  3.549829758E+00 -2.913397484E+01  1.664706273E+02  1.690380417E+02  1.907348633E-06  0.00000E+00  9.000E+00
#rwgt            1           1   8.5376675440604222E-003           9      411195           0
</event>
<event>
      5   9999  3.79277E-02  1.10939E+01 -1.00000E+00  1.90686E-01
      21    -1     0     0   502   501  0.000000000E+00  0.000000000E+00  5.372165089E+02  5.372165089E+02  0.000000000E+00  0.00000E+00  9.000E+00
      21    -1     0     0   511   502  0.000000000E+00  0.000000000E+00 -9.893233945E+01  9.893233945E+01  0.000000000E+00  0.00000E+00  9.000E+00
      25     1     1     2     0     0  4.548433421E+01  1.442278265E+02  6.163562709E+01  2.056561234E+02  1.250000000E+02  0.00000E+00  9.000E+00
      25     1     1     2     0     0 -4.621028165E+01 -1.331576745E+02  3.744675027E+02  4.191864347E+02  1.250000000E+02  0.00000E+00  9.000E+00
      21     1     1     2   511   501  7.259474403E-01 -1.107015200E+01  2.181039585E+00  1.130629022E+01  7.884953353E-08  0.00000E+00  9.000E+00
#rwgt            1           1   3.9120317182934322E-002           9      411436           0
</event>
<event>
      5   9999  3.79277E-02  4.67540E+01 -1.00000E+00  1.40759E-01
      21    -1     0     0   512   501  0.000000000E+00  0.000000000E+00  9.362003299E+01  9.362003299E+01  0.000000000E+00  0.00000E+00  9.000E+00
      21    -1     0     0   501   502  0.000000000E+00  0.000000000E+00 -1.905360533E+03  1.905360533E+03  0.000000000E+00  0.00000E+00  9.000E+00
      25     1     1     2     0     0  3.275303221E+02  1.246026601E+02 -1.014288781E+03  1.080374318E+03  1.250000000E+02  0.00000E+00  9.000E+00
      25     1     1     2     0     0 -3.534587937E+02 -1.635083495E+02 -7.236429556E+02  8.312353616E+02  1.250000000E+02  0.00000E+00  9.000E+00
      21     1     1     2   512   502  2.592847162E+01  3.890568932E+01 -7.380876298E+01  8.737088643E+01  1.348699152E-06  0.00000E+00  9.000E+00
#rwgt            1           1   4.7107621536515647E-002           9      411696           0
</event>
<event>
      5   9999  3.79277E-02  7.88481E+01 -1.00000E+00  1.28655E-01
       1    -1     0     0   502     0  0.000000000E+00  0.000000000E+00  2.117238009E+03  2.117238009E+03  0.000000000E+00  0.00000E+00  9.000E+00
      21    -1     0     0   501   502  0.000000000E+00  0.000000000E+00 -1.906237434E+02  1.906237434E+02  0.000000000E+00  0.00000E+00  9.000E+00
      25     1     1     2     0     0 -2.818680626E+02 -8.978941991E+01  2.166925287E+02  3.874175998E+02  1.250000000E+02  0.00000E+00  9.000E+00
      25     1     1     2     0     0  2.422849929E+02  2.159702772E+01  7.494454349E+01  2.835668069E+02  1.250000000E+02  0.00000E+00  9.000E+00
       1     1     1     2   501     0  3.958306972E+01  6.819239218E+01  1.634977194E+03  1.636877346E+03  2.157918644E-05  0.00000E+00  9.000E+00
#rwgt            1           1   2.7564440238687225E-002           9      411922           0
</event>
<event>
      5   9999  3.79277E-02  5.31045E+01 -1.00000E+00  1.37599E-01
      21    -1     0     0   502   501  0.000000000E+00  0.000000000E+00  6.849264632E+01  6.849264632E+01  0.000000000E+00  0.00000E+00  9.000E+00
      21    -1     0     0   501   511  0.000000000E+00  0.000000000E+00 -1.242081763E+03  1.242081763E+03  0.000000000E+00  0.00000E+00  9.000E+00
      25     1     1     2     0     0  1.266843051E+02 -1.258060206E+02 -1.759209130E+02  2.800879069E+02  1.250000000E+02  0.00000E+00  9.000E+00
      25     1     1     2     0     0 -7.376788658E+01  1.302709424E+02 -6.449649666E+02  6.738078566E+02  1.250000000E+02  0.00000E+00  9.000E+00
      21     1     1     2   502   511 -5.291641853E+01 -4.464921846E+00 -3.527032374E+02  3.566786460E+02  3.814697266E-06  0.00000E+00  9.000E+00
#rwgt            1           1   4.6697891340158726E-002           9      412021           0
</event>
<event>
      5   9999  3.79277E-02  1.85529E+01 -1.00000E+00  1.69106E-01
      21    -1     0     0   512   501  0.000000000E+00  0.000000000E+00  2.680148387E+02  2.680148387E+02  0.000000000E+00  0.00000E+00  9.000E+00
      21    -1     0     0   501   502  0.000000000E+00  0.000000000E+00 -3.654761520E+02  3.654761520E+02  0.000000000E+00  0.00000E+00  9.000E+00
      25     1     1     2     0     0 -1.009027440E+02  1.849752719E+02  1.570045883E+01  2.454968826E+02  1.250000000E+02  0.00000E+00  9.000E+00
      25     1     1     2     0     0  8.266775815E+01 -1.883949309E+02 -1.914241621E+02  3.075627059E+02  1.250000000E+02  0.00000E+00  9.000E+00
      21     1     1     2   512   502  1.823498589E+01  3.419659065E+00  7.826238993E+01  8.043140217E+01  0.000000000E+00  0.00000E+00  9.000E+00
#rwgt            1           1   3.6389875603206209E-002           9      412217           0
</event>
<event>
      5   9999  3.79277E-02  1.40556E+01 -1.00000E+00  1.80086E-01
      21    -1     0     0   502   501  0.000000000E+00  0.000000000E+00  1.360772379E+02  1.360772379E+02  0.000000000E+00  0.00000E+00  9.000E+00
      21    -1     0     0   501   511  0.000000000E+00  0.000000000E+00 -6.292760886E+02  6.292760886E+02  0.000000000E+00  0.00000E+00  9.000E+00
      25     1     1     2     0     0 -4.619629274E+01 -1.333663757E+02  2.129725348E+01  1.897347112E+02  1.250000000E+02  0.00000E+00  9.000E+00
      25     1     1     2     0     0  3.566160789E+01  1.240615853E+02 -2.352776670E+02  2.960466312E+02  1.250000000E+02  0.00000E+00  9.000E+00
      21     1     1     2   502   511  1.053468485E+01  9.304790368E+00 -2.792184371E+02  2.795719842E+02  0.000000000E+00  0.00000E+00  9.000E+00
#rwgt            1           1   3.7249515061431197E-002           9      412677           0
</event>
<event>
      5   9999  3.79277E-02  4.88204E+01 -1.00000E+00  1.39670E-01
      21    -1     0     0   512   501  0.000000000E+00  0.000000000E+00  2.366526642E+02  2.366526642E+02  0.000000000E+00  0.00000E+00  9.000E+00
      21    -1     0     0   501   502  0.000000000E+00  0.000000000E+00 -4.043390637E+02  4.043390637E+02  0.000000000E+00  0.00000E+00  9.000E+00
      25     1     1     2     0     0 -8.489970631E+00 -2.297446596E+02 -1.014471779E+02  2.806621067E+02  1.250000000E+02  0.00000E+00  9.000E+00
      25     1     1     2     0     0  5.191348113E+00  2.784534799E+02 -6.005989390E+01  3.111197220E+02  1.250000000E+02  0.00000E+00  9.000E+00
      21     1     1     2   512   502  3.298622518E+00 -4.870882032E+01 -6.179327761E+00  4.920989920E+01  7.251217997E-07  0.00000E+00  9.000E+00
#rwgt            1           1   3.6913870157229946E-002           9      413074           0
</event>
<event>
      5   9999  3.79277E-02  1.79007E+01 -1.00000E+00  1.70443E-01
      21    -1     0     0   511   501  0.000000000E+00  0.000000000E+00  3.518450459E+02  3.518450459E+02  0.000000000E+00  0.00000E+00  9.000E+00
      21    -1     0     0   501   502  0.000000000E+00  0.000000000E+00 -1.394088040E+02  1.394088040E+02  0.000000000E+00  0.00000E+00  9.000E+00
      25     1     1     2     0     0 -6.387030311E+01 -1.576790184E+02  4.308174570E+01  2.154602638E+02  1.250000000E+02  0.00000E+00  9.000E+00
      25     1     1     2     0     0  4.888639482E+01  1.478852610E+02  1.536150099E+02  2.519573402E+02  1.250000000E+02  0.00000E+00  9.000E+00
      21     1     1     2   511   502  1.498390829E+01  9.793757398E+00  1.573948632E+01  2.383624595E+01  4.129530925E-07  0.00000E+00  9.000E+00
#rwgt            1           1   3.9491946783718410E-002           9      413219           0
</event>
<event>
      5   9999  3.79277E-02  2.29276E+01 -1.00000E+00  1.61618E-01
      21    -1     0     0   502   501  0.000000000E+00  0.000000000E+00  1.948504842E+02  1.948504842E+02  0.000000000E+00  0.00000E+00  9.000E+00
      21    -1     0     0   501   512  0.000000000E+00  0.000000000E+00 -3.929002956E+02  3.929002956E+02  0.000000000E+00  0.00000E+00  9.000E+00
      25     1     1     2     0     0 -2.133275399E+02 -3.046883638E+01 -1.996757877E+01  2.499213746E+02  1.250000000E+02  0.00000E+00  9.000E+00
      25     1     1     2     0     0  1.923312013E+02  2.125868564E+01 -9.084710640E+01  2.476316205E+02  1.250000000E+02  0.00000E+00  9.000E+00
      21     1     1     2   502   512  2.099633860E+01  9.210150742E+00 -8.723512626E+01  9.019778470E+01  0.000000000E+00  0.00000E+00  9.000E+00
#rwgt            1           1   3.1962669723127925E-002           9      413486           0
</event>
<event>
      5   9999  3.79277E-02  1.18226E+02 -1.00000E+00  1.20643E-01
      21    -1     0     0   502   511  0.000000000E+00  0.000000000E+00  1.780767035E+02  1.780767035E+02  0.000000000E+00  0.00000E+00  9.000E+00
      21    -1     0     0   501   502  0.000000000E+00  0.000000000E+00 -1.253027066E+03  1.253027066E+03  0.000000000E+00  0.00000E+00  9.000E+00
      25     1     1     2     0     0 -1.222191930E+02  1.956341213E+02 -9.306757895E+02  9.669501878E+02  1.250000000E+02  0.00000E+00  9.000E+00
      25     1     1     2     0     0  1.099331348E+02 -7.804838826E+01 -2.467390995E+02  3.077044495E+02  1.250000000E+02  0.00000E+00  9.000E+00
      21     1     1     2   501   511  1.228605818E+01 -1.175857331E+02  1.024645263E+02  1.564491323E+02  2.336015456E-06  0.00000E+00  9.000E+00
#rwgt            1           1   4.3459167161928124E-002           9      413759           0
</event>
<event>
      5   9999  3.79277E-02  4.30794E+01 -1.00000E+00  1.42870E-01
      21    -1     0     0   502   501  0.000000000E+00  0.000000000E+00  7.850728313E+02  7.850728313E+02  0.000000000E+00  0.00000E+00  9.000E+00
      21    -1     0     0   512   502  0.000000000E+00  0.000000000E+00 -8.981204445E+01  8.981204445E+01  0.000000000E+00  0.00000E+00  9.000E+00
      25     1     1     2     0     0 -2.023810942E+01 -1.287218284E+02  1.114545141E+02  2.121933055E+02  1.250000000E+02  0.00000E+00  9.000E+00
      25     1     1     2     0     0  5.717684966E+00  1.692803184E+02  5.827430650E+02  6.195990622E+02  1.250000000E+02  0.00000E+00  9.000E+00
      21     1     1     2   512   501  1.452042445E+01 -4.055848997E+01  1.063207714E+00  4.309250800E+01  1.359603375E-06  0.00000E+00  9.000E+00
#rwgt            1           1   2.7735693135540602E-002           9      413947           0
</event>
<event>
      5   9999  3.79277E-02  5.05107E+01 -1.00000E+00  1.38824E-01
      21    -1     0     0   502   511  0.000000000E+00  0.000000000E+00  3.660127827E+02  3.660127827E+02  0.000000000E+00  0.00000E+00  9.000E+00
      21    -1     0     0   501   502  0.000000000E+00  0.000000000E+00 -2.154125741E+02  2.154125741E+02  0.000000000E+00  0.00000E+00  9.000E+00
      25     1     1     2     0     0 -6.104266283E+01  1.721249026E+02  1.444955420E+02  2.643050329E+02  1.250000000E+02  0.00000E+00  9.000E+00
      25     1     1     2     0     0  5.365343445E+01 -1.221576335E+02 -9.356740060E+01  2.053802252E+02  1.250000000E+02  0.00000E+00  9.000E+00
      21     1     1     2   501   511  7.389228372E+00 -4.996726907E+01  9.967206727E+01  1.117400988E+02  1.348699152E-06  0.00000E+00  9.000E+00
#rwgt            1           1   3.5963434806256273E-002           9      414143           0
</event>
<event>
      5   9999  3.79277E-02  1.62412E+01 -1.00000E+00  1.74191E-01
      -2    -1     0     0     0   501  0.000000000E+00  0.000000000E+00  1.740468599E+03  1.740468599E+03  0.000000000E+00  0.00000E+00  9.000E+00
      21    -1     0     0   501   502  0.000000000E+00  0.000000000E+00 -1.903980424E+02  1.903980424E+02  0.000000000E+00  0.00000E+00  9.000E+00
      25     1     1     2     0     0 -1.957889778E+02  1.063568920E+02 -2.996851964E+01  2.572318497E+02  1.250000000E+02  0.00000E+00  9.000E+00
      25     1     1     2     0     0  1.809555319E+02 -9.974275947E+01  2.651313378E+02  3.586267542E+02  1.250000000E+02  0.00000E+00  9.000E+00
      -2     1     1     2     0   502  1.483344596E+01 -6.614132557E+00  1.314907739E+03  1.315008038E+03  2.157918644E-05  0.00000E+00  9.000E+00
#rwgt            1           1   3.4429077817980824E-002           9      414362           0
</event>
<event>
      5   9999  3.79277E-02  8.90042E+01 -1.00000E+00  1.26147E-01
      21    -1     0     0   511   501  0.000000000E+00  0.000000000E+00  7.812916780E+02  7.812916780E+02  0.000000000E+00  0.00000E+00  9.000E+00
      21    -1     0     0   501   502  0.000000000E+00  0.000000000E+00 -1.341149794E+02  1.341149794E+02  0.000000000E+00  0.00000E+00  9.000E+00
      25     1     1     2     0     0 -1.571061559E+02  1.303766129E+01 -5.259349387E-01  2.011904606E+02  1.250000000E+02  0.00000E+00  9.000E+00
      25     1     1     2     0     0  6.810591054E+01 -1.387313323E+01  1.449023067E+02  2.035990112E+02  1.250000000E+02  0.00000E+00  9.000E+00
      21     1     1     2   511   502  8.900024531E+01  8.354719436E-01  5.028003268E+02  5.106171857E+02  5.394796609E-06  0.00000E+00  9.000E+00
#rwgt            1           1   3.6395191748650468E-002           9      414703           0
</event>
<event>
      5   9999  3.79277E-02  1.12752E+01 -1.00000E+00  1.89919E-01
      21    -1     0     0   502   501  0.000000000E+00  0.000000000E+00  3.806664791E+01  3.806664791E+01  0.000000000E+00  0.00000E+00  9.000E+00
      21    -1     0     0   512   502  0.000000000E+00  0.000000000E+00 -1.147170034E+03  1.147170034E+03  0.000000000E+00  0.00000E+00  9.000E+00
      25     1     1     2     0     0 -7.882196599E+01  1.289476997E+02 -3.877555585E+02  4.345339857E+02  1.250000000E+02  0.00000E+00  9.000E+00
      25     1     1     2     0     0  8.220370420E+01 -1.181915932E+02 -6.180193916E+02  6.467609064E+02  1.250000000E+02  0.00000E+00  9.000E+00
      21     1     1     2   512   501 -3.381738211E+00 -1.075610647E+01 -1.033284364E+02  1.039417902E+02  1.907348633E-06  0.00000E+00  9.000E+00
#rwgt            1           1   3.5604960437471404E-002           9      414759           0
</event>
<event>
      5   9999  3.79277E-02  1.34318E+01 -1.00000E+00  1.82024E-01
      21    -1     0     0   502   501  0.000000000E+00  0.000000000E+00  2.461196046E+02  2.461196046E+02  0.000000000E+00  0.00000E+00  9.000E+00
      21    -1     0     0   501   511  0.000000000E+00  0.000000000E+00 -4.095967850E+02  4.095967850E+02  0.000000000E+00  0.00000E+00  9.000E+00
      25     1     1     2     0     0 -3.654724002E+01  2.492038541E+02  6.082331948E+01  2.876851367E+02  1.250000000E+02  0.00000E+00  9.000E+00
      25     1     1     2     0     0  4.886770390E+01 -2.438542022E+02 -2.141652064E+02  3.512045843E+02  1.250000000E+02  0.00000E+00  9.000E+00
      21     1     1     2   502   511 -1.232046388E+01 -5.349651912E+00 -1.013529345E+01  1.682666868E+01  2.384185791E-07  0.00000E+00  9.000E+00
#rwgt            1           1   3.7114535738571930E-002           9      415119           0
</event>
<event>
      5   9999  3.79277E-02  8.25746E+01 -1.00000E+00  1.27687E-01
      21    -1     0     0   502   501  0.000000000E+00  0.000000000E+00  1.550650514E+02  1.550650514E+02  0.000000000E+00  0.00000E+00  9.000E+00
      21    -1     0     0   512   502  0.000000000E+00  0.000000000E+00 -8.718664194E+02  8.718664194E+02  0.000000000E+00  0.00000E+00  9.000E+00
      25     1     1     2     0     0  6.116852453E+01  1.365027135E+02  1.361819273E+01  1.954099136E+02  1.250000000E+02  0.00000E+00  9.000E+00
      25     1     1     2     0     0 -4.440424212E-01 -1.924589745E+02 -2.320704504E+02  3.263776157E+02  1.250000000E+02  0.00000E+00  9.000E+00
      21     1     1     2   512   501 -6.072448211E+01  5.595626108E+01 -4.983491103E+02  5.051439414E+02  0.000000000E+00  0.00000E+00  9.000E+00
#rwgt            1           1   2.5526175216864459E-002           9      415395           0
</event>
<event>
      5   9999  3.79277E-02  2.67558E+02 -1.00000E+00  1.07233E-01
      21    -1     0     0   511   501  0.000000000E+00  0.000000000E+00  1.299765649E+02  1.299765649E+02  0.000000000E+00  0.00000E+00  9.000E+00
      21    -1     0     0   501   502  0.000000000E+00  0.000000000E+00 -3.163612787E+03  3.163612787E+03  0.000000000E+00  0.00000E+00  9.000E+00
      25     1     1     2     0     0  1.794289981E+02  5.512901854E+01 -6.578352676E+02  6.954180134E+02  1.250000000E+02  0.00000E+00  9.000E+00
      25     1     1     2     0     0 -6.758038471E+01  1.879289432E+02 -2.310867200E+03  2.322846662E+03  1.250000000E+02  0.00000E+00  9.000E+00
      21     1     1     2   511   502 -1.118486134E+02 -2.430579617E+02 -6.493375386E+01  2.753246764E+02  4.768371582E-06  0.00000E+00  9.000E+00
#rwgt            1           1   5.0567293100889345E-002           9      415532           0
</event>
<event>
      5   9999  3.79277E-02  4.94522E+01 -1.00000E+00  1.39349E-01
       1    -1     0     0   502     0  0.000000000E+00  0.000000000E+00  1.989852658E+02  1.989852658E+02  0.000000000E+00  0.00000E+00  9.000E+00
      21    -1     0     0   501   502  0.000000000E+00  0.000000000E+00 -4.279005423E+02  4.279005423E+02  0.000000000E+00  0.00000E+00  9.000E+00
      25     1     1     2     0     0  6.848846656E+01  1.126058533E+02 -2.078400538E+02  2.760312233E+02  1.250000000E+02  0.00000E+00  9.000E+00
      25     1     1     2     0     0 -1.903963482E+01 -1.131810074E+02 -1.413208848E+02  2.208371360E+02  1.250000000E+02  0.00000E+00  9.000E+00
       1     1     1     2   501     0 -4.944883173E+01  5.751540646E-01  1.202456621E+02  1.300174488E+02  0.000000000E+00  0.00000E+00  9.000E+00
#rwgt            1           1   3.4672884503449984E-002           9      415772           0
</event>
<event>
      5   9999  3.79277E-02  6.76946E+01 -1.00000E+00  1.31962E-01
      21    -1     0     0   502   501  0.000000000E+00  0.000000000E+00  1.667678026E+02  1.667678026E+02  0.000000000E+00  0.00000E+00  9.000E+00
      21    -1     0     0   501   511  0.000000000E+00  0.000000000E+00 -1.566932447E+03  1.566932447E+03  0.000000000E+00  0.00000E+00  9.000E+00
      25     1     1     2     0     0  2.581768620E+02 -9.698112909E+01 -2.827196407E+01  3.041133595E+02  1.250000000E+02  0.00000E+00  9.000E+00
      25     1     1     2     0     0 -2.575909293E+02  1.646731727E+02 -1.052948410E+03  1.103537808E+03  1.250000000E+02  0.00000E+00  9.000E+00
      21     1     1     2   502   511 -5.859327089E-01 -6.769204359E+01 -3.189442706E+02  3.260490820E+02  5.394796609E-06  0.00000E+00  9.000E+00
#rwgt            1           1   8.5705463228254203E-002           9      415877           0
</event>
<event>
      5   9999  3.79277E-02  1.84500E+01 -1.00000E+00  1.69313E-01
      21    -1     0     0   502   501  0.000000000E+00  0.000000000E+00  5.200711004E+02  5.200711004E+02  0.000000000E+00  0.00000E+00  9.000E+00
      21    -1     0     0   501   512  0.000000000E+00  0.000000000E+00 -2.486893381E+02  2.486893381E+02  0.000000000E+00  0.00000E+00  9.000E+00
      25     1     1     2     0     0 -4.632165529E+01  9.055762562E+01  4.688174415E+02  4.957430512E+02  1.250000000E+02  0.00000E+00  9.000E+00
      25     1     1     2     0     0  3.960180511E+01 -1.077403445E+02 -1.830919579E+02  2.496476514E+02  1.250000000E+02  0.00000E+00  9.000E+00
      21     1     1     2   502   512  6.719850173E+00  1.718271889E+01 -1.434372135E+01  2.336973592E+01  4.768371582E-07  0.00000E+00  9.000E+00
#rwgt            1           1   3.0747345922811142E-002           9      415995           0
</event>
<event>
      5   9999  3.79277E-02  1.43592E+01 -1.00000E+00  1.79189E-01
      21    -1     0     0   502   501  0.000000000E+00  0.000000000E+00  2.573505669E+02  2.573505669E+02  0.000000000E+00  0.00000E+00  9.000E+00
      21    -1     0     0   501   511  0.000000000E+00  0.000000000E+00 -3.442767098E+02  3.442767098E+02  0.000000000E+00  0.00000E+00  9.000E+00
      25     1     1     2     0     0 -1.187373201E+02  8.985207509E+01  6.586524444E+01  2.052685485E+02  1.250000000E+02  0.00000E+00  9.000E+00
      25     1     1     2     0     0  1.043819453E+02 -8.951938652E+01  5.048994035E+01  1.925708834E+02  1.250000000E+02  0.00000E+00  9.000E+00
      21     1     1     2   502   511  1.435537474E+01 -3.326885641E-01 -2.032813277E+02  2.037878447E+02  4.672030912E-06  0.00000E+00  9.000E+00
#rwgt            1           1  0.11822125384051858                9      416242           0
</event>
<event>
      5   9999  3.79277E-02  3.95300E+01 -1.00000E+00  1.45159E-01
      21    -1     0     0   502   501  0.000000000E+00  0.000000000E+00  6.737667284E+02  6.737667284E+02  0.000000000E+00  0.00000E+00  9.000E+00
      21    -1     0     0   512   502  0.000000000E+00  0.000000000E+00 -5.277629940E+02  5.277629940E+02  0.000000000E+00  0.00000E+00  9.000E+00
      25     1     1     2     0     0 -9.585973953E+01 -1.211112029E+02  2.289190107E+02  3.031269150E+02  1.250000000E+02  0.00000E+00  9.000E+00
      25     1     1     2     0     0  7.168586648E+01  1.523880605E+02  3.798761932E+02  4.339261534E+02  1.250000000E+02  0.00000E+00  9.000E+00
      21     1     1     2   512   501  2.417387305E+01 -3.127685762E+01 -4.627914695E+02  4.644766541E+02  0.000000000E+00  0.00000E+00  9.000E+00
#rwgt            1           1   3.8624185837171088E-002           9      416429           0
</event>
<event>
      5   9999  3.79277E-02  1.04336E+01 -1.00000E+00  1.93650E-01
      21    -1     0     0   502   501  0.000000000E+00  0.000000000E+00  1.307377718E+02  1.307377718E+02  0.000000000E+00  0.00000E+00  9.000E+00
      21    -1     0     0   511   502  0.000000000E+00  0.000000000E+00 -6.244322087E+02  6.244322087E+02  0.000000000E+00  0.00000E+00  9.000E+00
      25     1     1     2     0     0  3.157157329E+01 -1.917144778E+02 -2.303022388E+02  3.262136209E+02  1.250000000E+02  0.00000E+00  9.000E+00
      25     1     1     2     0     0 -2.113907741E+01  1.918661827E+02 -7.735656807E+01  2.426283810E+02  1.250000000E+02  0.00000E+00  9.000E+00
      21     1     1     2   511   501 -1.043249589E+01 -1.517049176E-01 -1.860356300E+02  1.863279786E+02  3.814697266E-06  0.00000E+00  9.000E+00
#rwgt            1           1   3.7378736173840153E-002           9      416570           0
</event>
<event>
      5   9999  3.79277E-02  7.58125E+01 -1.00000E+00  1.29490E-01
       4    -1     0     0   502     0  0.000000000E+00  0.000000000E+00  1.779592818E+03  1.779592818E+03  0.000000000E+00  0.00000E+00  9.000E+00
      21    -1     0     0   501   502  0.000000000E+00  0.000000000E+00 -9.109434531E+01  9.109434531E+01  0.000000000E+00  0.00000E+00  9.000E+00
      25     1     1     2     0     0  4.283816491E+01  9.499121762E+01  2.955426518E+02  3.373853862E+02  1.250000000E+02  0.00000E+00  9.000E+00
      25     1     1     2     0     0  1.295545563E+00 -1.566333788E+02  7.625316060E+01  2.144183721E+02  1.250000000E+02  0.00000E+00  9.000E+00
       4     1     1     2   501     0 -4.413371047E+01  6.164216114E+01  1.316702660E+03  1.318883405E+03  2.157918644E-05  0.00000E+00  9.000E+00
#rwgt            2          20   9.0056189777054331E-006           9      416868           0
</event>
<event>
      5   9999  3.79277E-02  1.04325E+01 -1.00000E+00  1.93655E-01
      21    -1     0     0   511   501  0.000000000E+00  0.000000000E+00  4.149093033E+02  4.149093033E+02  0.000000000E+00  0.00000E+00  9.000E+00
      21    -1     0     0   501   502  0.000000000E+00  0.000000000E+00 -8.732572806E+01  8.732572806E+01  0.000000000E+00  0.00000E+00  9.000E+00
      25     1     1     2     0     0  1.488626653E+01 -6.904464218E+01  2.289496444E+00  1.435931939E+02  1.250000000E+02  0.00000E+00  9.000E+00
      25     1     1     2     0     0 -7.938315155E+00  6.126248198E+01  3.120370927E+02  3.417722279E+02  1.250000000E+02  0.00000E+00  9.000E+00
      21     1     1     2   511   502 -6.947951376E+00  7.782160204E+00  1.325698606E+01  1.686960951E+01  3.769728732E-07  0.00000E+00  9.000E+00
#rwgt            1           1   5.7092948338509003E-002           9      416977           0
</event>
<event>
      5   9999  3.79277E-02  6.38766E+01 -1.00000E+00  1.33266E-01
      21    -1     0     0   502   501  0.000000000E+00  0.000000000E+00  1.098343460E+03  1.098343460E+03  0.000000000E+00  0.00000E+00  9.000E+00
      21    -1     0     0   512   502  0.000000000E+00  0.000000000E+00 -5.089309373E+01  5.089309373E+01  0.000000000E+00  0.00000E+00  9.000E+00
      25     1     1     2     0     0  1.451008328E+02  7.728751024E+01  5.897318892E+02  6.248490314E+02  1.250000000E+02  0.00000E+00  9.000E+00
      25     1     1     2     0     0 -1.451243379E+02 -1.341091736E+01  3.441811366E+02  3.941149337E+02  1.250000000E+02  0.00000E+00  9.000E+00
      21     1     1     2   512   501  2.350507294E-02 -6.387659288E+01  1.135373406E+02  1.302725887E+02  2.336015456E-06  0.00000E+00  9.000E+00
#rwgt            1           1   3.2469355811717809E-002           9      417241           0
</event>
<event>
      5   9999  3.79277E-02  2.56426E+01 -1.00000E+00  1.57930E-01
      21    -1     0     0   511   501  0.000000000E+00  0.000000000E+00  3.636151064E+01  3.636151064E+01  0.000000000E+00  0.00000E+00  9.000E+00
      21    -1     0     0   501   502  0.000000000E+00  0.000000000E+00 -1.907639344E+03  1.907639344E+03  0.000000000E+00  0.00000E+00  9.000E+00
      25     1     1     2     0     0  1.054589723E+02 -1.156617166E+02 -5.394087127E+02  5.754007185E+02  1.250000000E+02  0.00000E+00  9.000E+00
      25     1     1     2     0     0 -8.405081831E+01  1.297767263E+02 -1.327839751E+03  1.342642895E+03  1.250000000E+02  0.00000E+00  9.000E+00
      21     1     1     2   511   502 -2.140815400E+01 -1.411500970E+01 -4.029369704E+00  2.595724131E+01  1.720293723E-06  0.00000E+00  9.000E+00
#rwgt            1           1  0.48105279232912729                9      417382           0
</event>
<event>
      5   9999  3.79277E-02  9.59970E+01 -1.00000E+00  1.24631E-01
      21    -1     0     0   502   501  0.000000000E+00  0.000000000E+00  3.094777328E+02  3.094777328E+02  0.000000000E+00  0.00000E+00  9.000E+00
      21    -1     0     0   512   502  0.000000000E+00  0.000000000E+00 -1.338118688E+03  1.338118688E+03  0.000000000E+00  0.00000E+00  9.000E+00
      25     1     1     2     0     0  3.672011681E+02  2.023239145E+02 -4.527481940E+02  6.295852535E+02  1.250000000E+02  0.00000E+00  9.000E+00
      25     1     1     2     0     0 -4.491035176E+02 -1.522497177E+02 -6.093040451E+01  4.941775594E+02  1.250000000E+02  0.00000E+00  9.000E+00
      21     1     1     2   512   501  8.190234945E+01 -5.007419680E+01 -5.149623568E+02  5.238336081E+02  7.629394531E-06  0.00000E+00  9.000E+00
#rwgt            1           1   8.5224062353750601E-002           9      417633           0
</event>
<event>
      5   9999  3.79277E-02  1.19256E+02 -1.00000E+00  1.20483E-01
      21    -1     0     0   511   501  0.000000000E+00  0.000000000E+00  7.309397415E+02  7.309397415E+02  0.000000000E+00  0.00000E+00  9.000E+00
      21    -1     0     0   501   502  0.000000000E+00  0.000000000E+00 -1.515492016E+02  1.515492016E+02  0.000000000E+00  0.00000E+00  9.000E+00
      25     1     1     2     0     0 -1.587446884E+02  2.771042620E+00  2.024861821E+02  2.860650428E+02  1.250000000E+02  0.00000E+00  9.000E+00
      25     1     1     2     0     0  2.599152756E+02  6.036779342E+01  1.296716189E+02  3.219315917E+02  1.250000000E+02  0.00000E+00  9.000E+00
      21     1     1     2   511   502 -1.011705872E+02 -6.313883604E+01  2.472327389E+02  2.744923086E+02  0.000000000E+00  0.00000E+00  9.000E+00
#rwgt            2          11   1.8299922340617562E-003           9      417770           0
</event>
<event>
      5   9999  3.79277E-02  2.35406E+01 -1.00000E+00  1.60733E-01
      21    -1     0     0   502   512  0.000000000E+00  0.000000000E+00  1.526488541E+02  1.526488541E+02  0.000000000E+00  0.00000E+00  9.000E+00
      21    -1     0     0   501   502  0.000000000E+00  0.000000000E+00 -4.376713297E+02  4.376713297E+02  0.000000000E+00  0.00000E+00  9.000E+00
      25     1     1     2     0     0  1.405668801E+02 -1.183001933E+02 -3.944874297E+01  2.256882515E+02  1.250000000E+02  0.00000E+00  9.000E+00
      25     1     1     2     0     0 -1.628195894E+02  1.259799707E+02 -2.408743343E+02  3.406267997E+02  1.250000000E+02  0.00000E+00  9.000E+00
      21     1     1     2   501   512  2.225270925E+01 -7.679777395E+00 -4.699398389E+00  2.400513268E+01  2.795705652E-07  0.00000E+00  9.000E+00
#rwgt            1           1   1.8596650248490026E-002           9      417790           0
</event>
<event>
      5   9999  3.79277E-02  1.18516E+02 -1.00000E+00  1.20598E-01
      21    -1     0     0   511   501  0.000000000E+00  0.000000000E+00  8.558241732E+02  8.558241732E+02  0.000000000E+00  0.00000E+00  9.000E+00
      21    -1     0     0   501   502  0.000000000E+00  0.000000000E+00 -2.174059436E+02  2.174059436E+02  0.000000000E+00  0.00000E+00  9.000E+00
      25     1     1     2     0     0 -2.216752717E+02 -1.678711677E+02  3.109300888E+02  4.354574320E+02  1.250000000E+02  0.00000E+00  9.000E+00
      25     1     1     2     0     0  2.935318346E+02  7.362383167E+01  4.382128299E+01  3.303433234E+02  1.250000000E+02  0.00000E+00  9.000E+00
      21     1     1     2   511   502 -7.185656288E+01  9.424733602E+01  2.836668578E+02  3.074293613E+02  0.000000000E+00  0.00000E+00  9.000E+00
#rwgt            1           1   1.3503532862330360E-002           9      418005           0
</event>
<event>
      5   9999  3.79277E-02  3.75204E+01 -1.00000E+00  1.46585E-01
      21    -1     0     0   502   501  0.000000000E+00  0.000000000E+00  2.940807464E+02  2.940807464E+02  0.000000000E+00  0.00000E+00  9.000E+00
      21    -1     0     0   512   502  0.000000000E+00  0.000000000E+00 -6.612877751E+02  6.612877751E+02  0.000000000E+00  0.00000E+00  9.000E+00
      25     1     1     2     0     0  1.206203044E+02  3.084509175E+02 -2.880355452E+02  4.563778058E+02  1.250000000E+02  0.00000E+00  9.000E+00
      25     1     1     2     0     0 -1.569656458E+02 -3.177675136E+02  3.630861068E+01  3.775681685E+02  1.250000000E+02  0.00000E+00  9.000E+00
      21     1     1     2   512   501  3.634534134E+01  9.316596030E+00 -1.154800943E+02  1.214225472E+02  1.907348633E-06  0.00000E+00  9.000E+00
#rwgt            1           1   5.1025953288368148E-002           9      418217           0
</event>
<event>
      5   9999  3.79277E-02  6.29294E+01 -1.00000E+00  1.33606E-01
      21    -1     0     0   502   501  0.000000000E+00  0.000000000E+00  4.714274787E+02  4.714274787E+02  0.000000000E+00  0.00000E+00  9.000E+00
      21    -1     0     0   511   502  0.000000000E+00  0.000000000E+00 -1.055529658E+02  1.055529658E+02  0.000000000E+00  0.00000E+00  9.000E+00
      25     1     1     2     0     0  1.179318007E+02  1.247826760E+02  1.437304464E+02  2.564411571E+02  1.250000000E+02  0.00000E+00  9.000E+00
      25     1     1     2     0     0 -6.504743353E+01 -9.067480481E+01  1.713958082E+02  2.396969168E+02  1.250000000E+02  0.00000E+00  9.000E+00
      21     1     1     2   511   501 -5.288436719E+01 -3.410787116E+01  5.074825832E+01  8.084237064E+01  9.536743164E-07  0.00000E+00  9.000E+00
#rwgt            1           1   3.3208718019482275E-002           9      418398           0
</event>
<event>
      5   9999  3.79277E-02  1.40944E+02 -1.00000E+00  1.17476E-01
      21    -1     0     0   502   501  0.000000000E+00  0.000000000E+00  4.307204655E+02  4.307204655E+02  0.000000000E+00  0.00000E+00  9.000E+00
      21    -1     0     0   512   502  0.000000000E+00  0.000000000E+00 -2.965091344E+02  2.965091344E+02  0.000000000E+00  0.00000E+00  9.000E+00
      25     1     1     2     0     0  2.220303857E+02  2.350230532E+02  6.746224319E+01  3.531422970E+02  1.250000000E+02  0.00000E+00  9.000E+00
      25     1     1     2     0     0 -1.041579638E+02 -1.577491558E+02  5.075808581E+01  2.322392319E+02  1.250000000E+02  0.00000E+00  9.000E+00
      21     1     1     2   512   501 -1.178724219E+02 -7.727389743E+01  1.599100214E+01  1.418480709E+02  4.460403188E-07  0.00000E+00  9.000E+00
#rwgt            1           1   4.6606895728055139E-002           9      418553           0
</event>
<event>
      5   9999  3.79277E-02  4.06998E+01 -1.00000E+00  1.44375E-01
      21    -1     0     0   502   501  0.000000000E+00  0.000000000E+00  5.535288462E+02  5.535288462E+02  0.000000000E+00  0.00000E+00  9.000E+00
       2    -1     0     0   501     0  0.000000000E+00  0.000000000E+00 -1.550193272E+02  1.550193272E+02  0.000000000E+00  0.00000E+00  9.000E+00
      25     1     1     2     0     0  1.910053495E+02  1.363967934E+02  3.042226260E+02  4.040588261E+02  1.250000000E+02  0.00000E+00  9.000E+00
      25     1     1     2     0     0 -1.506428687E+02 -1.311674254E+02  1.110278349E+02  2.604809926E+02  1.250000000E+02  0.00000E+00  9.000E+00
       2     1     1     2   502     0 -4.036248080E+01 -5.229367935E+00 -1.674094197E+01  4.400835470E+01  8.920806376E-07  0.00000E+00  9.000E+00
#rwgt            1           1   2.7142683555989471E-002           9      418646           0
</event>
<event>
      5   9999  3.79277E-02  5.26050E+01 -1.00000E+00  1.37829E-01
      21    -1     0     0   502   511  0.000000000E+00  0.000000000E+00  5.472919766E+02  5.472919766E+02  0.000000000E+00  0.00000E+00  9.000E+00
      21    -1     0     0   501   502  0.000000000E+00  0.000000000E+00 -1.676703163E+02  1.676703163E+02  0.000000000E+00  0.00000E+00  9.000E+00
      25     1     1     2     0     0 -1.703571247E+02 -3.153584243E+00  3.795417642E+01  2.147021531E+02  1.250000000E+02  0.00000E+00  9.000E+00
      25     1     1     2     0     0  1.212521362E+02  2.202128987E+01  2.271322093E+01  1.769969156E+02  1.250000000E+02  0.00000E+00  9.000E+00
      21     1     1     2   501   511  4.910498855E+01 -1.886770563E+01  3.189542630E+02  3.232632241E+02  0.000000000E+00  0.00000E+00  9.000E+00
#rwgt            1           1   5.4103216987756823E-002           9      418810           0
</event>
<event>
      5   9999  3.79277E-02  1.85015E+01 -1.00000E+00  1.69209E-01
       3    -1     0     0   502     0  0.000000000E+00  0.000000000E+00  1.395876708E+03  1.395876708E+03  0.000000000E+00  0.00000E+00  9.000E+00
      21    -1     0     0   501   502  0.000000000E+00  0.000000000E+00 -7.438446358E+01  7.438446358E+01  0.000000000E+00  0.00000E+00  9.000E+00
      25     1     1     2     0     0  2.165565719E+02 -1.010106725E+01  2.437779133E+02  3.493586286E+02  1.250000000E+02  0.00000E+00  9.000E+00
      25     1     1     2     0     0 -2.074849874E+02 -6.023849605E+00  6.649128739E+02  7.076866797E+02  1.250000000E+02  0.00000E+00  9.000E+00
       3     1     1     2   501     0 -9.071584480E+00  1.612491685E+01  4.128014575E+02  4.132158636E+02  5.394796609E-06  0.00000E+00  9.000E+00
#rwgt            1           1   4.1647443049511013E-002           9      419106           0
</event>
<event>
      5   9999  3.79277E-02  3.69624E+01 -1.00000E+00  1.47000E-01
      21    -1     0     0   502   511  0.000000000E+00  0.000000000E+00  2.454166989E+02  2.454166989E+02  0.000000000E+00  0.00000E+00  9.000E+00
      21    -1     0     0   501   502  0.000000000E+00  0.000000000E+00 -1.607335837E+02  1.607335837E+02  0.000000000E+00  0.00000E+00  9.000E+00
      25     1     1     2     0     0  3.688464064E+01 -5.902691207E+01 -6.080440898E+01  1.554568404E+02  1.250000000E+02  0.00000E+00  9.000E+00
      25     1     1     2     0     0 -5.792966710E+01  8.941319808E+01  1.008290243E+02  1.927227503E+02  1.250000000E+02  0.00000E+00  9.000E+00
      21     1     1     2   501   511  2.104502646E+01 -3.038628601E+01  4.465849985E+01  5.797069195E+01  6.743495762E-07  0.00000E+00  9.000E+00
#rwgt            1           1   4.0854668704650335E-002           9      419429           0
</event>
<event>
      5   9999  3.79277E-02  1.01793E+02 -1.00000E+00  1.23482E-01
      21    -1     0     0   502   501  0.000000000E+00  0.000000000E+00  3.033263747E+02  3.033263747E+02  0.000000000E+00  0.00000E+00  9.000E+00
      21    -1     0     0   512   502  0.000000000E+00  0.000000000E+00 -2.773446987E+02  2.773446987E+02  0.000000000E+00  0.00000E+00  9.000E+00
      25     1     1     2     0     0  1.349909847E+01  2.298959578E+02  9.659889326E+00  2.622073426E+02  1.250000000E+02  0.00000E+00  9.000E+00
      25     1     1     2     0     0  6.327073550E+01 -1.630510610E+02  2.438021758E+01  2.163520961E+02  1.250000000E+02  0.00000E+00  9.000E+00
      21     1     1     2   512   501 -7.676983397E+01 -6.684489681E+01 -8.058430920E+00  1.021116347E+02  1.599360450E-06  0.00000E+00  9.000E+00
#rwgt            1           1   8.8742897080359470E-002           9      419571           0
</event>
<event>
      5   9999  3.79277E-02  1.03592E+02 -1.00000E+00  1.23142E-01
       2    -1     0     0   502     0  0.000000000E+00  0.000000000E+00  3.533020592E+03  3.533020592E+03  0.000000000E+00  0.00000E+00  9.000E+00
      21    -1     0     0   501   502  0.000000000E+00  0.000000000E+00 -2.219850684E+02  2.219850684E+02  0.000000000E+00  0.00000E+00  9.000E+00
      25     1     1     2     0     0 -3.098989592E+01  1.141352066E+02  1.850211149E+02  2.526757447E+02  1.250000000E+02  0.00000E+00  9.000E+00
      25     1     1     2     0     0  9.858855787E+01 -3.563815123E+01 -1.518226966E+02  2.228562603E+02  1.250000000E+02  0.00000E+00  9.000E+00
       2     1     1     2   501     0 -6.759866195E+01 -7.849705535E+01  3.277837105E+03  3.279473655E+03  4.315837288E-05  0.00000E+00  9.000E+00
#rwgt            2          18   1.0113951101894914E-002           9      419723           0
</event>
<event>
      5   9999  3.79277E-02  7.65160E+01 -1.00000E+00  1.29293E-01
      21    -1     0     0   502   511  0.000000000E+00  0.000000000E+00  3.435938542E+03  3.435938542E+03  0.000000000E+00  0.00000E+00  9.000E+00
      21    -1     0     0   501   502  0.000000000E+00  0.000000000E+00 -3.409136584E+01  3.409136584E+01  0.000000000E+00  0.00000E+00  9.000E+00
      25     1     1     2     0     0  3.630325778E+01 -2.636392909E+02  1.717728218E+03  1.742710197E+03  1.250000000E+02  0.00000E+00  9.000E+00
      25     1     1     2     0     0  3.928554769E+01  2.755147020E+02  1.264638255E+03  1.300917607E+03  1.250000000E+02  0.00000E+00  9.000E+00
      21     1     1     2   501   511 -7.558880547E+01 -1.187541109E+01  4.194807041E+02  4.264021037E+02  5.394796609E-06  0.00000E+00  9.000E+00
#rwgt            1           1   4.1495026336995401E-002           9      419742           0
</event>
<event>
      5   9999  3.79277E-02  4.00742E+01 -1.00000E+00  1.44790E-01
      21    -1     0     0   512   501  0.000000000E+00  0.000000000E+00  9.708580357E+02  9.708580357E+02  0.000000000E+00  0.00000E+00  9.000E+00
      21    -1     0     0   501   502  0.000000000E+00  0.000000000E+00 -7.002676968E+01  7.002676968E+01  0.000000000E+00  0.00000E+00  9.000E+00
      25     1     1     2     0     0 -1.166188230E+02  5.242926714E+01  2.829233335E+02  3.346929795E+02  1.250000000E+02  0.00000E+00  9.000E+00
      25     1     1     2     0     0  7.672844649E+01 -4.859487462E+01  9.421976905E+01  1.809725980E+02  1.250000000E+02  0.00000E+00  9.000E+00
      21     1     1     2   512   502  3.989037653E+01 -3.834392523E+00  5.236881635E+02  5.252192279E+02  0.000000000E+00  0.00000E+00  9.000E+00
#rwgt            1           1   3.3056295834590556E-002           9      419810           0
</event>
<event>
      5   9999  3.79277E-02  4.95995E+01 -1.00000E+00  1.39275E-01
      21    -1     0     0   502   501  0.000000000E+00  0.000000000E+00  3.535417920E+02  3.535417920E+02  0.000000000E+00  0.00000E+00  9.000E+00
      21    -1     0     0   501   511  0.000000000E+00  0.000000000E+00 -1.211728588E+03  1.211728588E+03  0.000000000E+00  0.00000E+00  9.000E+00
      25     1     1     2     0     0 -3.076904927E+01 -8.561637559E+01  1.978962456E+01  1.558638104E+02  1.250000000E+02  0.00000E+00  9.000E+00
      25     1     1     2     0     0  7.835012057E+01  7.161099887E+01  2.398112304E+02  2.905190231E+02  1.250000000E+02  0.00000E+00  9.000E+00
      21     1     1     2   502   511 -4.758107130E+01  1.400537672E+01 -1.117787651E+03  1.118887547E+03  2.157918644E-05  0.00000E+00  9.000E+00
#rwgt            1           1   2.4097487268930871E-002           9      419962           0
</event>
<event>
      5   9999  3.79277E-02  1.99219E+01 -1.00000E+00  1.66509E-01
      21    -1     0     0   502   501  0.000000000E+00  0.000000000E+00  1.772354459E+02  1.772354459E+02  0.000000000E+00  0.00000E+00  9.000E+00
      21    -1     0     0   512   502  0.000000000E+00  0.000000000E+00 -2.077269129E+02  2.077269129E+02  0.000000000E+00  0.00000E+00  9.000E+00
      25     1     1     2     0     0  1.202224125E+02  4.762066489E+01 -6.055337391E+01  1.897705648E+02  1.250000000E+02  0.00000E+00  9.000E+00
      25     1     1     2     0     0 -1.059042356E+02 -3.376888104E+01  4.132781297E+01  1.723050567E+02  1.250000000E+02  0.00000E+00  9.000E+00
      21     1     1     2   512   501 -1.431817688E+01 -1.385178385E+01 -1.126590603E+01  2.288673728E+01  3.576278687E-07  0.00000E+00  9.000E+00
#rwgt            1           1   2.4375385142560362E-002           9      420080           0
</event>
<event>
      5   9999  3.79277E-02  3.65047E+01 -1.00000E+00  1.47347E-01
      21    -1     0     0   502   501  0.000000000E+00  0.000000000E+00  3.200089642E+03  3.200089642E+03  0.000000000E+00  0.00000E+00  9.000E+00
      21    -1     0     0   511   502  0.000000000E+00  0.000000000E+00 -4.247494107E+01  4.247494107E+01  0.000000000E+00  0.00000E+00  9.000E+00
      25     1     1     2     0     0 -2.960633382E+02 -9.864290631E+00  1.284065883E+03  1.323707292E+03  1.250000000E+02  0.00000E+00  9.000E+00
      25     1     1     2     0     0  3.206822302E+02 -1.708936891E+01  1.829385376E+03  1.861559828E+03  1.250000000E+02  0.00000E+00  9.000E+00
      21     1     1     2   511   501 -2.461889207E+01  2.695365954E+01  4.416344202E+01  5.729746260E+01  4.768371582E-07  0.00000E+00  9.000E+00
#rwgt            1           1   3.9851161600114350E-002           9      420314           0
</event>
<event>
      5   9999  3.79277E-02  5.00221E+01 -1.00000E+00  1.39065E-01
      21    -1     0     0   502   501  0.000000000E+00  0.000000000E+00  3.099722661E+02  3.099722661E+02  0.000000000E+00  0.00000E+00  9.000E+00
       2    -1     0     0   501     0  0.000000000E+00  0.000000000E+00 -8.820044943E+02  8.820044943E+02  0.000000000E+00  0.00000E+00  9.000E+00
      25     1     1     2     0     0 -1.924427733E+02 -4.796794684E+01  2.067326104E+02  3.125676200E+02  1.250000000E+02  0.00000E+00  9.000E+00
      25     1     1     2     0     0  2.082313330E+02  5.028880729E-01 -2.509519288E+02  3.492311720E+02  1.250000000E+02  0.00000E+00  9.000E+00
       2     1     1     2   502     0 -1.578855976E+01  4.746505877E+01 -5.278129097E+02  5.301779683E+02  1.078959322E-05  0.00000E+00  9.000E+00
#rwgt            1           1   4.1892057772737079E-002           9      420585           0
</event>
<event>
      5   9999  3.79277E-02  1.09418E+02 -1.00000E+00  1.22095E-01
      21    -1     0     0   502   501  0.000000000E+00  0.000000000E+00  8.690827281E+01  8.690827281E+01  0.000000000E+00  0.00000E+00  9.000E+00
      21    -1     0     0   501   511  0.000000000E+00  0.000000000E+00 -7.757898702E+02  7.757898702E+02  0.000000000E+00  0.00000E+00  9.000E+00
      25     1     1     2     0     0  1.571545848E+01 -7.674837754E+01 -7.927436623E+01  1.674715326E+02  1.250000000E+02  0.00000E+00  9.000E+00
      25     1     1     2     0     0 -1.040606175E+02  1.413036220E+02 -3.212696192E+02  3.868261805E+02  1.250000000E+02  0.00000E+00  9.000E+00
      21     1     1     2   502   511  8.834515901E+01 -6.455524445E+01 -2.883376119E+02  3.084004298E+02  0.000000000E+00  0.00000E+00  9.000E+00
#rwgt            1           1   3.6025528708680962E-002           9      420738           0
</event>
<event>
      5   9999  3.79277E-02  3.55825E+01 -1.00000E+00  1.48064E-01
      -1    -1     0     0     0   501  0.000000000E+00  0.000000000E+00  7.028748375E+02  7.028748375E+02  0.000000000E+00  0.00000E+00  9.000E+00
      21    -1     0     0   501   502  0.000000000E+00  0.000000000E+00 -2.229740344E+02  2.229740344E+02  0.000000000E+00  0.00000E+00  9.000E+00
      25     1     1     2     0     0 -4.401941482E+01 -1.818233995E+01 -4.033128940E+01  1.397137047E+02  1.250000000E+02  0.00000E+00  9.000E+00
      25     1     1     2     0     0  6.460958458E+01  4.720231816E+01 -9.085204338E+01  1.740159506E+02  1.250000000E+02  0.00000E+00  9.000E+00
      -1     1     1     2     0   502 -2.059016976E+01 -2.901997821E+01  6.110841359E+02  6.121192166E+02  7.629394531E-06  0.00000E+00  9.000E+00
#rwgt            1           1   5.3092469584839215E-002           9      420801           0
</event>
<event>
      5   9999  3.79277E-02  4.28448E+01 -1.00000E+00  1.43014E-01
      21    -1     0     0   502   501  0.000000000E+00  0.000000000E+00  6.241553896E+02  6.241553896E+02  0.000000000E+00  0.00000E+00  9.000E+00
      21    -1     0     0   501   511  0.000000000E+00  0.000000000E+00 -2.060965731E+02  2.060965731E+02  0.000000000E+00  0.00000E+00  9.000E+00
      25     1     1     2     0     0  7.602341916E+01 -5.796467278E+01 -1.435968545E+02  2.130364292E+02  1.250000000E+02  0.00000E+00  9.000E+00
      25     1     1     2     0     0 -9.313455624E+01  9.724421275E+01  5.374939867E+02  5.680275241E+02  1.250000000E+02  0.00000E+00  9.000E+00
      21     1     1     2   502   511  1.711113708E+01 -3.927953997E+01  2.416168432E+01  4.918800932E+01  5.840038640E-07  0.00000E+00  9.000E+00
#rwgt            1           1   6.0964316253407196E-002           9      420869           0
</event>
<event>
      5   9999  3.79277E-02  9.37163E+00 -1.00000E+00  1.99073E-01
      21    -1     0     0   502   512  0.000000000E+00  0.000000000E+00  7.462037675E+02  7.462037675E+02  0.000000000E+00  0.00000E+00  9.000E+00
      21    -1     0     0   501   502  0.000000000E+00  0.000000000E+00 -9.004031382E+01  9.004031382E+01  0.000000000E+00  0.00000E+00  9.000E+00
      25     1     1     2     0     0 -1.577620034E+01  1.017033232E+02  4.613723960E+01  1.683629987E+02  1.250000000E+02  0.00000E+00  9.000E+00
      25     1     1     2     0     0  1.523757305E+01 -1.110594608E+02  2.152362880E+02  2.729799391E+02  1.250000000E+02  0.00000E+00  9.000E+00
      21     1     1     2   501   512  5.386272877E-01  9.356137579E+00  3.947899261E+02  3.949011435E+02  5.394796609E-06  0.00000E+00  9.000E+00
#rwgt            1           1   3.6076305976199818E-002           9      421194           0
</event>
<event>
      5   9999  3.79277E-02  7.15143E+01 -1.00000E+00  1.30752E-01
       2    -1     0     0   502     0  0.000000000E+00  0.000000000E+00  1.552255527E+03  1.552255527E+03  0.000000000E+00  0.00000E+00  9.000E+00
      21    -1     0     0   501   502  0.000000000E+00  0.000000000E+00 -8.201388348E+01  8.201388348E+01  0.000000000E+00  0.00000E+00  9.000E+00
      25     1     1     2     0     0 -5.031557860E+01 -1.063199495E+02  6.118642808E+02  6.354828772E+02  1.250000000E+02  0.00000E+00  9.000E+00
      25     1     1     2     0     0  1.217749824E+02  1.035189156E+02  8.155826123E+01  2.186825603E+02  1.250000000E+02  0.00000E+00  9.000E+00
       2     1     1     2   501     0 -7.145940376E+01  2.801033939E+00  7.768191013E+02  7.801039728E+02  1.525878906E-05  0.00000E+00  9.000E+00
#rwgt            1           1   4.2401197496061409E-002           9      421434           0
</event>
<event>
      5   9999  3.79277E-02  8.49136E+01 -1.00000E+00  1.27109E-01
      21    -1     0     0   502   501  0.000000000E+00  0.000000000E+00  8.557708634E+02  8.557708634E+02  0.000000000E+00  0.00000E+00  9.000E+00
      21    -1     0     0   501   511  0.000000000E+00  0.000000000E+00 -6.878849976E+02  6.878849976E+02  0.000000000E+00  0.00000E+00  9.000E+00
      25     1     1     2     0     0  1.226845916E+02 -2.110221211E+02  4.096938928E+02  4.930070287E+02  1.250000000E+02  0.00000E+00  9.000E+00
      25     1     1     2     0     0 -8.258936105E+01  2.858732106E+02  3.364278072E+02  4.662115019E+02  1.250000000E+02  0.00000E+00  9.000E+00
      21     1     1     2   502   511 -4.009523060E+01 -7.485108955E+01 -5.782358342E+02  5.844373303E+02  1.525878906E-05  0.00000E+00  9.000E+00
#rwgt            1           1   2.4507703794611809E-002           9      421548           0
</event>
<event>
      5   9999  3.79277E-02  8.92159E+01 -1.00000E+00  1.26099E-01
      21    -1     0     0   512   501  0.000000000E+00  0.000000000E+00  1.575548020E+02  1.575548020E+02  0.000000000E+00  0.00000E+00  9.000E+00
      21    -1     0     0   501   502  0.000000000E+00  0.000000000E+00 -3.763501939E+02  3.763501939E+02  0.000000000E+00  0.00000E+00  9.000E+00
      25     1     1     2     0     0 -7.421697223E+01 -5.039976672E+01  5.387919476E+01  1.630222779E+02  1.250000000E+02  0.00000E+00  9.000E+00
      25     1     1     2     0     0  5.473389571E+01 -3.666273810E+01 -2.346362567E+02  2.738962005E+02  1.250000000E+02  0.00000E+00  9.000E+00
      21     1     1     2   512   502  1.948307652E+01  8.706250482E+01 -3.803832995E+01  9.698651742E+01  8.259061849E-07  0.00000E+00  9.000E+00
#rwgt            1           1   2.6280253341763659E-002           9      421676           0
</event>
<event>
      5   9999  3.79277E-02  1.49817E+02 -1.00000E+00  1.16415E-01
      21    -1     0     0   511   501  0.000000000E+00  0.000000000E+00  1.055422958E+02  1.055422958E+02  0.000000000E+00  0.00000E+00  9.000E+00
      21    -1     0     0   501   502  0.000000000E+00  0.000000000E+00 -1.601395907E+03  1.601395907E+03  0.000000000E+00  0.00000E+00  9.000E+00
      25     1     1     2     0     0 -1.413423531E+02  4.496211508E+01 -1.299367531E+03  1.313765669E+03  1.250000000E+02  0.00000E+00  9.000E+00
      25     1     1     2     0     0 -2.560079256E+00 -8.664188867E+01 -7.896959269E+00  1.523178678E+02  1.250000000E+02  0.00000E+00  9.000E+00
      21     1     1     2   511   502  1.439024324E+02  4.167977360E+01 -1.885891210E+02  2.408546660E+02  2.697398305E-06  0.00000E+00  9.000E+00
#rwgt            1           1   4.2616322292000644E-002           9      421809           0
</event>
<event>
      5   9999  3.79277E-02  2.58152E+01 -1.00000E+00  1.57714E-01
      21    -1     0     0   502   501  0.000000000E+00  0.000000000E+00  9.855921018E+01  9.855921018E+01  0.000000000E+00  0.00000E+00  9.000E+00
      21    -1     0     0   501   512  0.000000000E+00  0.000000000E+00 -7.429092371E+02  7.429092371E+02  0.000000000E+00  0.00000E+00  9.000E+00
      25     1     1     2     0     0  5.695066682E+01  1.957229695E+02 -4.045232477E+02  4.699094776E+02  1.250000000E+02  0.00000E+00  9.000E+00
      25     1     1     2     0     0 -8.005376834E+01 -2.072412195E+02 -1.996089818E+02  3.237688596E+02  1.250000000E+02  0.00000E+00  9.000E+00
      21     1     1     2   502   512  2.310310152E+01  1.151824998E+01 -4.021779743E+01  4.779010999E+01  9.536743164E-07  0.00000E+00  9.000E+00
#rwgt            1           1   3.2275369633898224E-002           9      422062           0
</event>
<event>
      5   9999  3.79277E-02  7.60776E+01 -1.00000E+00  1.29415E-01
      21    -1     0     0   502   501  0.000000000E+00  0.000000000E+00  1.264627221E+02  1.264627221E+02  0.000000000E+00  0.00000E+00  9.000E+00
      21    -1     0     0   511   502  0.000000000E+00  0.000000000E+00 -4.132829078E+02  4.132829078E+02  0.000000000E+00  0.00000E+00  9.000E+00
      25     1     1     2     0     0  1.179438834E+02  2.437796914E+01 -1.816418454E+02  2.512445124E+02  1.250000000E+02  0.00000E+00  9.000E+00
      25     1     1     2     0     0 -9.414105387E+01 -9.663600969E+01 -3.976535377E+01  1.881683814E+02  1.250000000E+02  0.00000E+00  9.000E+00
      21     1     1     2   511   501 -2.380282956E+01  7.225804054E+01 -6.541298658E+01  1.003327361E+02  1.651812370E-06  0.00000E+00  9.000E+00
#rwgt            1           1   4.1049129614200985E-002           9      422184           0
</event>
<event>
      5   9999  3.79277E-02  9.35512E+00 -1.00000E+00  1.99164E-01
      21    -1     0     0   502   512  0.000000000E+00  0.000000000E+00  8.153123091E+02  8.153123091E+02  0.000000000E+00  0.00000E+00  9.000E+00
      21    -1     0     0   501   502  0.000000000E+00  0.000000000E+00 -5.028802756E+01  5.028802756E+01  0.000000000E+00  0.00000E+00  9.000E+00
      25     1     1     2     0     0 -1.971659521E+00  1.502925128E+02  3.745580440E+02  4.225049765E+02  1.250000000E+02  0.00000E+00  9.000E+00
      25     1     1     2     0     0 -5.529013230E+00 -1.558834142E+02  3.685604455E+02  4.192755786E+02  1.250000000E+02  0.00000E+00  9.000E+00
      21     1     1     2   501   512  7.500672751E+00  5.590901388E+00  2.190579203E+01  2.381978158E+01  4.129530925E-07  0.00000E+00  9.000E+00
#rwgt            1           1   3.2880829149055692E-002           9      422234           0
</event>
<event>
      5   9999  3.79277E-02  1.23768E+01 -1.00000E+00  1.85627E-01
      21    -1     0     0   502   511  0.000000000E+00  0.000000000E+00  2.334315855E+02  2.334315855E+02  0.000000000E+00  0.00000E+00  9.000E+00
      21    -1     0     0   501   502  0.000000000E+00  0.000000000E+00 -1.418977279E+02  1.418977279E+02  0.000000000E+00  0.00000E+00  9.000E+00
      25     1     1     2     0     0 -8.697839308E+01 -7.216325947E+01  5.857286093E+01  1.784055967E+02  1.250000000E+02  0.00000E+00  9.000E+00
      25     1     1     2     0     0  7.765687074E+01  8.030546474E+01  6.567955151E+00  1.677727489E+02  1.250000000E+02  0.00000E+00  9.000E+00
      21     1     1     2   501   511  9.321522334E+00 -8.142205272E+00  2.639304156E+01  2.915096788E+01  0.000000000E+00  0.00000E+00  9.000E+00
#rwgt            1           1   4.3985229454719554E-002           9      422428           0
</event>
<event>
      5   9999  3.79277E-02  3.01366E+01 -1.00000E+00  1.52903E-01
      21    -1     0     0   502   512  0.000000000E+00  0.000000000E+00  2.275783888E+02  2.275783888E+02  0.000000000E+00  0.00000E+00  9.000E+00
      21    -1     0     0   501   502  0.000000000E+00  0.000000000E+00 -2.957448117E+02  2.957448117E+02  0.000000000E+00  0.00000E+00  9.000E+00
      25     1     1     2     0     0  8.447629825E+01 -1.113787916E+02  5.536233560E+01  1.955286894E+02  1.250000000E+02  0.00000E+00  9.000E+00
      25     1     1     2     0     0 -7.284665997E+01  1.391810730E+02 -1.761986506E+02  2.671122824E+02  1.250000000E+02  0.00000E+00  9.000E+00
      21     1     1     2   501   512 -1.162963828E+01 -2.780228147E+01  5.266989205E+01  6.068222862E+01  6.743495762E-07  0.00000E+00  9.000E+00
#rwgt            1           1   4.3536183635190989E-002           9      422611           0
</event>
<event>
      5   9999  3.79277E-02  1.53692E+02 -1.00000E+00  1.15977E-01
      21    -1     0     0   511   501  0.000000000E+00  0.000000000E+00  7.383297083E+02  7.383297083E+02  0.000000000E+00  0.00000E+00  9.000E+00
      21    -1     0     0   501   502  0.000000000E+00  0.000000000E+00 -1.399830340E+02  1.399830340E+02  0.000000000E+00  0.00000E+00  9.000E+00
      25     1     1     2     0     0 -2.238052619E+02 -3.461016976E+01  7.504590991E+01  2.693390942E+02  1.250000000E+02  0.00000E+00  9.000E+00
      25     1     1     2     0     0  7.016239249E+01  3.073540745E+01  3.366721829E+02  3.672064614E+02  1.250000000E+02  0.00000E+00  9.000E+00
      21     1     1     2   511   502  1.536428694E+02  3.874762310E+00  1.866285815E+02  2.417671866E+02  4.672030912E-06  0.00000E+00  9.000E+00
#rwgt            2          11   2.3572337980260084E-003           9      422889           0
</event>
<event>
      5   9999  3.79277E-02  2.39131E+01 -1.00000E+00  1.60211E-01
      21    -1     0     0   512   501  0.000000000E+00  0.000000000E+00  3.003890496E+02  3.003890496E+02  0.000000000E+00  0.00000E+00  9.000E+00
      21    -1     0     0   501   502  0.000000000E+00  0.000000000E+00 -2.747745440E+02  2.747745440E+02  0.000000000E+00  0.00000E+00  9.000E+00
      25     1     1     2     0     0 -2.199013471E+02 -4.333859668E+01  5.649822362E+01  2.627772549E+02  1.250000000E+02  0.00000E+00  9.000E+00
      25     1     1     2     0     0  2.102286640E+02  6.520806998E+01 -7.344562041E+01  2.635667709E+02  1.250000000E+02  0.00000E+00  9.000E+00
      21     1     1     2   512   502  9.672683117E+00 -2.186947330E+01  4.256190237E+01  4.881956774E+01  6.743495762E-07  0.00000E+00  9.000E+00
#rwgt            1           1   4.7379933560592530E-002           9      422939           0
</event>
<event>
      5   9999  3.79277E-02  4.10512E+01 -1.00000E+00  1.44145E-01
      21    -1     0     0   502   511  0.000000000E+00  0.000000000E+00  1.847673192E+02  1.847673192E+02  0.000000000E+00  0.00000E+00  9.000E+00
      21    -1     0     0   501   502  0.000000000E+00  0.000000000E+00 -2.240031479E+02  2.240031479E+02  0.000000000E+00  0.00000E+00  9.000E+00
      25     1     1     2     0     0  6.858061907E+01  1.124369789E+01  7.934326852E+01  1.635545056E+02  1.250000000E+02  0.00000E+00  9.000E+00
      25     1     1     2     0     0 -9.242682059E+01  2.217123029E+01 -1.285866327E+02  2.029625649E+02  1.250000000E+02  0.00000E+00  9.000E+00
      21     1     1     2   501   511  2.384620153E+01 -3.341492818E+01  1.000753556E+01  4.225339656E+01  5.196212463E-07  0.00000E+00  9.000E+00
#rwgt            1           1   3.7770810727389609E-002           9      423155           0
</event>
<event>
      5   9999  3.79277E-02  1.24892E+01 -1.00000E+00  1.85222E-01
      21    -1     0     0   512   501  0.000000000E+00  0.000000000E+00  5.190379566E+02  5.190379566E+02  0.000000000E+00  0.00000E+00  9.000E+00
      21    -1     0     0   501   502  0.000000000E+00  0.000000000E+00 -9.665638151E+01  9.665638151E+01  0.000000000E+00  0.00000E+00  9.000E+00
      25     1     1     2     0     0  1.978198171E+01 -2.316746769E+01  4.151688261E+02  4.346472277E+02  1.250000000E+02  0.00000E+00  9.000E+00
      25     1     1     2     0     0 -3.167089238E+01  2.699299687E+01 -3.558362522E+01  1.364656062E+02  1.250000000E+02  0.00000E+00  9.000E+00
      21     1     1     2   512   502  1.188891067E+01 -3.825529179E+00  4.279637426E+01  4.458150424E+01  4.768371582E-07  0.00000E+00  9.000E+00
#rwgt            1           1   4.8235855781135199E-002           9      423361           0
</event>
<event>
      5   9999  3.79277E-02  8.96470E+01 -1.00000E+00  1.26001E-01
       2    -1     0     0   502     0  0.000000000E+00  0.000000000E+00  1.394640962E+03  1.394640962E+03  0.000000000E+00  0.00000E+00  9.000E+00
      21    -1     0     0   501   502  0.000000000E+00  0.000000000E+00 -3.090417493E+02  3.090417493E+02  0.000000000E+00  0.00000E+00  9.000E+00
      25     1     1     2     0     0 -7.604282734E+01 -1.564836146E+02 -1.990362344E+02  2.924210250E+02  1.250000000E+02  0.00000E+00  9.000E+00
      25     1     1     2     0     0  1.634063872E+02  1.765883347E+02  2.379249805E+02  3.607192588E+02  1.250000000E+02  0.00000E+00  9.000E+00
       2     1     1     2   501     0 -8.736355985E+01 -2.010472007E+01  1.046710467E+03  1.050542428E+03  0.000000000E+00  0.00000E+00  9.000E+00
#rwgt            1           1   5.1544346551380169E-002           9      423537           0
</event>
<event>
      5   9999  3.79277E-02  1.25340E+01 -1.00000E+00  1.85062E-01
      21    -1     0     0   511   501  0.000000000E+00  0.000000000E+00  7.467273359E+02  7.467273359E+02  0.000000000E+00  0.00000E+00  9.000E+00
      21    -1     0     0   501   502  0.000000000E+00  0.000000000E+00 -1.074388154E+02  1.074388154E+02  0.000000000E+00  0.00000E+00  9.000E+00
      25     1     1     2     0     0  1.549588635E+02 -4.862493951E+01  5.939125285E+02  6.282783823E+02  1.250000000E+02  0.00000E+00  9.000E+00
      25     1     1     2     0     0 -1.434237551E+02  4.372153773E+01  1.831786133E+01  1.960675660E+02  1.250000000E+02  0.00000E+00  9.000E+00
      21     1     1     2   511   502 -1.153510835E+01  4.903401780E+00  2.705813067E+01  2.982020303E+01  3.371747881E-07  0.00000E+00  9.000E+00
#rwgt            1           1   3.6120629091283531E-002           9      423723           0
</event>
<event>
      5   9999  3.79277E-02  2.76131E+01 -1.00000E+00  1.55584E-01
      21    -1     0     0   502   501  0.000000000E+00  0.000000000E+00  1.492817854E+02  1.492817854E+02  0.000000000E+00  0.00000E+00  9.000E+00
      21    -1     0     0   512   502  0.000000000E+00  0.000000000E+00 -4.268645197E+02  4.268645197E+02  0.000000000E+00  0.00000E+00  9.000E+00
      25     1     1     2     0     0 -8.535408015E+01 -8.813773000E+01 -1.032632102E+02  2.033270002E+02  1.250000000E+02  0.00000E+00  9.000E+00
      25     1     1     2     0     0  9.147370593E+01  1.150641340E+02  3.381092263E+00  1.929860762E+02  1.250000000E+02  0.00000E+00  9.000E+00
      21     1     1     2   512   501 -6.119625775E+00 -2.692640400E+01 -1.777006164E+02  1.798332286E+02  1.907348633E-06  0.00000E+00  9.000E+00
#rwgt            1           1   4.1090090046215624E-002           9      424154           0
</event>
<event>
      5   9999  3.79277E-02  2.79361E+01  7.55638E-03  1.55221E-01
      -3    -1     0     0     0   501  0.000000000E+00  0.000000000E+00  3.068999678E+02  3.068999678E+02  0.000000000E+00  0.00000E+00  9.000E+00
       3    -1     0     0   502     0  0.000000000E+00  0.000000000E+00 -1.155924555E+02  1.155924555E+02  0.000000000E+00  0.00000E+00  9.000E+00
      25     1     1     2     0     0  8.934556612E+00 -5.580503666E+01  7.408595119E+01  1.559094499E+02  1.250000000E+02  0.00000E+00  9.000E+00
      25     1     1     2     0     0 -1.969919619E+01  8.158386515E+01  4.689565779E+00  1.506352462E+02  1.250000000E+02  0.00000E+00  9.000E+00
      21     1     1     2   502   501  1.076463958E+01 -2.577882849E+01  1.125319953E+02  1.159477271E+02  0.000000000E+00  0.00000E+00  9.000E+00
#rwgt            3           3   2.0717872664752769E-005           9      424308           0
</event>
<event>
      5   9999  3.79277E-02  5.34896E+01 -1.00000E+00  1.37424E-01
      21    -1     0     0   502   501  0.000000000E+00  0.000000000E+00  8.580775834E+01  8.580775834E+01  0.000000000E+00  0.00000E+00  9.000E+00
      -4    -1     0     0     0   502  0.000000000E+00  0.000000000E+00 -7.432759849E+02  7.432759849E+02  0.000000000E+00  0.00000E+00  9.000E+00
      25     1     1     2     0     0 -2.244711922E+01  1.147274446E+02 -5.554842211E+02  5.812520792E+02  1.250000000E+02  0.00000E+00  9.000E+00
      25     1     1     2     0     0 -3.037614329E+01 -1.063107105E+02 -5.245318747E+01  1.749314555E+02  1.250000000E+02  0.00000E+00  9.000E+00
      -4     1     1     2     0   501  5.282326251E+01 -8.416734106E+00 -4.953081794E+01  7.290020852E+01  9.536743164E-07  0.00000E+00  9.000E+00
#rwgt            1           1   4.4275667442542244E-002           9      424327           0
</event>
<event>
      5   9999  3.79277E-02  2.36456E+01 -1.00000E+00  1.60584E-01
      21    -1     0     0   502   501  0.000000000E+00  0.000000000E+00  5.289513369E+02  5.289513369E+02  0.000000000E+00  0.00000E+00  9.000E+00
      21    -1     0     0   511   502  0.000000000E+00  0.000000000E+00 -1.264691679E+02  1.264691679E+02  0.000000000E+00  0.00000E+00  9.000E+00
      25     1     1     2     0     0 -7.748733191E+00 -8.773305477E+01 -4.148557796E+01  1.584398465E+02  1.250000000E+02  0.00000E+00  9.000E+00
      25     1     1     2     0     0 -1.347171211E+01  7.730209792E+01  4.491475668E+02  4.727744051E+02  1.250000000E+02  0.00000E+00  9.000E+00
      21     1     1     2   511   501  2.122044530E+01  1.043095685E+01 -5.179819817E+00  2.420625318E+01  5.092623082E-07  0.00000E+00  9.000E+00
#rwgt            1           1   5.2547244873380777E-002           9      424511           0
</event>
<event>
      5   9999  3.79277E-02  7.83708E+01 -1.00000E+00  1.28783E-01
      21    -1     0     0   502   501  0.000000000E+00  0.000000000E+00  2.837280687E+02  2.837280687E+02  0.000000000E+00  0.00000E+00  9.000E+00
      21    -1     0     0   512   502  0.000000000E+00  0.000000000E+00 -6.174690228E+02  6.174690228E+02  0.000000000E+00  0.00000E+00  9.000E+00
      25     1     1     2     0     0 -1.421403647E+02  9.696228551E+01  1.810766769E+02  2.793194068E+02  1.250000000E+02  0.00000E+00  9.000E+00
      25     1     1     2     0     0  6.434333388E+01 -8.749617693E+01 -8.722040648E+01  1.871578075E+02  1.250000000E+02  0.00000E+00  9.000E+00
      21     1     1     2   512   501  7.779703084E+01 -9.466108581E+00 -4.275972246E+02  4.347198772E+02  5.394796609E-06  0.00000E+00  9.000E+00
#rwgt            1           1   5.4718626984425277E-002           9      424657           0
</event>
<event>
      5   9999  3.79277E-02  1.41992E+01 -1.00000E+00  1.79658E-01
      21    -1     0     0   502   501  0.000000000E+00  0.000000000E+00  3.149370141E+02  3.149370141E+02  0.000000000E+00  0.00000E+00  9.000E+00
      21    -1     0     0   501   511  0.000000000E+00  0.000000000E+00 -1.677731713E+02  1.677731713E+02  0.000000000E+00  0.00000E+00  9.000E+00
      25     1     1     2     0     0 -9.533115358E+01 -1.532080004E+02  1.301845548E+02  2.552131237E+02  1.250000000E+02  0.00000E+00  9.000E+00
      25     1     1     2     0     0  8.121728401E+01  1.516539358E+02  1.532449858E+01  2.132017911E+02  1.250000000E+02  0.00000E+00  9.000E+00
      21     1     1     2   502   511  1.411386957E+01  1.554064567E+00  1.654789456E+00  1.429527051E+01  1.942873718E-07  0.00000E+00  9.000E+00
#rwgt            1           1   4.6237838249410426E-002           9      424854           0
</event>
<event>
      5   9999  3.79277E-02  9.15708E+01 -1.00000E+00  1.25573E-01
      21    -1     0     0   502   501  0.000000000E+00  0.000000000E+00  2.309220639E+02  2.309220639E+02  0.000000000E+00  0.00000E+00  9.000E+00
      21    -1     0     0   512   502  0.000000000E+00  0.000000000E+00 -3.775330511E+02  3.775330511E+02  0.000000000E+00  0.00000E+00  9.000E+00
      25     1     1     2     0     0  3.046871010E+01  4.980519811E+01 -1.157842158E+02  1.801107567E+02  1.250000000E+02  0.00000E+00  9.000E+00
      25     1     1     2     0     0 -8.083067921E+01  2.667285135E+01  1.578615807E+02  2.186099686E+02  1.250000000E+02  0.00000E+00  9.000E+00
      21     1     1     2   512   501  5.036196910E+01 -7.647804946E+01 -1.886883521E+02  2.097343897E+02  0.000000000E+00  0.00000E+00  9.000E+00
#rwgt            1           1   5.3688235941670957E-002           9      425020           0
</event>
<event>
      5   9999  3.79277E-02  2.70518E+01 -1.00000E+00  1.56227E-01
      21    -1     0     0   502   511  0.000000000E+00  0.000000000E+00  1.431314451E+02  1.431314451E+02  0.000000000E+00  0.00000E+00  9.000E+00
      21    -1     0     0   501   502  0.000000000E+00  0.000000000E+00 -2.463794174E+02  2.463794174E+02  0.000000000E+00  0.00000E+00  9.000E+00
      25     1     1     2     0     0  7.521118618E+01  4.768209391E+01 -1.210897810E+02  1.954943469E+02  1.250000000E+02  0.00000E+00  9.000E+00
      25     1     1     2     0     0 -7.698018105E+01 -7.467602773E+01  6.939122846E+00  1.648502618E+02  1.250000000E+02  0.00000E+00  9.000E+00
      21     1     1     2   501   511  1.768994871E+00  2.699393381E+01  1.090268586E+01  2.916625386E+01  5.057621821E-07  0.00000E+00  9.000E+00
#rwgt            1           1   3.8805020969667633E-002           9      425091           0
</event>
<event>
      5   9999  3.79277E-02  2.00906E+01 -1.00000E+00  1.66207E-01
      21    -1     0     0   502   512  0.000000000E+00  0.000000000E+00  6.100440384E+02  6.100440384E+02  0.000000000E+00  0.00000E+00  9.000E+00
      21    -1     0     0   501   502  0.000000000E+00  0.000000000E+00 -1.269411682E+02  1.269411682E+02  0.000000000E+00  0.00000E+00  9.000E+00
      25     1     1     2     0     0 -1.199098430E+02  1.938083838E+02  2.048437090E+02  3.309471335E+02  1.250000000E+02  0.00000E+00  9.000E+00
      25     1     1     2     0     0  1.207920592E+02 -2.138796009E+02  2.596266440E+02  3.786372928E+02  1.250000000E+02  0.00000E+00  9.000E+00
      21     1     1     2   501   512 -8.822161487E-01  2.007121710E+01  1.863251728E+01  2.740078030E+01  6.307962682E-07  0.00000E+00  9.000E+00
#rwgt            1           1   3.8825473769698103E-002           9      425258           0
</event>
<event>
      5   9999  3.79277E-02  2.71383E+01 -1.00000E+00  1.56127E-01
      21    -1     0     0   502   501  0.000000000E+00  0.000000000E+00  8.357209007E+02  8.357209007E+02  0.000000000E+00  0.00000E+00  9.000E+00
      21    -1     0     0   501   511  0.000000000E+00  0.000000000E+00 -6.655007205E+02  6.655007205E+02  0.000000000E+00  0.00000E+00  9.000E+00
      25     1     1     2     0     0  3.738733203E+00 -8.533702753E+01 -6.058564362E+00  1.515192813E+02  1.250000000E+02  0.00000E+00  9.000E+00
      25     1     1     2     0     0  2.147038754E+01  9.538627456E+01  7.544168893E+02  7.709275983E+02  1.250000000E+02  0.00000E+00  9.000E+00
      21     1     1     2   502   511 -2.520912074E+01 -1.004924704E+01 -5.781381447E+02  5.787747416E+02  7.629394531E-06  0.00000E+00  9.000E+00
#rwgt            1           1   4.4863053954700680E-002           9      425457           0
</event>
<event>
      5   9999  3.79277E-02  2.37852E+01 -1.00000E+00  1.60388E-01
      21    -1     0     0   502   501  0.000000000E+00  0.000000000E+00  1.527861527E+02  1.527861527E+02  0.000000000E+00  0.00000E+00  9.000E+00
      21    -1     0     0   512   502  0.000000000E+00  0.000000000E+00 -4.171900969E+02  4.171900969E+02  0.000000000E+00  0.00000E+00  9.000E+00
      25     1     1     2     0     0 -1.014573812E+02  1.944386728E+01 -2.498298275E+02  2.978449376E+02  1.250000000E+02  0.00000E+00  9.000E+00
      25     1     1     2     0     0  1.203679594E+02 -3.387047780E+01  6.553812789E+01  1.885627247E+02  1.250000000E+02  0.00000E+00  9.000E+00
      21     1     1     2   512   501 -1.891057825E+01  1.442661052E+01 -8.011224455E+01  8.356858732E+01  9.536743164E-07  0.00000E+00  9.000E+00
#rwgt            1           1   5.1883056836609619E-002           9      425650           0
</event>
<event>
      5   9999  3.79277E-02  4.36567E+01 -1.00000E+00  1.42523E-01
       3    -1     0     0   502     0  0.000000000E+00  0.000000000E+00  8.869246951E+01  8.869246951E+01  0.000000000E+00  0.00000E+00  9.000E+00
      21    -1     0     0   501   502  0.000000000E+00  0.000000000E+00 -1.499307080E+03  1.499307080E+03  0.000000000E+00  0.00000E+00  9.000E+00
      25     1     1     2     0     0 -6.634124396E+01 -1.715502698E+02 -1.020541152E+03  1.044490258E+03  1.250000000E+02  0.00000E+00  9.000E+00
      25     1     1     2     0     0  2.269958174E+01  1.726945337E+02 -4.324445507E+02  4.826716922E+02  1.250000000E+02  0.00000E+00  9.000E+00
       3     1     1     2   501     0  4.364166221E+01 -1.144263844E+00  4.237109243E+01  6.083759935E+01  2.523185073E-06  0.00000E+00  9.000E+00
#rwgt            1           1   5.4895776989962661E-002           9      426011           0
</event>
<event>
      5   9999  3.79277E-02  2.18831E+01 -1.00000E+00  1.63208E-01
      21    -1     0     0   502   511  0.000000000E+00  0.000000000E+00  3.044125323E+02  3.044125323E+02  0.000000000E+00  0.00000E+00  9.000E+00
      21    -1     0     0   501   502  0.000000000E+00  0.000000000E+00 -1.222001912E+02  1.222001912E+02  0.000000000E+00  0.00000E+00  9.000E+00
      25     1     1     2     0     0  9.961202885E+01 -5.039294920E+01  7.498932627E+01  1.836039343E+02  1.250000000E+02  0.00000E+00  9.000E+00
      25     1     1     2     0     0 -9.652076012E+01  7.205665772E+01  4.834579883E+01  1.801963799E+02  1.250000000E+02  0.00000E+00  9.000E+00
      21     1     1     2   501   511 -3.091268728E+00 -2.166370852E+01  5.887721599E+01  6.281240938E+01  6.743495762E-07  0.00000E+00  9.000E+00
#rwgt            1           1   3.8667184313390279E-002           9      426083           0
</event>
<event>
      5   9999  3.79277E-02  1.42217E+02 -1.00000E+00  1.17318E-01
      21    -1     0     0   502   512  0.000000000E+00  0.000000000E+00  7.069695969E+01  7.069695969E+01  0.000000000E+00  0.00000E+00  9.000E+00
      21    -1     0     0   501   502  0.000000000E+00  0.000000000E+00 -1.059859923E+03  1.059859923E+03  0.000000000E+00  0.00000E+00  9.000E+00
      25     1     1     2     0     0  4.722478456E+01 -8.447993038E+01 -4.636888571E+02  4.898973312E+02  1.250000000E+02  0.00000E+00  9.000E+00
      25     1     1     2     0     0  7.153624355E+01  1.627190116E+02 -3.764437372E+02  4.346605551E+02  1.250000000E+02  0.00000E+00  9.000E+00
      21     1     1     2   501   512 -1.187610281E+02 -7.823908124E+01 -1.490303690E+02  2.059989964E+02  0.000000000E+00  0.00000E+00  9.000E+00
#rwgt            1           1   3.8928771564011685E-002           9      426267           0
</event>
<event>
      5   9999  3.79277E-02  1.63081E+01 -1.00000E+00  1.74030E-01
      21    -1     0     0   502   501  0.000000000E+00  0.000000000E+00  1.195946778E+02  1.195946778E+02  0.000000000E+00  0.00000E+00  9.000E+00
      21    -1     0     0   501   511  0.000000000E+00  0.000000000E+00 -6.043511631E+02  6.043511631E+02  0.000000000E+00  0.00000E+00  9.000E+00
      25     1     1     2     0     0  9.698785502E+01  9.283971170E+01 -4.342647221E+02  4.714198818E+02  1.250000000E+02  0.00000E+00  9.000E+00
      25     1     1     2     0     0 -8.213770744E+01 -8.609966847E+01  2.580909022E+01  1.745017623E+02  1.250000000E+02  0.00000E+00  9.000E+00
      21     1     1     2   502   511 -1.485014758E+01 -6.740043221E+00 -7.630085342E+01  7.802419688E+01  9.536743164E-07  0.00000E+00  9.000E+00
#rwgt            1           1   3.8141222664705293E-002           9      426337           0
</event>
<event>
      5   9999  3.79277E-02  7.47173E+01 -1.00000E+00  1.29802E-01
      21    -1     0     0   502   512  0.000000000E+00  0.000000000E+00  1.524906332E+02  1.524906332E+02  0.000000000E+00  0.00000E+00  9.000E+00
      21    -1     0     0   501   502  0.000000000E+00  0.000000000E+00 -3.636892050E+02  3.636892050E+02  0.000000000E+00  0.00000E+00  9.000E+00
      25     1     1     2     0     0  2.381323852E+01 -1.378531546E+02 -1.196551529E+01  1.879859998E+02  1.250000000E+02  0.00000E+00  9.000E+00
      25     1     1     2     0     0 -4.423937833E+01  6.598210326E+01 -2.053927010E+02  2.532230680E+02  1.250000000E+02  0.00000E+00  9.000E+00
      21     1     1     2   501   512  2.042613981E+01  7.187105133E+01  6.159644397E+00  7.497077047E+01  1.261592536E-06  0.00000E+00  9.000E+00
#rwgt            1           1   4.9610738287612206E-002           9      426671           0
</event>
<event>
      5   9999  3.79277E-02  2.33360E+02 -1.00000E+00  1.09262E-01
      21    -1     0     0   502   511  0.000000000E+00  0.000000000E+00  2.820368819E+02  2.820368819E+02  0.000000000E+00  0.00000E+00  9.000E+00
      21    -1     0     0   501   502  0.000000000E+00  0.000000000E+00 -8.311342133E+02  8.311342133E+02  0.000000000E+00  0.00000E+00  9.000E+00
      25     1     1     2     0     0 -1.285657988E+02  3.820342083E+02 -1.728687264E+02  4.560569016E+02  1.250000000E+02  0.00000E+00  9.000E+00
      25     1     1     2     0     0  1.696506843E+02 -1.523196497E+02 -3.284531479E+02  4.189141925E+02  1.250000000E+02  0.00000E+00  9.000E+00
      21     1     1     2   501   511 -4.108488550E+01 -2.297145586E+02 -4.777545719E+01  2.382000012E+02  1.907348633E-06  0.00000E+00  9.000E+00
#rwgt            1           1  0.15255340198069400                9      426791           0
</event>
<event>
      5   9999  3.79277E-02  3.06657E+01 -1.00000E+00  1.52381E-01
      21    -1     0     0   502   501  0.000000000E+00  0.000000000E+00  1.375408113E+03  1.375408113E+03  0.000000000E+00  0.00000E+00  9.000E+00
      21    -1     0     0   512   502  0.000000000E+00  0.000000000E+00 -3.180430925E+02  3.180430925E+02  0.000000000E+00  0.00000E+00  9.000E+00
      25     1     1     2     0     0  5.460668758E+02 -1.182540282E+02  2.631205992E+02  6.301035611E+02  1.250000000E+02  0.00000E+00  9.000E+00
      25     1     1     2     0     0 -5.231932805E+02  1.386791050E+02  8.407182199E+02  1.007668213E+03  1.250000000E+02  0.00000E+00  9.000E+00
      21     1     1     2   512   501 -2.287359527E+01 -2.042507676E+01 -4.647379838E+01  5.567943119E+01  1.168007728E-06  0.00000E+00  9.000E+00
#rwgt            1           1   3.9766134107759595E-002           9      426835           0
</event>
<event>
      5   9999  3.79277E-02  9.24755E+01 -1.00000E+00  1.25375E-01
      21    -1     0     0   502   511  0.000000000E+00  0.000000000E+00  1.624967910E+03  1.624967910E+03  0.000000000E+00  0.00000E+00  9.000E+00
      21    -1     0     0   501   502  0.000000000E+00  0.000000000E+00 -5.833778868E+01  5.833778868E+01  0.000000000E+00  0.00000E+00  9.000E+00
      25     1     1     2     0     0  5.833372513E+01  1.681483641E+02  6.588566434E+02  6.938254625E+02  1.250000000E+02  0.00000E+00  9.000E+00
      25     1     1     2     0     0 -1.441396142E+02 -1.336655625E+02  3.275936746E+02  4.019767738E+02  1.250000000E+02  0.00000E+00  9.000E+00
      21     1     1     2   501   511  8.580588909E+01 -3.448280159E+01  5.801798033E+02  5.875034624E+02  1.078959322E-05  0.00000E+00  9.000E+00
#rwgt            1           1   4.2934124012086045E-002           9      427046           0
</event>
<event>
      5   9999  3.79277E-02  5.80601E+01 -1.00000E+00  1.35471E-01
      21    -1     0     0   502   501  0.000000000E+00  0.000000000E+00  1.556281632E+02  1.556281632E+02  0.000000000E+00  0.00000E+00  9.000E+00
      21    -1     0     0   501   512  0.000000000E+00  0.000000000E+00 -2.703892235E+02  2.703892235E+02  0.000000000E+00  0.00000E+00  9.000E+00
      25     1     1     2     0     0  1.511172625E+01  1.495843463E+02 -4.128087566E+01  1.998323088E+02  1.250000000E+02  0.00000E+00  9.000E+00
      25     1     1     2     0     0 -1.682142402E+01 -9.154940866E+01 -5.275235604E+01  1.645359098E+02  1.250000000E+02  0.00000E+00  9.000E+00
      21     1     1     2   502   512  1.709697775E+00 -5.803493766E+01 -2.072782863E+01  6.164916817E+01  1.039242493E-06  0.00000E+00  9.000E+00
#rwgt            1           1   4.1174954514860786E-002           9      427133           0
</event>
<event>
      5   9999  3.79277E-02  1.96973E+01 -1.00000E+00  1.66917E-01
      21    -1     0     0   502   511  0.000000000E+00  0.000000000E+00  3.907361978E+02  3.907361978E+02  0.000000000E+00  0.00000E+00  9.000E+00
      21    -1     0     0   501   502  0.000000000E+00  0.000000000E+00 -2.248610551E+02  2.248610551E+02  0.000000000E+00  0.00000E+00  9.000E+00
      25     1     1     2     0     0 -6.380433621E+01  1.313786111E+02 -1.374101571E+02  2.363004106E+02  1.250000000E+02  0.00000E+00  9.000E+00
      25     1     1     2     0     0  7.423597033E+01 -1.480867929E+02  2.839021367E+02  3.516619126E+02  1.250000000E+02  0.00000E+00  9.000E+00
      21     1     1     2   501   511 -1.043163412E+01  1.670818188E+01  1.938316306E+01  2.763492975E+01  4.768371582E-07  0.00000E+00  9.000E+00
#rwgt            1           1   4.5618219700948245E-002           9      427282           0
</event>
<event>
      5   9999  3.79277E-02  6.48549E+01 -1.00000E+00  1.32922E-01
      21    -1     0     0   502   501  0.000000000E+00  0.000000000E+00  5.737803604E+01  5.737803604E+01  0.000000000E+00  0.00000E+00  9.000E+00
       2    -1     0     0   501     0  0.000000000E+00  0.000000000E+00 -1.995120712E+03  1.995120712E+03  0.000000000E+00  0.00000E+00  9.000E+00
      25     1     1     2     0     0 -4.306576839E+01  1.563665907E+02 -2.995516366E+02  3.628516971E+02  1.250000000E+02  0.00000E+00  9.000E+00
      25     1     1     2     0     0 -2.164139659E+01 -1.607421361E+02 -3.964244752E+02  4.461880197E+02  1.250000000E+02  0.00000E+00  9.000E+00
       2     1     1     2   502     0  6.470716499E+01  4.375545331E+00 -1.241766564E+03  1.243459031E+03  1.525878906E-05  0.00000E+00  9.000E+00
#rwgt            1           1   2.6418832172921465E-002           9      427505           0
</event>
<event>
      5   9999  3.79277E-02  6.93386E+00 -1.00000E+00  2.16138E-01
      21    -1     0     0   502   501  0.000000000E+00  0.000000000E+00  5.524154512E+01  5.524154512E+01  0.000000000E+00  0.00000E+00  9.000E+00
      21    -1     0     0   501   511  0.000000000E+00  0.000000000E+00 -1.111162050E+03  1.111162050E+03  0.000000000E+00  0.00000E+00  9.000E+00
      25     1     1     2     0     0 -2.543540020E+01  1.133311180E+02 -1.557021388E+02  2.309957963E+02  1.250000000E+02  0.00000E+00  9.000E+00
      25     1     1     2     0     0  2.378873470E+01 -1.200666147E+02 -4.179346490E+02  4.530742397E+02  1.250000000E+02  0.00000E+00  9.000E+00
      21     1     1     2   502   511  1.646665500E+00  6.735496674E+00 -4.822837172E+02  4.823335591E+02  0.000000000E+00  0.00000E+00  9.000E+00
#rwgt            1           1   3.8832965683859716E-002           9      427596           0
</event>
<event>
      5   9999 -3.79277E-02  8.03970E+01 -1.00000E+00  1.28246E-01
      21    -1     0     0   502   512  0.000000000E+00  0.000000000E+00  3.539319775E+02  3.539319775E+02  0.000000000E+00  0.00000E+00  9.000E+00
      21    -1     0     0   501   502  0.000000000E+00  0.000000000E+00 -7.687974875E+02  7.687974875E+02  0.000000000E+00  0.00000E+00  9.000E+00
      25     1     1     2     0     0  9.486901801E+01  2.574259631E+02 -3.802592160E+02  4.852734573E+02  1.250000000E+02  0.00000E+00  9.000E+00
      25     1     1     2     0     0 -1.496623841E+02 -3.162593378E+02 -2.225097587E+02  4.330755023E+02  1.250000000E+02  0.00000E+00  9.000E+00
      21     1     1     2   501   512  5.479336605E+01  5.883337478E+01  1.879034647E+02  2.043805054E+02  2.697398305E-06  0.00000E+00  9.000E+00
#rwgt            1           1 -0.49174619720959545                9      427930           0
</event>
<event>
      5   9999  3.79277E-02  5.59665E+01 -1.00000E+00  1.36339E-01
      21    -1     0     0   502   501  0.000000000E+00  0.000000000E+00  1.477346880E+02  1.477346880E+02  0.000000000E+00  0.00000E+00  9.000E+00
      21    -1     0     0   511   502  0.000000000E+00  0.000000000E+00 -7.076935594E+02  7.076935594E+02  0.000000000E+00  0.00000E+00  9.000E+00
      25     1     1     2     0     0  8.265208970E+01  1.795304717E+02 -1.323918441E+01  2.342281670E+02  1.250000000E+02  0.00000E+00  9.000E+00
      25     1     1     2     0     0 -1.313111220E+02 -1.518800623E+02 -4.709708716E+02  5.270187150E+02  1.250000000E+02  0.00000E+00  9.000E+00
      21     1     1     2   511   501  4.865903233E+01 -2.765040940E+01 -7.574881536E+01  9.418136544E+01  1.348699152E-06  0.00000E+00  9.000E+00
#rwgt            1           1   3.7753200340094946E-002           9      428033           0
</event>
<event>
      5   9999  3.79277E-02  7.48607E+01 -1.00000E+00  1.29761E-01
      21    -1     0     0   512   501  0.000000000E+00  0.000000000E+00  1.319728313E+02  1.319728313E+02  0.000000000E+00  0.00000E+00  9.000E+00
      21    -1     0     0   501   502  0.000000000E+00  0.000000000E+00 -3.137445662E+02  3.137445662E+02  0.000000000E+00  0.00000E+00  9.000E+00
      25     1     1     2     0     0  2.764133152E+01  3.103076753E+01 -8.475339106E+01  1.566368061E+02  1.250000000E+02  0.00000E+00  9.000E+00
      25     1     1     2     0     0 -8.930047139E+01 -7.348397575E+01 -1.227494516E+02  2.099211679E+02  1.250000000E+02  0.00000E+00  9.000E+00
      21     1     1     2   512   502  6.165913987E+01  4.245320821E+01  2.573110777E+01  7.915942347E+01  5.840038640E-07  0.00000E+00  9.000E+00
#rwgt            1           1   6.8312668226905141E-002           9      428207           0
</event>
<event>
      5   9999  3.79277E-02  5.06414E+01 -1.00000E+00  1.38760E-01
      21    -1     0     0   502   501  0.000000000E+00  0.000000000E+00  1.207315261E+02  1.207315261E+02  0.000000000E+00  0.00000E+00  9.000E+00
       2    -1     0     0   501     0  0.000000000E+00  0.000000000E+00 -1.827184846E+03  1.827184846E+03  0.000000000E+00  0.00000E+00  9.000E+00
      25     1     1     2     0     0  2.334927066E+02 -1.506740129E+02 -5.279477207E+02  6.095697646E+02  1.250000000E+02  0.00000E+00  9.000E+00
      25     1     1     2     0     0 -2.020257582E+02  1.903525275E+02 -2.130631766E+02  3.715769219E+02  1.250000000E+02  0.00000E+00  9.000E+00
       2     1     1     2   502     0 -3.146694839E+01 -3.967851462E+01 -9.654424222E+02  9.667696851E+02  1.525878906E-05  0.00000E+00  9.000E+00
#rwgt            1           1   2.4539276164231905E-002           9      428317           0
</event>
<event>
      5   9999  3.79277E-02  4.18420E+01 -1.00000E+00  1.43638E-01
      21    -1     0     0   502   501  0.000000000E+00  0.000000000E+00  2.106703096E+02  2.106703096E+02  0.000000000E+00  0.00000E+00  9.000E+00
      21    -1     0     0   511   502  0.000000000E+00  0.000000000E+00 -3.736567794E+02  3.736567794E+02  0.000000000E+00  0.00000E+00  9.000E+00
      25     1     1     2     0     0  1.759675459E+02  7.757704965E+01  3.712480464E+01  2.323489336E+02  1.250000000E+02  0.00000E+00  9.000E+00
      25     1     1     2     0     0 -1.547888123E+02 -1.136632547E+02 -1.133199732E+02  2.556273229E+02  1.250000000E+02  0.00000E+00  9.000E+00
      21     1     1     2   511   501 -2.117873355E+01  3.608620500E+01 -8.679130121E+01  9.635083244E+01  1.651812370E-06  0.00000E+00  9.000E+00
#rwgt            1           1   3.7860572099376225E-002           9      428682           0
</event>
<event>
      5   9999  3.79277E-02  1.33685E+01 -1.00000E+00  1.82228E-01
      21    -1     0     0   512   501  0.000000000E+00  0.000000000E+00  1.200964691E+03  1.200964691E+03  0.000000000E+00  0.00000E+00  9.000E+00
      21    -1     0     0   501   502  0.000000000E+00  0.000000000E+00 -9.546578292E+01  9.546578292E+01  0.000000000E+00  0.00000E+00  9.000E+00
      25     1     1     2     0     0  4.635386835E+01  2.044640784E+02  3.555784215E+02  4.312948578E+02  1.250000000E+02  0.00000E+00  9.000E+00
      25     1     1     2     0     0 -3.463805132E+01 -1.980253095E+02  1.859986359E+02  3.010553277E+02  1.250000000E+02  0.00000E+00  9.000E+00
      21     1     1     2   512   502 -1.171581703E+01 -6.438768919E+00  5.639218505E+02  5.640802882E+02  7.629394531E-06  0.00000E+00  9.000E+00
#rwgt            1           1  0.12764047756919597                9      428756           0
</event>
<event>
      5   9999  3.79277E-02  2.39870E+02 -1.00000E+00  1.08848E-01
      21    -1     0     0   502   501  0.000000000E+00  0.000000000E+00  1.131488298E+03  1.131488298E+03  0.000000000E+00  0.00000E+00  9.000E+00
      21    -1     0     0   501   511  0.000000000E+00  0.000000000E+00 -2.510997997E+02  2.510997997E+02  0.000000000E+00  0.00000E+00  9.000E+00
      25     1     1     2     0     0  9.951118099E+01 -2.307106900E+02  2.672989882E+02  3.875611522E+02  1.250000000E+02  0.00000E+00  9.000E+00
      25     1     1     2     0     0 -2.592474611E+02  4.096577296E+02  5.565180969E+02  7.485760440E+02  1.250000000E+02  0.00000E+00  9.000E+00
      21     1     1     2   502   511  1.597362801E+02 -1.789470396E+02  5.657141366E+01  2.464509019E+02  5.601568281E-06  0.00000E+00  9.000E+00
#rwgt            2          11   2.1720190500077057E-003           9      428999           0
</event>
<event>
      5   9999  3.79277E-02  2.32779E+01 -1.00000E+00  1.61108E-01
      21    -1     0     0   512   501  0.000000000E+00  0.000000000E+00  1.258188134E+02  1.258188134E+02  0.000000000E+00  0.00000E+00  9.000E+00
      21    -1     0     0   501   502  0.000000000E+00  0.000000000E+00 -2.478033141E+02  2.478033141E+02  0.000000000E+00  0.00000E+00  9.000E+00
      25     1     1     2     0     0 -2.432615458E+00 -7.141046824E+01 -1.006645207E+02  1.756807284E+02  1.250000000E+02  0.00000E+00  9.000E+00
      25     1     1     2     0     0  5.482314338E+00  4.833317166E+01 -6.454041686E+01  1.488509881E+02  1.250000000E+02  0.00000E+00  9.000E+00
      21     1     1     2   512   502 -3.049698880E+00  2.307729658E+01  4.322043692E+01  4.909041096E+01  4.768371582E-07  0.00000E+00  9.000E+00
#rwgt            1           1   3.4387928848306763E-002           9      429034           0
</event>
<event>
      5   9999  3.79277E-02  1.25958E+02 -1.00000E+00  1.19482E-01
      21    -1     0     0   511   501  0.000000000E+00  0.000000000E+00  4.416928773E+02  4.416928773E+02  0.000000000E+00  0.00000E+00  9.000E+00
      21    -1     0     0   501   502  0.000000000E+00  0.000000000E+00 -4.775979758E+02  4.775979758E+02  0.000000000E+00  0.00000E+00  9.000E+00
      25     1     1     2     0     0  1.944305500E+02 -1.621598775E+02 -1.534579910E+02  3.213618204E+02  1.250000000E+02  0.00000E+00  9.000E+00
      25     1     1     2     0     0 -1.259819401E+02  5.642289042E+01 -1.897177208E+02  2.658435732E+02  1.250000000E+02  0.00000E+00  9.000E+00
      21     1     1     2   511   502 -6.844860985E+01  1.057369870E+02  3.072706133E+02  3.320854595E+02  0.000000000E+00  0.00000E+00  9.000E+00
#rwgt            1           1   4.6051604941213589E-002           9      429487           0
</event>
<event>
      5   9999  3.79277E-02  5.38403E+01 -1.00000E+00  1.37266E-01
      21    -1     0     0   502   501  0.000000000E+00  0.000000000E+00  3.282965002E+02  3.282965002E+02  0.000000000E+00  0.00000E+00  9.000E+00
      21    -1     0     0   512   502  0.000000000E+00  0.000000000E+00 -1.538852740E+02  1.538852740E+02  0.000000000E+00  0.00000E+00  9.000E+00
      25     1     1     2     0     0 -1.044654931E+02  4.884451577E+00  1.326629792E+01  1.635172522E+02  1.250000000E+02  0.00000E+00  9.000E+00
      25     1     1     2     0     0  1.582631267E+02 -7.026556807E+00  1.702987887E+02  2.640516374E+02  1.250000000E+02  0.00000E+00  9.000E+00
      21     1     1     2   512   501 -5.379763363E+01  2.142105230E+00 -9.153860485E+00  5.461288457E+01  1.130918620E-06  0.00000E+00  9.000E+00
#rwgt            1           1   3.5396656807162537E-002           9      429660           0
</event>
<event>
      5   9999  3.79277E-02  5.02659E+01 -1.00000E+00  1.38944E-01
      21    -1     0     0   502   501  0.000000000E+00  0.000000000E+00  8.885355059E+01  8.885355059E+01  0.000000000E+00  0.00000E+00  9.000E+00
      21    -1     0     0   501   511  0.000000000E+00  0.000000000E+00 -1.672338348E+03  1.672338348E+03  0.000000000E+00  0.00000E+00  9.000E+00
      25     1     1     2     0     0  2.091806522E+02  2.018875934E+02 -3.237530263E+02  4.527208496E+02  1.250000000E+02  0.00000E+00  9.000E+00
      25     1     1     2     0     0 -2.103965743E+02 -1.516364366E+02 -8.917421691E+02  9.370642580E+02  1.250000000E+02  0.00000E+00  9.000E+00
      21     1     1     2   502   511  1.215922098E+00 -5.025115678E+01 -3.679896023E+02  3.714067913E+02  5.394796609E-06  0.00000E+00  9.000E+00
#rwgt            1           1   5.1039667057480295E-002           9      429835           0
</event>
<event>
      5   9999  3.79277E-02  8.26535E+01 -1.00000E+00  1.27667E-01
      21    -1     0     0   512   501  0.000000000E+00  0.000000000E+00  3.238704821E+02  3.238704821E+02  0.000000000E+00  0.00000E+00  9.000E+00
      21    -1     0     0   501   502  0.000000000E+00  0.000000000E+00 -3.456553823E+02  3.456553823E+02  0.000000000E+00  0.00000E+00  9.000E+00
      25     1     1     2     0     0 -1.174291143E+02  3.784140756E+01 -2.506134997E+02  3.060289124E+02  1.250000000E+02  0.00000E+00  9.000E+00
      25     1     1     2     0     0  7.811103783E+01  3.486134115E+01  3.892617616E+01  1.563870024E+02  1.250000000E+02  0.00000E+00  9.000E+00
      21     1     1     2   512   502  3.931807642E+01 -7.270274871E+01  1.899024233E+02  2.071099495E+02  2.697398305E-06  0.00000E+00  9.000E+00
#rwgt            1           1   4.5730089219478187E-002           9      429999           0
</event>
<event>
      5   9999  3.79277E-02  2.01580E+01 -1.00000E+00  1.66088E-01
       1    -1     0     0   502     0  0.000000000E+00  0.000000000E+00  2.440409147E+02  2.440409147E+02  0.000000000E+00  0.00000E+00  9.000E+00
      21    -1     0     0   501   502  0.000000000E+00  0.000000000E+00 -1.764446585E+02  1.764446585E+02  0.000000000E+00  0.00000E+00  9.000E+00
      25     1     1     2     0     0 -3.743232319E+00  9.146819949E+01 -9.738448600E+01  1.830004957E+02  1.250000000E+02  0.00000E+00  9.000E+00
      25     1     1     2     0     0  1.318273468E+01 -7.365690168E+01  1.220355299E+02  1.900441901E+02  1.250000000E+02  0.00000E+00  9.000E+00
       1     1     1     2   501     0 -9.439502359E+00 -1.781129781E+01  4.294521237E+01  4.744088743E+01  4.768371582E-07  0.00000E+00  9.000E+00
#rwgt            1           1   4.3858273486563064E-002           9      430207           0
</event>
<event>
      5   9999  3.79277E-02  2.57882E+01 -1.00000E+00  1.57748E-01
      21    -1     0     0   511   501  0.000000000E+00  0.000000000E+00  7.781729044E+01  7.781729044E+01  0.000000000E+00  0.00000E+00  9.000E+00
      21    -1     0     0   501   502  0.000000000E+00  0.000000000E+00 -9.697249158E+02  9.697249158E+02  0.000000000E+00  0.00000E+00  9.000E+00
      25     1     1     2     0     0  1.165818930E+02 -1.642450414E+02 -2.623829283E+02  3.536065221E+02  1.250000000E+02  0.00000E+00  9.000E+00
      25     1     1     2     0     0 -1.165083734E+02  1.900331505E+02 -6.106722992E+02  6.619912812E+02  1.250000000E+02  0.00000E+00  9.000E+00
      21     1     1     2   511   502 -7.351963429E-02 -2.578810911E+01 -1.885239788E+01  3.194440300E+01  2.384185791E-07  0.00000E+00  9.000E+00
#rwgt            1           1   4.0135187683683307E-002           9      430387           0
</event>
<event>
      5   9999  3.79277E-02  3.15197E+01 -1.00000E+00  1.51564E-01
      21    -1     0     0   502   512  0.000000000E+00  0.000000000E+00  1.495721121E+02  1.495721121E+02  0.000000000E+00  0.00000E+00  9.000E+00
      21    -1     0     0   501   502  0.000000000E+00  0.000000000E+00 -2.370105525E+03  2.370105525E+03  0.000000000E+00  0.00000E+00  9.000E+00
      25     1     1     2     0     0 -4.387944970E+01  6.117580738E+01 -2.265037453E+03  2.269732925E+03  1.250000000E+02  0.00000E+00  9.000E+00
      25     1     1     2     0     0  2.839836009E+01 -8.863175533E+01 -3.903484606E+01  1.606573189E+02  1.250000000E+02  0.00000E+00  9.000E+00
      21     1     1     2   501   512  1.548108961E+01  2.745594795E+01  8.353888602E+01  8.928739379E+01  1.907348633E-06  0.00000E+00  9.000E+00
#rwgt            1           1  0.19912856514780239                9      430524           0
</event>
<event>
      5   9999  3.79277E-02  9.54415E+00 -1.00000E+00  1.98129E-01
      21    -1     0     0   502   501  0.000000000E+00  0.000000000E+00  2.175500335E+01  2.175500335E+01  0.000000000E+00  0.00000E+00  9.000E+00
      21    -1     0     0   511   502  0.000000000E+00  0.000000000E+00 -2.230677665E+03  2.230677665E+03  0.000000000E+00  0.00000E+00  9.000E+00
      25     1     1     2     0     0  9.414433849E+01  8.765752278E+01 -6.874763740E+02  7.104898047E+02  1.250000000E+02  0.00000E+00  9.000E+00
      25     1     1     2     0     0 -9.221692961E+01 -9.700502553E+01 -8.105083785E+02  8.309408936E+02  1.250000000E+02  0.00000E+00  9.000E+00
      21     1     1     2   511   501 -1.927408877E+00  9.347502749E+00 -7.109379096E+02  7.110019704E+02  0.000000000E+00  0.00000E+00  9.000E+00
#rwgt            1           1   3.7488216621249772E-002           9      430703           0
</event>
<event>
      5   9999  3.79277E-02  5.03687E+01 -1.00000E+00  1.38894E-01
      21    -1     0     0   502   501  0.000000000E+00  0.000000000E+00  2.226037220E+02  2.226037220E+02  0.000000000E+00  0.00000E+00  9.000E+00
       1    -1     0     0   501     0  0.000000000E+00  0.000000000E+00 -2.546297043E+03  2.546297043E+03  0.000000000E+00  0.00000E+00  9.000E+00
      25     1     1     2     0     0  1.282849524E+02 -5.588352953E+01  2.525967350E+01  1.893226056E+02  1.250000000E+02  0.00000E+00  9.000E+00
      25     1     1     2     0     0 -1.765913429E+02  7.014889544E+01  2.627510599E+00  2.274582901E+02  1.250000000E+02  0.00000E+00  9.000E+00
       1     1     1     2   502     0  4.830639054E+01 -1.426536590E+01 -2.351580505E+03  2.352119869E+03  0.000000000E+00  0.00000E+00  9.000E+00
#rwgt            1           1   2.6985136316118027E-002           9      430912           0
</event>
<event>
      5   9999  3.79277E-02  5.55950E+01 -1.00000E+00  1.36497E-01
      21    -1     0     0   511   501  0.000000000E+00  0.000000000E+00  1.159002482E+02  1.159002482E+02  0.000000000E+00  0.00000E+00  9.000E+00
      21    -1     0     0   501   502  0.000000000E+00  0.000000000E+00 -7.330066685E+02  7.330066685E+02  0.000000000E+00  0.00000E+00  9.000E+00
      25     1     1     2     0     0 -2.248389625E+02  5.112503435E+01 -2.177633740E+02  3.408991277E+02  1.250000000E+02  0.00000E+00  9.000E+00
      25     1     1     2     0     0  1.947036183E+02 -4.405995038E+00 -3.872263239E+02  4.511076786E+02  1.250000000E+02  0.00000E+00  9.000E+00
      21     1     1     2   511   502  3.013534422E+01 -4.671903932E+01 -1.211672243E+01  5.690011044E+01  2.920019320E-07  0.00000E+00  9.000E+00
#rwgt            1           1   3.4771016634883606E-002           9      431037           0
</event>
<event>
      5   9999  3.79277E-02  1.20150E+02 -1.00000E+00  1.20345E-01
      21    -1     0     0   512   501  0.000000000E+00  0.000000000E+00  3.222060958E+02  3.222060958E+02  0.000000000E+00  0.00000E+00  9.000E+00
      21    -1     0     0   501   502  0.000000000E+00  0.000000000E+00 -4.353642477E+02  4.353642477E+02  0.000000000E+00  0.00000E+00  9.000E+00
      25     1     1     2     0     0  1.162278900E+02 -1.062571663E+01  8.093416647E+01  1.892013942E+02  1.250000000E+02  0.00000E+00  9.000E+00
      25     1     1     2     0     0  3.049557025E+00 -3.828039752E+00 -3.499146405E+02  3.716035648E+02  1.250000000E+02  0.00000E+00  9.000E+00
      21     1     1     2   512   502 -1.192774470E+02  1.445375638E+01  1.558223222E+02  1.967653845E+02  0.000000000E+00  0.00000E+00  9.000E+00
#rwgt            1           1   2.1182569667341097E-002           9      431213           0
</event>
<event>
      5   9999  3.79277E-02  3.56366E+01 -1.00000E+00  1.48021E-01
      21    -1     0     0   502   501  0.000000000E+00  0.000000000E+00  6.486631051E+02  6.486631051E+02  0.000000000E+00  0.00000E+00  9.000E+00
      21    -1     0     0   511   502  0.000000000E+00  0.000000000E+00 -2.380396885E+02  2.380396885E+02  0.000000000E+00  0.00000E+00  9.000E+00
      25     1     1     2     0     0 -6.529515673E+01  2.357242204E+02  1.239033232E+02  3.013410014E+02  1.250000000E+02  0.00000E+00  9.000E+00
      25     1     1     2     0     0  3.422041683E+01 -2.531691174E+02  3.862374989E+02  4.796561732E+02  1.250000000E+02  0.00000E+00  9.000E+00
      21     1     1     2   511   501  3.107473990E+01  1.744489693E+01 -9.951740555E+01  1.057056190E+02  0.000000000E+00  0.00000E+00  9.000E+00
#rwgt            1           1   2.9487034410511526E-002           9      431557           0
</event>
<event>
      5   9999  3.79277E-02  4.27511E+01 -1.00000E+00  1.43071E-01
      21    -1     0     0   502   501  0.000000000E+00  0.000000000E+00  1.546748474E+03  1.546748474E+03  0.000000000E+00  0.00000E+00  9.000E+00
      21    -1     0     0   512   502  0.000000000E+00  0.000000000E+00 -1.031634803E+02  1.031634803E+02  0.000000000E+00  0.00000E+00  9.000E+00
      25     1     1     2     0     0  1.307385916E+02 -4.587239323E+01  1.222323168E+03  1.236485254E+03  1.250000000E+02  0.00000E+00  9.000E+00
      25     1     1     2     0     0 -1.364622069E+02  3.506148766E+00  2.831069978E+02  3.382436980E+02  1.250000000E+02  0.00000E+00  9.000E+00
      21     1     1     2   512   501  5.723615287E+00  4.236624446E+01 -6.184517252E+01  7.518300210E+01  1.907348633E-06  0.00000E+00  9.000E+00
#rwgt            1           1   6.4766265748662302E-002           9      431838           0
</event>
<event>
      5   9999  3.79277E-02  6.91215E+01 -1.00000E+00  1.31499E-01
      21    -1     0     0   502   511  0.000000000E+00  0.000000000E+00  4.678192621E+02  4.678192621E+02  0.000000000E+00  0.00000E+00  9.000E+00
      21    -1     0     0   501   502  0.000000000E+00  0.000000000E+00 -2.673631970E+02  2.673631970E+02  0.000000000E+00  0.00000E+00  9.000E+00
      25     1     1     2     0     0  2.657840195E+02 -2.536190763E+01 -1.430692612E+01  2.951509097E+02  1.250000000E+02  0.00000E+00  9.000E+00
      25     1     1     2     0     0 -2.722628448E+02  9.417908156E+01  1.640981486E+02  3.543302957E+02  1.250000000E+02  0.00000E+00  9.000E+00
      21     1     1     2   501   511  6.478825336E+00 -6.881717392E+01  5.066484258E+01  8.570125365E+01  6.743495762E-07  0.00000E+00  9.000E+00
#rwgt            1           1   3.1395120020015786E-002           9      431986           0
</event>
<event>
      5   9999  3.79277E-02  8.18445E+01 -1.00000E+00  1.27872E-01
      21    -1     0     0   512   501  0.000000000E+00  0.000000000E+00  1.290240479E+02  1.290240479E+02  0.000000000E+00  0.00000E+00  9.000E+00
      21    -1     0     0   501   502  0.000000000E+00  0.000000000E+00 -1.268871553E+03  1.268871553E+03  0.000000000E+00  0.00000E+00  9.000E+00
      25     1     1     2     0     0 -1.049301008E+02 -1.742568182E+01 -6.553829505E+01  1.767321379E+02  1.250000000E+02  0.00000E+00  9.000E+00
      25     1     1     2     0     0  1.428627385E+02  8.994906456E+01 -1.111564347E+03  1.131238654E+03  1.250000000E+02  0.00000E+00  9.000E+00
      21     1     1     2   512   502 -3.793263778E+01 -7.252338274E+01  3.725513644E+01  8.992480884E+01  9.536743164E-07  0.00000E+00  9.000E+00
#rwgt            2          11   1.7852037397378454E-003           9      432166           0
</event>
<event>
      5   9999  3.79277E-02  1.75842E+01 -1.00000E+00  1.71118E-01
      21    -1     0     0   502   501  0.000000000E+00  0.000000000E+00  2.015803142E+02  2.015803142E+02  0.000000000E+00  0.00000E+00  9.000E+00
      21    -1     0     0   511   502  0.000000000E+00  0.000000000E+00 -6.375284561E+02  6.375284561E+02  0.000000000E+00  0.00000E+00  9.000E+00
      25     1     1     2     0     0  1.118723362E+02 -6.385520218E+01 -5.516006487E+02  5.800699803E+02  1.250000000E+02  0.00000E+00  9.000E+00
      25     1     1     2     0     0 -1.215575194E+02  4.917864702E+01  1.400363884E+02  2.289758938E+02  1.250000000E+02  0.00000E+00  9.000E+00
      21     1     1     2   511   501  9.685183202E+00  1.467655516E+01 -2.438388165E+01  3.006289622E+01  5.840038640E-07  0.00000E+00  9.000E+00
#rwgt            1           1   3.4001206606174540E-002           9      432186           0
</event>
<event>
      5   9999  4.06760E-02  8.80758E+01 -1.00000E+00  1.26360E-01
      21    -1     0     0   502   512  0.000000000E+00  0.000000000E+00  1.216663131E+03  1.216663131E+03  0.000000000E+00  0.00000E+00  9.000E+00
      21    -1     0     0   501   502  0.000000000E+00  0.000000000E+00 -1.492797474E+02  1.492797474E+02  0.000000000E+00  0.00000E+00  9.000E+00
      25     1     1     2     0     0  8.890601786E+01  2.012104405E+02  1.823503135E+02  3.118758699E+02  1.250000000E+02  0.00000E+00  9.000E+00
      25     1     1     2     0     0 -5.053056041E+01 -1.219345080E+02  1.811567334E+01  1.826869984E+02  1.250000000E+02  0.00000E+00  9.000E+00
      21     1     1     2   501   512 -3.837545746E+01 -7.927593254E+01  8.669173969E+02  8.713800102E+02  1.525878906E-05  0.00000E+00  9.000E+00
#rwgt            1           1  0.42145517618443978                9      432465           0
</event>
<event>
      5   9999  3.79277E-02  8.03504E+01 -1.00000E+00  1.28258E-01
      21    -1     0     0   502   501  0.000000000E+00  0.000000000E+00  2.935545456E+02  2.935545456E+02  0.000000000E+00  0.00000E+00  9.000E+00
      21    -1     0     0   501   511  0.000000000E+00  0.000000000E+00 -4.748963078E+02  4.748963078E+02  0.000000000E+00  0.00000E+00  9.000E+00
      25     1     1     2     0     0 -1.328518929E+02 -1.461774237E+02  1.051125533E+02  2.563027770E+02  1.250000000E+02  0.00000E+00  9.000E+00
      25     1     1     2     0     0  1.425112610E+02  6.640974866E+01  1.379517749E+01  2.013331099E+02  1.250000000E+02  0.00000E+00  9.000E+00
      21     1     1     2   502   511 -9.659368058E+00  7.976767507E+01 -3.002494929E+02  3.108149664E+02  3.814697266E-06  0.00000E+00  9.000E+00
#rwgt            1           1   3.4824872812260169E-002           9      432657           0
</event>
<event>
      5   9999  3.79277E-02  4.23290E+02 -1.00000E+00  1.00951E-01
       2    -1     0     0   502     0  0.000000000E+00  0.000000000E+00  2.859329493E+03  2.859329493E+03  0.000000000E+00  0.00000E+00  9.000E+00
      21    -1     0     0   501   502  0.000000000E+00  0.000000000E+00 -2.535107423E+02  2.535107423E+02  0.000000000E+00  0.00000E+00  9.000E+00
      25     1     1     2     0     0 -2.739214788E+02 -7.507308546E+01  3.112027001E+02  4.394781738E+02  1.250000000E+02  0.00000E+00  9.000E+00
      25     1     1     2     0     0  6.923655198E+02  1.389391584E+02  6.261243171E+02  9.520140562E+02  1.250000000E+02  0.00000E+00  9.000E+00
       2     1     1     2   501     0 -4.184440411E+02 -6.386607297E+01  1.668491734E+03  1.721348006E+03  0.000000000E+00  0.00000E+00  9.000E+00
#rwgt            1           1  0.39917505713961154                9      432711           0
</event>
<event>
      5   9999  3.79277E-02  1.93736E+02 -1.00000E+00  1.12154E-01
      21    -1     0     0   502   501  0.000000000E+00  0.000000000E+00  9.271020453E+02  9.271020453E+02  0.000000000E+00  0.00000E+00  9.000E+00
      21    -1     0     0   501   511  0.000000000E+00  0.000000000E+00 -2.976459552E+02  2.976459552E+02  0.000000000E+00  0.00000E+00  9.000E+00
      25     1     1     2     0     0  1.438346723E+02  1.251374553E+02  6.632859522E+02  7.013708364E+02  1.250000000E+02  0.00000E+00  9.000E+00
      25     1     1     2     0     0 -7.176161657E+01  5.469287477E+01  1.785589442E+02  2.359011164E+02  1.250000000E+02  0.00000E+00  9.000E+00
      21     1     1     2   502   511 -7.207305574E+01 -1.798303301E+02 -2.123888063E+02  2.874760477E+02  6.031565972E-06  0.00000E+00  9.000E+00
#rwgt            2          11   5.0088752550720090E-003           9      432778           0
</event>
<event>
      5   9999  3.79277E-02  2.91128E+01 -1.00000E+00  1.53951E-01
      21    -1     0     0   502   501  0.000000000E+00  0.000000000E+00  4.310477224E+01  4.310477224E+01  0.000000000E+00  0.00000E+00  9.000E+00
      21    -1     0     0   512   502  0.000000000E+00  0.000000000E+00 -1.061003831E+03  1.061003831E+03  0.000000000E+00  0.00000E+00  9.000E+00
      25     1     1     2     0     0  8.751967495E+01  9.562464331E+01 -3.846106126E+02  4.246811618E+02  1.250000000E+02  0.00000E+00  9.000E+00
      25     1     1     2     0     0 -6.424458394E+01 -1.131125606E+02 -3.418058062E+02  3.864945370E+02  1.250000000E+02  0.00000E+00  9.000E+00
      21     1     1     2   512   501 -2.327509101E+01  1.748791731E+01 -2.914826401E+02  2.929329046E+02  3.814697266E-06  0.00000E+00  9.000E+00
#rwgt            1           1   7.5586258930292499E-002           9      432828           0
</event>
<event>
      5   9999  3.79277E-02  1.43642E+02 -1.00000E+00  1.17144E-01
      21    -1     0     0   502   501  0.000000000E+00  0.000000000E+00  7.584196008E+02  7.584196008E+02  0.000000000E+00  0.00000E+00  9.000E+00
      21    -1     0     0   511   502  0.000000000E+00  0.000000000E+00 -1.109400031E+02  1.109400031E+02  0.000000000E+00  0.00000E+00  9.000E+00
      25     1     1     2     0     0 -3.295767817E+01 -2.370984559E+01  3.346580850E+01  1.356219955E+02  1.250000000E+02  0.00000E+00  9.000E+00
      25     1     1     2     0     0  1.410696052E+02 -7.086743545E+01  5.308489303E+02  5.677573546E+02  1.250000000E+02  0.00000E+00  9.000E+00
      21     1     1     2   511   501 -1.081119271E+02  9.457728103E+01  8.316485894E+01  1.659802537E+02  3.693564745E-06  0.00000E+00  9.000E+00
#rwgt            1           1   4.1519732824130767E-002           9      432995           0
</event>
<event>
      5   9999  3.79277E-02  3.54733E+01 -1.00000E+00  1.48151E-01
      21    -1     0     0   502   501  0.000000000E+00  0.000000000E+00  2.251350234E+02  2.251350234E+02  0.000000000E+00  0.00000E+00  9.000E+00
      21    -1     0     0   501   512  0.000000000E+00  0.000000000E+00 -2.065828747E+02  2.065828747E+02  0.000000000E+00  0.00000E+00  9.000E+00
      25     1     1     2     0     0 -1.183226538E+02 -1.927394326E+00  8.841116976E+01  1.935083982E+02  1.250000000E+02  0.00000E+00  9.000E+00
      25     1     1     2     0     0  1.442372904E+02 -2.229630366E+01 -6.150627691E+01  2.017660606E+02  1.250000000E+02  0.00000E+00  9.000E+00
      21     1     1     2   502   512 -2.591463658E+01  2.422369798E+01 -8.352744216E+00  3.644343931E+01  4.129530925E-07  0.00000E+00  9.000E+00
#rwgt            1           1   4.6721966342201188E-002           9      433050           0
</event>
<event>
      5   9999  3.79277E-02  1.70911E+02 -1.00000E+00  1.14191E-01
      21    -1     0     0   502   501  0.000000000E+00  0.000000000E+00  1.803622001E+02  1.803622001E+02  0.000000000E+00  0.00000E+00  9.000E+00
      21    -1     0     0   501   511  0.000000000E+00  0.000000000E+00 -8.093180870E+02  8.093180870E+02  0.000000000E+00  0.00000E+00  9.000E+00
      25     1     1     2     0     0 -3.865797713E+01 -1.754917913E+02 -2.275176930E+02  3.157231518E+02  1.250000000E+02  0.00000E+00  9.000E+00
      25     1     1     2     0     0  1.541662187E+02  3.014622809E+02 -2.110444200E+02  4.181046244E+02  1.250000000E+02  0.00000E+00  9.000E+00
      21     1     1     2   502   511 -1.155082415E+02 -1.259704896E+02 -1.903937739E+02  2.558525107E+02  2.697398305E-06  0.00000E+00  9.000E+00
#rwgt            1           1   4.3883319428623772E-002           9      433142           0
</event>
<event>
      5   9999  3.79277E-02  1.67688E+01 -1.00000E+00  1.72941E-01
       1    -1     0     0   502     0  0.000000000E+00  0.000000000E+00  1.206982301E+03  1.206982301E+03  0.000000000E+00  0.00000E+00  9.000E+00
      21    -1     0     0   501   502  0.000000000E+00  0.000000000E+00 -2.175157051E+02  2.175157051E+02  0.000000000E+00  0.00000E+00  9.000E+00
      25     1     1     2     0     0  7.739835533E+01 -1.874572587E+02  2.286069169E+02  3.301770005E+02  1.250000000E+02  0.00000E+00  9.000E+00
      25     1     1     2     0     0 -7.915255306E+01  1.707804212E+02 -9.005538507E+01  2.432407271E+02  1.250000000E+02  0.00000E+00  9.000E+00
       1     1     1     2   501     0  1.754197734E+00  1.667683748E+01  8.509150639E+02  8.510802782E+02  1.078959322E-05  0.00000E+00  9.000E+00
#rwgt            1           1   3.3331479490696758E-002           9      433195           0
</event>
<event>
      5   9999  3.79277E-02  1.77450E+01 -1.00000E+00  1.70773E-01
      21    -1     0     0   502   511  0.000000000E+00  0.000000000E+00  5.285100057E+01  5.285100057E+01  0.000000000E+00  0.00000E+00  9.000E+00
      21    -1     0     0   501   502  0.000000000E+00  0.000000000E+00 -1.435211154E+03  1.435211154E+03  0.000000000E+00  0.00000E+00  9.000E+00
      25     1     1     2     0     0 -9.630127369E+01 -1.764027753E+02 -3.407802290E+02  4.149072654E+02  1.250000000E+02  0.00000E+00  9.000E+00
      25     1     1     2     0     0  1.078542837E+02  1.629338036E+02 -1.015196277E+03  1.041358944E+03  1.250000000E+02  0.00000E+00  9.000E+00
      21     1     1     2   501   511 -1.155301000E+01  1.346897167E+01 -2.638364814E+01  3.179594514E+01  5.840038640E-07  0.00000E+00  9.000E+00
#rwgt            1           1   3.0418309909481137E-002           9      433515           0
</event>
<event>
      5   9999  3.79277E-02  1.18230E+02 -1.00000E+00  1.20643E-01
      21    -1     0     0   502   501  0.000000000E+00  0.000000000E+00  1.353774052E+02  1.353774052E+02  0.000000000E+00  0.00000E+00  9.000E+00
      21    -1     0     0   512   502  0.000000000E+00  0.000000000E+00 -9.025269483E+02  9.025269483E+02  0.000000000E+00  0.00000E+00  9.000E+00
      25     1     1     2     0     0  7.207469004E+01 -2.367888207E+02 -3.279964927E+02  4.295001814E+02  1.250000000E+02  0.00000E+00  9.000E+00
      25     1     1     2     0     0 -7.636997738E+01  1.186364770E+02 -4.078416819E+01  1.928609227E+02  1.250000000E+02  0.00000E+00  9.000E+00
      21     1     1     2   512   501  4.295287340E+00  1.181523437E+02 -3.983688822E+02  4.155432494E+02  0.000000000E+00  0.00000E+00  9.000E+00
#rwgt            1           1   4.3579054013481930E-002           9      433698           0
</event>
<event>
      5   9999  3.79277E-02  4.74162E+01 -1.00000E+00  1.40403E-01
      21    -1     0     0   502   501  0.000000000E+00  0.000000000E+00  1.296599626E+03  1.296599626E+03  0.000000000E+00  0.00000E+00  9.000E+00
      21    -1     0     0   501   511  0.000000000E+00  0.000000000E+00 -3.630273300E+01  3.630273300E+01  0.000000000E+00  0.00000E+00  9.000E+00
      25     1     1     2     0     0 -2.021870888E+01  8.127088493E+01  9.386087989E+02  9.505920420E+02  1.250000000E+02  0.00000E+00  9.000E+00
      25     1     1     2     0     0 -1.003283545E+01 -4.475863690E+01  3.036830220E+02  3.315906681E+02  1.250000000E+02  0.00000E+00  9.000E+00
      21     1     1     2   502   511  3.025154433E+01 -3.651224804E+01  1.800507262E+01  5.071964936E+01  1.768159506E-06  0.00000E+00  9.000E+00
#rwgt            1           1   4.8841250585639429E-002           9      433784           0
</event>
<event>
      5   9999  3.79277E-02  9.15059E+01 -1.00000E+00  1.25587E-01
      21    -1     0     0   502   501  0.000000000E+00  0.000000000E+00  6.653903577E+02  6.653903577E+02  0.000000000E+00  0.00000E+00  9.000E+00
      21    -1     0     0   501   512  0.000000000E+00  0.000000000E+00 -2.668422429E+02  2.668422429E+02  0.000000000E+00  0.00000E+00  9.000E+00
      25     1     1     2     0     0  1.827529487E+02 -7.966946582E+01  2.438459417E+02  3.388682743E+02  1.250000000E+02  0.00000E+00  9.000E+00
      25     1     1     2     0     0 -2.148555233E+02  1.653592865E+02  2.989788518E+02  4.225162048E+02  1.250000000E+02  0.00000E+00  9.000E+00
      21     1     1     2   502   512  3.210257453E+01 -8.568982069E+01 -1.442766785E+02  1.708481215E+02  1.907348633E-06  0.00000E+00  9.000E+00
#rwgt            1           1   6.1748159748805369E-002           9      433863           0
</event>
<event>
      5   9999  3.79277E-02  1.01792E+02 -1.00000E+00  1.23482E-01
      21    -1     0     0   502   501  0.000000000E+00  0.000000000E+00  6.304182995E+02  6.304182995E+02  0.000000000E+00  0.00000E+00  9.000E+00
       1    -1     0     0   501     0  0.000000000E+00  0.000000000E+00 -9.437125476E+02  9.437125476E+02  0.000000000E+00  0.00000E+00  9.000E+00
      25     1     1     2     0     0  1.048637528E+01  1.877593855E+02 -1.482108103E+02  2.701018238E+02  1.250000000E+02  0.00000E+00  9.000E+00
      25     1     1     2     0     0 -3.602078196E+01 -8.922159150E+01  5.548998944E+02  5.768855016E+02  1.250000000E+02  0.00000E+00  9.000E+00
       1     1     1     2   502     0  2.553440668E+01 -9.853779401E+01 -7.199833321E+02  7.271435218E+02  7.629394531E-06  0.00000E+00  9.000E+00
#rwgt            1           1   4.4492934498634944E-002           9      433979           0
</event>
<event>
      5   9999  3.79277E-02  6.16728E+00 -1.00000E+00  2.23633E-01
      21    -1     0     0   502   501  0.000000000E+00  0.000000000E+00  3.082116709E+02  3.082116709E+02  0.000000000E+00  0.00000E+00  9.000E+00
      21    -1     0     0   501   511  0.000000000E+00  0.000000000E+00 -1.449543995E+02  1.449543995E+02  0.000000000E+00  0.00000E+00  9.000E+00
      25     1     1     2     0     0  7.342877169E+01  1.118248468E+02 -2.096940778E+01  1.842859108E+02  1.250000000E+02  0.00000E+00  9.000E+00
      25     1     1     2     0     0 -7.926852895E+01 -1.138079053E+02  1.847815769E+02  2.626879711E+02  1.250000000E+02  0.00000E+00  9.000E+00
      21     1     1     2   502   511  5.839757258E+00  1.983058521E+00 -5.548976729E-01  6.192188414E+00  6.052880291E-08  0.00000E+00  9.000E+00
#rwgt            1           1  0.18589230301628223                9      434240           0
</event>
<event>
      5   9999  3.79277E-02  1.73992E+01 -1.00000E+00  1.71521E-01
      21    -1     0     0   512   501  0.000000000E+00  0.000000000E+00  1.121986223E+02  1.121986223E+02  0.000000000E+00  0.00000E+00  9.000E+00
      21    -1     0     0   501   502  0.000000000E+00  0.000000000E+00 -6.543871584E+02  6.543871584E+02  0.000000000E+00  0.00000E+00  9.000E+00
      25     1     1     2     0     0 -3.987700539E+01 -1.163153131E+01  3.744358073E+01  1.369397306E+02  1.250000000E+02  0.00000E+00  9.000E+00
      25     1     1     2     0     0  3.131903784E+01 -3.517533781E+00 -5.935358735E+02  6.073739279E+02  1.250000000E+02  0.00000E+00  9.000E+00
      21     1     1     2   512   502  8.557967551E+00  1.514906509E+01  1.390375657E+01  2.227212223E+01  4.129530925E-07  0.00000E+00  9.000E+00
#rwgt            1           1   3.0696275351178224E-002           9      434679           0
</event>
<event>
      5   9999  3.79277E-02  1.16072E+02 -1.00000E+00  1.20985E-01
      21    -1     0     0   502   501  0.000000000E+00  0.000000000E+00  1.926877621E+02  1.926877621E+02  0.000000000E+00  0.00000E+00  9.000E+00
       2    -1     0     0   501     0  0.000000000E+00  0.000000000E+00 -1.130265359E+03  1.130265359E+03  0.000000000E+00  0.00000E+00  9.000E+00
      25     1     1     2     0     0  1.459213587E+01  8.650263610E+01 -2.210284760E+02  2.686526078E+02  1.250000000E+02  0.00000E+00  9.000E+00
      25     1     1     2     0     0  1.013855554E+02 -8.181415598E+01  1.154104755E+02  2.142829084E+02  1.250000000E+02  0.00000E+00  9.000E+00
       2     1     1     2   502     0 -1.159776913E+02 -4.688480117E+00 -8.319595959E+02  8.400176045E+02  1.078959322E-05  0.00000E+00  9.000E+00
#rwgt            1           1   5.2392700045629140E-002           9      434856           0
</event>
<event>
      5   9999  3.79277E-02  9.97317E+01 -1.00000E+00  1.23880E-01
      21    -1     0     0   511   501  0.000000000E+00  0.000000000E+00  1.368822205E+02  1.368822205E+02  0.000000000E+00  0.00000E+00  9.000E+00
      21    -1     0     0   501   502  0.000000000E+00  0.000000000E+00 -3.332586555E+02  3.332586555E+02  0.000000000E+00  0.00000E+00  9.000E+00
      25     1     1     2     0     0 -1.344315182E+02  1.840383465E+01 -1.267851883E+02  2.238526707E+02  1.250000000E+02  0.00000E+00  9.000E+00
      25     1     1     2     0     0  4.663634530E+01  2.890820402E+01 -3.922949058E+01  1.420372694E+02  1.250000000E+02  0.00000E+00  9.000E+00
      21     1     1     2   511   502  8.779517294E+01 -4.731203867E+01 -3.036175609E+01  1.042509359E+02  1.066240300E-06  0.00000E+00  9.000E+00
#rwgt            1           1   2.4540865708560466E-002           9      435039           0
</event>
<event>
      5   9999  3.79277E-02  3.98440E+01 -1.00000E+00  1.44945E-01
      21    -1     0     0   502   501  0.000000000E+00  0.000000000E+00  6.208180543E+02  6.208180543E+02  0.000000000E+00  0.00000E+00  9.000E+00
      -1    -1     0     0     0   502  0.000000000E+00  0.000000000E+00 -2.445744184E+02  2.445744184E+02  0.000000000E+00  0.00000E+00  9.000E+00
      25     1     1     2     0     0  2.843609659E+00 -5.604443087E+01 -1.371703040E+02  1.938807795E+02  1.250000000E+02  0.00000E+00  9.000E+00
      25     1     1     2     0     0  3.611151614E+01  4.767545599E+01  5.786826086E+02  5.950424793E+02  1.250000000E+02  0.00000E+00  9.000E+00
      -1     1     1     2     0   501 -3.895512580E+01  8.368974888E+00 -6.526866868E+01  7.646921392E+01  9.536743164E-07  0.00000E+00  9.000E+00
#rwgt            1           1   3.4662601743145796E-002           9      435191           0
</event>
<event>
      5   9999  3.79277E-02  3.16802E+01 -1.00000E+00  1.51414E-01
      21    -1     0     0   511   501  0.000000000E+00  0.000000000E+00  2.716519805E+03  2.716519805E+03  0.000000000E+00  0.00000E+00  9.000E+00
      21    -1     0     0   501   502  0.000000000E+00  0.000000000E+00 -2.040641980E+01  2.040641980E+01  0.000000000E+00  0.00000E+00  9.000E+00
      25     1     1     2     0     0 -3.548909317E+00 -1.526553000E+02  7.911481669E+02  8.153874277E+02  1.250000000E+02  0.00000E+00  9.000E+00
      25     1     1     2     0     0 -2.043207310E+01  1.319538390E+02  1.037768906E+03  1.053764010E+03  1.250000000E+02  0.00000E+00  9.000E+00
      21     1     1     2   511   502  2.398098242E+01  2.070146100E+01  8.671963119E+02  8.677747873E+02  1.078959322E-05  0.00000E+00  9.000E+00
#rwgt            1           1  0.17427193298231902                9      435356           0
</event>
<event>
      5   9999  3.79277E-02  3.47403E+01 -1.00000E+00  1.48743E-01
      21    -1     0     0   512   501  0.000000000E+00  0.000000000E+00  3.279097803E+02  3.279097803E+02  0.000000000E+00  0.00000E+00  9.000E+00
      21    -1     0     0   501   502  0.000000000E+00  0.000000000E+00 -1.038592143E+03  1.038592143E+03  0.000000000E+00  0.00000E+00  9.000E+00
      25     1     1     2     0     0  1.726302449E+02 -2.907940439E+00 -6.057334926E+02  6.421430695E+02  1.250000000E+02  0.00000E+00  9.000E+00
      25     1     1     2     0     0 -1.507178815E+02 -2.405005458E+01 -3.900748186E+02  4.371242947E+02  1.250000000E+02  0.00000E+00  9.000E+00
      21     1     1     2   512   502 -2.191236343E+01  2.695799502E+01  2.851259487E+02  2.872345589E+02  6.607249480E-06  0.00000E+00  9.000E+00
#rwgt            1           1   4.4712677746564428E-002           9      435700           0
</event>
<event>
      5   9999  3.79277E-02  1.23243E+01 -1.00000E+00  1.85819E-01
      21    -1     0     0   502   501  0.000000000E+00  0.000000000E+00  2.167239008E+02  2.167239008E+02  0.000000000E+00  0.00000E+00  9.000E+00
      21    -1     0     0   501   511  0.000000000E+00  0.000000000E+00 -2.518535634E+02  2.518535634E+02  0.000000000E+00  0.00000E+00  9.000E+00
      25     1     1     2     0     0  7.201022706E+01 -1.470621543E+02  7.377348686E+01  2.188156242E+02  1.250000000E+02  0.00000E+00  9.000E+00
      25     1     1     2     0     0 -8.405200316E+01  1.496859903E+02 -1.044790971E+02  2.366675234E+02  1.250000000E+02  0.00000E+00  9.000E+00
      21     1     1     2   502   511  1.204177610E+01 -2.623835948E+00 -4.424052407E+00  1.309431657E+01  1.032382731E-07  0.00000E+00  9.000E+00
#rwgt            1           1   4.6166554464363019E-002           9      435776           0
</event>
<event>
      5   9999  3.79277E-02  9.55999E+01 -1.00000E+00  1.24713E-01
      21    -1     0     0   502   501  0.000000000E+00  0.000000000E+00  6.533506166E+01  6.533506166E+01  0.000000000E+00  0.00000E+00  9.000E+00
       2    -1     0     0   501     0  0.000000000E+00  0.000000000E+00 -1.141689501E+03  1.141689501E+03  0.000000000E+00  0.00000E+00  9.000E+00
      25     1     1     2     0     0  2.499837914E+01 -1.354341244E+02 -5.592970500E+02  5.894111563E+02  1.250000000E+02  0.00000E+00  9.000E+00
      25     1     1     2     0     0 -1.205876564E+02  1.368592276E+02 -2.489716047E+02  3.329920284E+02  1.250000000E+02  0.00000E+00  9.000E+00
       2     1     1     2   502     0  9.558927724E+01 -1.425103186E+00 -2.680857845E+02  2.846213778E+02  3.814697266E-06  0.00000E+00  9.000E+00
#rwgt            1           1   3.5917871040009604E-002           9      435984           0
</event>
<event>
      5   9999 -3.79277E-02  5.25465E+01 -1.00000E+00  1.37856E-01
      21    -1     0     0   502   501  0.000000000E+00  0.000000000E+00  1.417697602E+02  1.417697602E+02  0.000000000E+00  0.00000E+00  9.000E+00
      21    -1     0     0   511   502  0.000000000E+00  0.000000000E+00 -1.886111659E+03  1.886111659E+03  0.000000000E+00  0.00000E+00  9.000E+00
      25     1     1     2     0     0 -7.629055055E+01 -2.412965239E+02 -1.030795680E+02  3.004906952E+02  1.250000000E+02  0.00000E+00  9.000E+00
      25     1     1     2     0     0  1.246233683E+02  2.206793140E+02 -4.272873494E+02  5.122790475E+02  1.250000000E+02  0.00000E+00  9.000E+00
      21     1     1     2   511   501 -4.833281771E+01  2.061720991E+01 -1.213974981E+03  1.215111676E+03  2.157918644E-05  0.00000E+00  9.000E+00
#rwgt            1           1 -0.17146028387039106                9      436110           0
</event>
<event>
      5   9999 -3.79277E-02  1.07961E+02 -1.00000E+00  1.22350E-01
      21    -1     0     0   502   501  0.000000000E+00  0.000000000E+00  2.527789744E+02  2.527789744E+02  0.000000000E+00  0.00000E+00  9.000E+00
       1    -1     0     0   501     0  0.000000000E+00  0.000000000E+00 -8.249374974E+02  8.249374974E+02  0.000000000E+00  0.00000E+00  9.000E+00
      25     1     1     2     0     0  1.208688804E+01  1.524630984E+02 -7.880695252E+01  2.126655238E+02  1.250000000E+02  0.00000E+00  9.000E+00
      25     1     1     2     0     0  6.281421976E+01 -7.471104119E+01  1.466508268E+02  2.160065529E+02  1.250000000E+02  0.00000E+00  9.000E+00
       1     1     1     2   502     0 -7.490110779E+01 -7.775205725E+01 -6.400023972E+02  6.490443951E+02  1.078959322E-05  0.00000E+00  9.000E+00
#rwgt            1           1  -7.3979201318642275E-003           9      436232           0
</event>
<event>
      5   9999  3.79277E-02  4.67546E+01 -1.00000E+00  1.40759E-01
      21    -1     0     0   502   501  0.000000000E+00  0.000000000E+00  2.183934850E+02  2.183934850E+02  0.000000000E+00  0.00000E+00  9.000E+00
      21    -1     0     0   501   511  0.000000000E+00  0.000000000E+00 -3.815761167E+02  3.815761167E+02  0.000000000E+00  0.00000E+00  9.000E+00
      25     1     1     2     0     0 -1.504737246E+02  3.389111421E+01  1.130057840E+02  2.284431147E+02  1.250000000E+02  0.00000E+00  9.000E+00
      25     1     1     2     0     0  1.037429429E+02 -3.239868193E+01 -1.098861648E+02  1.987768649E+02  1.250000000E+02  0.00000E+00  9.000E+00
      21     1     1     2   502   511  4.673078178E+01 -1.492432279E+00 -1.663022509E+02  1.727496222E+02  1.907348633E-06  0.00000E+00  9.000E+00
#rwgt            1           1   3.9780354372547330E-002           9      436453           0
</event>
<event>
      5   9999  3.79277E-02  4.18716E+01 -1.00000E+00  1.43619E-01
      21    -1     0     0   512   501  0.000000000E+00  0.000000000E+00  9.379780825E+01  9.379780825E+01  0.000000000E+00  0.00000E+00  9.000E+00
      21    -1     0     0   501   502  0.000000000E+00  0.000000000E+00 -8.550602823E+02  8.550602823E+02  0.000000000E+00  0.00000E+00  9.000E+00
      25     1     1     2     0     0  1.062553778E+01  1.602310986E+02 -1.537263676E+02  2.550366701E+02  1.250000000E+02  0.00000E+00  9.000E+00
      25     1     1     2     0     0 -4.627009347E+01 -1.822014521E+02 -6.114248591E+02  6.517696288E+02  1.250000000E+02  0.00000E+00  9.000E+00
      21     1     1     2   512   502  3.564455569E+01  2.197035347E+01  3.888752645E+00  4.205179162E+01  7.862392639E-07  0.00000E+00  9.000E+00
#rwgt            1           1   4.5517744275551837E-002           9      436564           0
</event>
<event>
      5   9999  3.79277E-02  5.95203E+01 -1.00000E+00  1.34890E-01
       1    -1     0     0   502     0  0.000000000E+00  0.000000000E+00  8.773407419E+02  8.773407419E+02  0.000000000E+00  0.00000E+00  9.000E+00
      21    -1     0     0   501   502  0.000000000E+00  0.000000000E+00 -8.007267542E+01  8.007267542E+01  0.000000000E+00  0.00000E+00  9.000E+00
      25     1     1     2     0     0 -1.116124985E+01  6.980331421E+01  6.715353251E+02  6.867181147E+02  1.250000000E+02  0.00000E+00  9.000E+00
      25     1     1     2     0     0 -2.836352773E+01 -1.143056817E+02  5.976235664E+01  1.818428383E+02  1.250000000E+02  0.00000E+00  9.000E+00
       1     1     1     2   501     0  3.952477759E+01  4.450236749E+01  6.597038476E+01  8.885246435E+01  1.348699152E-06  0.00000E+00  9.000E+00
#rwgt            1           1   3.9289786984656426E-002           9      436642           0
</event>
<event>
      5   9999  3.79277E-02  1.20993E+02 -1.00000E+00  1.20217E-01
      21    -1     0     0   502   511  0.000000000E+00  0.000000000E+00  6.877224389E+02  6.877224389E+02  0.000000000E+00  0.00000E+00  9.000E+00
      21    -1     0     0   501   502  0.000000000E+00  0.000000000E+00 -8.586777348E+01  8.586777348E+01  0.000000000E+00  0.00000E+00  9.000E+00
      25     1     1     2     0     0 -1.433921233E+01  6.137962768E+01  1.337498113E+02  1.936158148E+02  1.250000000E+02  0.00000E+00  9.000E+00
      25     1     1     2     0     0  7.212928814E+01 -1.676792464E+02  3.117521695E+02  3.822739581E+02  1.250000000E+02  0.00000E+00  9.000E+00
      21     1     1     2   501   511 -5.779007581E+01  1.062996187E+02  1.563526847E+02  1.977004396E+02  1.907348633E-06  0.00000E+00  9.000E+00
#rwgt            1           1   3.4264489345742610E-002           9      436770           0
</event>
<event>
      5   9999  3.79277E-02  1.37003E+02 -1.00000E+00  1.17975E-01
      21    -1     0     0   502   501  0.000000000E+00  0.000000000E+00  2.778071738E+02  2.778071738E+02  0.000000000E+00  0.00000E+00  9.000E+00
      21    -1     0     0   512   502  0.000000000E+00  0.000000000E+00 -4.212594665E+02  4.212594665E+02  0.000000000E+00  0.00000E+00  9.000E+00
      25     1     1     2     0     0  1.218649687E+02 -7.962246764E+01  6.832171920E+01  2.036753919E+02  1.250000000E+02  0.00000E+00  9.000E+00
      25     1     1     2     0     0 -2.443029284E+02  1.410939280E+02 -1.232416844E+02  3.322723734E+02  1.250000000E+02  0.00000E+00  9.000E+00
      21     1     1     2   512   501  1.224379596E+02 -6.147146031E+01 -8.853232747E+01  1.631188750E+02  9.536743164E-07  0.00000E+00  9.000E+00
#rwgt            2          11   2.2062524914375414E-003           9      436819           0
</event>
<event>
      5   9999  3.79277E-02  5.44209E+00 -1.00000E+00  2.32263E-01
      21    -1     0     0   502   501  0.000000000E+00  0.000000000E+00  1.922285430E+02  1.922285430E+02  0.000000000E+00  0.00000E+00  9.000E+00
      21    -1     0     0   501   511  0.000000000E+00  0.000000000E+00 -3.159358373E+02  3.159358373E+02  0.000000000E+00  0.00000E+00  9.000E+00
      25     1     1     2     0     0 -1.707148266E+02  1.088410812E+02 -6.547857882E+01  2.467840701E+02  1.250000000E+02  0.00000E+00  9.000E+00
      25     1     1     2     0     0  1.760945721E+02 -1.080197120E+02 -4.306491440E+01  2.452695321E+02  1.250000000E+02  0.00000E+00  9.000E+00
      21     1     1     2   502   511 -5.379745517E+00 -8.213691963E-01 -1.516380099E+01  1.611077806E+01  0.000000000E+00  0.00000E+00  9.000E+00
#rwgt            1           1   3.4102750459131824E-002           9      436899           0
</event>
<event>
      5   9999  3.79277E-02  1.09246E+02 -1.00000E+00  1.22125E-01
      21    -1     0     0   502   501  0.000000000E+00  0.000000000E+00  9.660064343E+01  9.660064343E+01  0.000000000E+00  0.00000E+00  9.000E+00
      21    -1     0     0   512   502  0.000000000E+00  0.000000000E+00 -1.383603877E+03  1.383603877E+03  0.000000000E+00  0.00000E+00  9.000E+00
      25     1     1     2     0     0 -1.638908484E+02 -2.246031047E+02 -4.844521258E+02  5.723859074E+02  1.250000000E+02  0.00000E+00  9.000E+00
      25     1     1     2     0     0  5.820750310E+01  1.969314193E+02 -2.589207221E+02  3.533200216E+02  1.250000000E+02  0.00000E+00  9.000E+00
      21     1     1     2   512   501  1.056833453E+02  2.767168538E+01 -5.436303860E+02  5.544985917E+02  1.525878906E-05  0.00000E+00  9.000E+00
#rwgt            1           1   3.8168001992074777E-002           9      437269           0
</event>
<event>
      5   9999  3.79277E-02  5.05621E+01 -1.00000E+00  1.38799E-01
       2    -1     0     0   502     0  0.000000000E+00  0.000000000E+00  1.136943939E+03  1.136943939E+03  0.000000000E+00  0.00000E+00  9.000E+00
      21    -1     0     0   501   502  0.000000000E+00  0.000000000E+00 -8.298963011E+01  8.298963011E+01  0.000000000E+00  0.00000E+00  9.000E+00
      25     1     1     2     0     0  1.632882765E+02  1.210831927E+02  3.407461045E+02  4.160013324E+02  1.250000000E+02  0.00000E+00  9.000E+00
      25     1     1     2     0     0 -1.387197016E+02 -7.689147556E+01  1.867652403E+02  2.750667366E+02  1.250000000E+02  0.00000E+00  9.000E+00
       2     1     1     2   501     0 -2.456857497E+01 -4.419171710E+01  5.264429638E+02  5.288654998E+02  7.629394531E-06  0.00000E+00  9.000E+00
#rwgt            1           1   3.3463294919842665E-002           9      437332           0
</event>
<event>
      5   9999 -3.79277E-02  6.26819E+01 -1.00000E+00  1.33696E-01
      21    -1     0     0   502   501  0.000000000E+00  0.000000000E+00  3.326114398E+02  3.326114398E+02  0.000000000E+00  0.00000E+00  9.000E+00
      21    -1     0     0   511   502  0.000000000E+00  0.000000000E+00 -3.078941910E+02  3.078941910E+02  0.000000000E+00  0.00000E+00  9.000E+00
      25     1     1     2     0     0 -1.759039313E+02  1.796563376E+02 -3.908032900E+01  2.834975569E+02  1.250000000E+02  0.00000E+00  9.000E+00
      25     1     1     2     0     0  1.141620755E+02 -1.904710570E+02  1.115849582E+02  2.781877171E+02  1.250000000E+02  0.00000E+00  9.000E+00
      21     1     1     2   511   501  6.174185582E+01  1.081471942E+01 -4.778738041E+01  7.882035677E+01  6.743495762E-07  0.00000E+00  9.000E+00
#rwgt            1           1  -9.9358613429717073E-003           9      437440           0
</event>
<event>
      5   9999  3.79277E-02  9.50003E+01 -1.00000E+00  1.24838E-01
       1    -1     0     0   502     0  0.000000000E+00  0.000000000E+00  4.763046845E+02  4.763046845E+02  0.000000000E+00  0.00000E+00  9.000E+00
      21    -1     0     0   501   502  0.000000000E+00  0.000000000E+00 -4.867781821E+02  4.867781821E+02  0.000000000E+00  0.00000E+00  9.000E+00
      25     1     1     2     0     0 -3.703466091E+01  1.964322725E+01 -4.030957801E+02  4.241092199E+02  1.250000000E+02  0.00000E+00  9.000E+00
      25     1     1     2     0     0 -5.202886259E+01  1.341345058E+01  1.071342776E+00  1.360627465E+02  1.250000000E+02  0.00000E+00  9.000E+00
       1     1     1     2   501     0  8.906352350E+01 -3.305667783E+01  3.915509396E+02  4.029109002E+02  5.394796609E-06  0.00000E+00  9.000E+00
#rwgt            1           1   1.5691725480896423E-002           9      437644           0
</event>
<event>
      5   9999  3.79277E-02  5.36795E+00 -1.00000E+00  2.33252E-01
      21    -1     0     0   502   501  0.000000000E+00  0.000000000E+00  1.105509012E+03  1.105509012E+03  0.000000000E+00  0.00000E+00  9.000E+00
      21    -1     0     0   511   502  0.000000000E+00  0.000000000E+00 -8.791465027E+01  8.791465027E+01  0.000000000E+00  0.00000E+00  9.000E+00
      25     1     1     2     0     0 -1.161992735E+02 -1.252617477E+02  8.468650229E+01  2.280122371E+02  1.250000000E+02  0.00000E+00  9.000E+00
      25     1     1     2     0     0  1.215013495E+02  1.261001336E+02  9.351600926E+02  9.595901315E+02  1.250000000E+02  0.00000E+00  9.000E+00
      21     1     1     2   511   501 -5.302076020E+00 -8.383859285E-01 -2.252233457E+00  5.821293381E+00  1.763129170E-07  0.00000E+00  9.000E+00
#rwgt            1           1   2.9992687711309252E-002           9      437711           0
</event>
<event>
      5   9999  3.79277E-02  3.16518E+01 -1.00000E+00  1.51440E-01
      21    -1     0     0   502   501  0.000000000E+00  0.000000000E+00  9.471697764E+02  9.471697764E+02  0.000000000E+00  0.00000E+00  9.000E+00
      -1    -1     0     0     0   502  0.000000000E+00  0.000000000E+00 -8.949986056E+01  8.949986056E+01  0.000000000E+00  0.00000E+00  9.000E+00
      25     1     1     2     0     0  1.298840109E+02 -9.521394433E+01  7.212172546E+02  7.494764038E+02  1.250000000E+02  0.00000E+00  9.000E+00
      25     1     1     2     0     0 -9.826800694E+01  9.671857744E+01  1.618275828E+02  2.466257305E+02  1.250000000E+02  0.00000E+00  9.000E+00
      -1     1     1     2     0   501 -3.161600395E+01 -1.504633104E+00 -2.537492156E+01  4.056750264E+01  9.536743164E-07  0.00000E+00  9.000E+00
#rwgt            1           1   3.6248444503073060E-002           9      438106           0
</event>
<event>
      5   9999  3.79277E-02  2.40771E+01 -1.00000E+00  1.59984E-01
      21    -1     0     0   511   501  0.000000000E+00  0.000000000E+00  1.315188522E+01  1.315188522E+01  0.000000000E+00  0.00000E+00  9.000E+00
      21    -1     0     0   501   502  0.000000000E+00  0.000000000E+00 -3.206266680E+03  3.206266680E+03  0.000000000E+00  0.00000E+00  9.000E+00
      25     1     1     2     0     0  7.570948582E+01 -5.845035360E+01 -6.551666115E+02  6.738075830E+02  1.250000000E+02  0.00000E+00  9.000E+00
      25     1     1     2     0     0 -5.503331900E+01  4.611335251E+01 -2.455276366E+03  2.459504450E+03  1.250000000E+02  0.00000E+00  9.000E+00
      21     1     1     2   511   502 -2.067616682E+01  1.233700109E+01 -8.267181682E+01  8.610653150E+01  9.536743164E-07  0.00000E+00  9.000E+00
#rwgt            1           1   2.2407481642813535E-002           9      438226           0
</event>
<event>
      5   9999  3.79277E-02  1.95879E+02 -1.00000E+00  1.11978E-01
      21    -1     0     0   502   501  0.000000000E+00  0.000000000E+00  8.078289115E+02  8.078289115E+02  0.000000000E+00  0.00000E+00  9.000E+00
      21    -1     0     0   501   512  0.000000000E+00  0.000000000E+00 -2.121913413E+02  2.121913413E+02  0.000000000E+00  0.00000E+00  9.000E+00
      25     1     1     2     0     0  2.783047683E+02  6.898780885E+01  1.267025319E+02  3.374779895E+02  1.250000000E+02  0.00000E+00  9.000E+00
      25     1     1     2     0     0 -1.795462454E+02  1.001730694E+02  4.144374345E+02  4.792232102E+02  1.250000000E+02  0.00000E+00  9.000E+00
      21     1     1     2   502   512 -9.875852290E+01 -1.691608782E+02  5.449760377E+01  2.033190532E+02  1.651812370E-06  0.00000E+00  9.000E+00
#rwgt            1           1   3.7127575035946159E-002           9      438380           0
</event>
<event>
      5   9999  3.79277E-02  4.15927E+01 -1.00000E+00  1.43796E-01
      21    -1     0     0   502   501  0.000000000E+00  0.000000000E+00  5.596797377E+02  5.596797377E+02  0.000000000E+00  0.00000E+00  9.000E+00
      21    -1     0     0   501   511  0.000000000E+00  0.000000000E+00 -2.728923159E+02  2.728923159E+02  0.000000000E+00  0.00000E+00  9.000E+00
      25     1     1     2     0     0 -7.526532941E+01 -1.133503398E+02  1.910308433E+02  2.657648443E+02  1.250000000E+02  0.00000E+00  9.000E+00
      25     1     1     2     0     0  3.488879843E+01  1.033658406E+02  3.083667917E+02  3.501668224E+02  1.250000000E+02  0.00000E+00  9.000E+00
      21     1     1     2   502   511  4.037653098E+01  9.984499183E+00 -2.126102133E+02  2.166403870E+02  3.814697266E-06  0.00000E+00  9.000E+00
#rwgt            1           1   3.4714328454873974E-002           9      438412           0
</event>
<event>
      5   9999  3.79277E-02  7.29391E+01 -1.00000E+00  1.30322E-01
      21    -1     0     0   502   501  0.000000000E+00  0.000000000E+00  1.377815807E+02  1.377815807E+02  0.000000000E+00  0.00000E+00  9.000E+00
      21    -1     0     0   501   512  0.000000000E+00  0.000000000E+00 -4.639217879E+02  4.639217879E+02  0.000000000E+00  0.00000E+00  9.000E+00
      25     1     1     2     0     0  1.868139428E+01 -1.898624428E+01  7.156321908E+01  1.464778696E+02  1.250000000E+02  0.00000E+00  9.000E+00
      25     1     1     2     0     0 -2.342897438E+01 -5.379819572E+01 -3.206767049E+02  3.491442564E+02  1.250000000E+02  0.00000E+00  9.000E+00
      21     1     1     2   502   512  4.747580102E+00  7.278444000E+01 -7.702672144E+01  1.060812426E+02  9.536743164E-07  0.00000E+00  9.000E+00
#rwgt            2          11   2.4476899813992196E-003           9      438563           0
</event>
<event>
      5   9999  3.79277E-02  5.39608E+01 -1.00000E+00  1.37212E-01
      21    -1     0     0   502   501  0.000000000E+00  0.000000000E+00  3.464663963E+02  3.464663963E+02  0.000000000E+00  0.00000E+00  9.000E+00
      21    -1     0     0   511   502  0.000000000E+00  0.000000000E+00 -2.382672870E+02  2.382672870E+02  0.000000000E+00  0.00000E+00  9.000E+00
      25     1     1     2     0     0 -1.684104829E+02 -2.754533839E+01 -6.720179433E+01  2.219502592E+02  1.250000000E+02  0.00000E+00  9.000E+00
      25     1     1     2     0     0  1.460317699E+02 -2.155621991E+01  2.198814205E+02  2.928528428E+02  1.250000000E+02  0.00000E+00  9.000E+00
      21     1     1     2   511   501  2.237871299E+01  4.910155830E+01 -4.448051688E+01  6.993058133E+01  4.768371582E-07  0.00000E+00  9.000E+00
#rwgt            1           1   3.9183309867171154E-002           9      438628           0
</event>
<event>
      5   9999  3.79277E-02  5.54459E+01 -1.00000E+00  1.36561E-01
      21    -1     0     0   512   501  0.000000000E+00  0.000000000E+00  5.511257840E+01  5.511257840E+01  0.000000000E+00  0.00000E+00  9.000E+00
      21    -1     0     0   501   502  0.000000000E+00  0.000000000E+00 -1.320346052E+03  1.320346052E+03  0.000000000E+00  0.00000E+00  9.000E+00
      25     1     1     2     0     0 -1.488598632E+02  1.973156108E+01 -3.389548123E+02  3.912338918E+02  1.250000000E+02  0.00000E+00  9.000E+00
      25     1     1     2     0     0  1.620401926E+02 -7.358813672E+01 -8.939893127E+02  9.200620246E+02  1.250000000E+02  0.00000E+00  9.000E+00
      21     1     1     2   512   502 -1.318032938E+01  5.385657564E+01 -3.228934854E+01  6.416271387E+01  4.768371582E-07  0.00000E+00  9.000E+00
#rwgt            1           1   4.0228842027233376E-002           9      438716           0
</event>
<event>
      5   9999  3.79277E-02  4.09607E+01 -1.00000E+00  1.44204E-01
      21    -1     0     0   502   501  0.000000000E+00  0.000000000E+00  2.408452160E+02  2.408452160E+02  0.000000000E+00  0.00000E+00  9.000E+00
      21    -1     0     0   501   511  0.000000000E+00  0.000000000E+00 -1.636081605E+02  1.636081605E+02  0.000000000E+00  0.00000E+00  9.000E+00
      25     1     1     2     0     0  1.025685489E+02  6.696504139E+01  3.028051338E+01  1.776134383E+02  1.250000000E+02  0.00000E+00  9.000E+00
      25     1     1     2     0     0 -1.129726280E+02 -2.734770118E+01  6.424278757E+01  1.823810494E+02  1.250000000E+02  0.00000E+00  9.000E+00
      21     1     1     2   502   511  1.040407912E+01 -3.961734022E+01 -1.728624547E+01  4.445888877E+01  2.384185791E-07  0.00000E+00  9.000E+00
#rwgt            1           1   2.6363350056832803E-002           9      438859           0
</event>
<event>
      5   9999  3.79277E-02  6.10562E+01 -1.00000E+00  1.34300E-01
      21    -1     0     0   502   501  0.000000000E+00  0.000000000E+00  1.040741127E+02  1.040741127E+02  0.000000000E+00  0.00000E+00  9.000E+00
      21    -1     0     0   512   502  0.000000000E+00  0.000000000E+00 -1.005841332E+03  1.005841332E+03  0.000000000E+00  0.00000E+00  9.000E+00
      25     1     1     2     0     0 -6.728398536E+01 -1.436935047E+02 -6.099817506E+01  2.109993728E+02  1.250000000E+02  0.00000E+00  9.000E+00
      25     1     1     2     0     0  1.076432526E+02  9.787875282E+01 -3.092827175E+02  3.639342241E+02  1.250000000E+02  0.00000E+00  9.000E+00
      21     1     1     2   512   501 -4.035926725E+01  4.581475186E+01 -5.314863272E+02  5.349818482E+02  0.000000000E+00  0.00000E+00  9.000E+00
#rwgt            1           1   4.3519589956700605E-002           9      438987           0
</event>
<event>
      5   9999 -3.79277E-02  7.71376E+01 -1.00000E+00  1.29120E-01
      21    -1     0     0   502   501  0.000000000E+00  0.000000000E+00  6.484212802E+02  6.484212802E+02  0.000000000E+00  0.00000E+00  9.000E+00
      21    -1     0     0   501   511  0.000000000E+00  0.000000000E+00 -1.402855124E+02  1.402855124E+02  0.000000000E+00  0.00000E+00  9.000E+00
      25     1     1     2     0     0 -2.039151633E+02 -6.061032662E+00  2.094651932E+02  3.179918192E+02  1.250000000E+02  0.00000E+00  9.000E+00
      25     1     1     2     0     0  1.954716191E+02 -7.061302580E+01  3.090834467E+02  3.928777549E+02  1.250000000E+02  0.00000E+00  9.000E+00
      21     1     1     2   502   511  8.443544185E+00  7.667405846E+01 -1.041287210E+01  7.783721850E+01  1.415531884E-06  0.00000E+00  9.000E+00
#rwgt            1           1 -0.22344591801412148                9      439120           0
</event>
<event>
      5   9999 -3.79277E-02  9.11149E+00 -1.00000E+00  2.00548E-01
      21    -1     0     0   502   501  0.000000000E+00  0.000000000E+00  5.684939716E+02  5.684939716E+02  0.000000000E+00  0.00000E+00  9.000E+00
      21    -1     0     0   512   502  0.000000000E+00  0.000000000E+00 -9.456704219E+01  9.456704219E+01  0.000000000E+00  0.00000E+00  9.000E+00
      25     1     1     2     0     0 -9.532235151E+01  1.586314141E+02  3.110961193E+02  3.829570102E+02  1.250000000E+02  0.00000E+00  9.000E+00
      25     1     1     2     0     0  9.062567475E+01 -1.508236931E+02  1.637813872E+02  2.709430606E+02  1.250000000E+02  0.00000E+00  9.000E+00
      21     1     1     2   512   501  4.696676756E+00 -7.807720970E+00 -9.505770292E-01  9.160942964E+00  6.143906155E-08  0.00000E+00  9.000E+00
#rwgt            1           1  -6.4159420257954673E-003           9      439206           0
</event>
<event>
      5   9999  3.79277E-02  7.82790E+01 -1.00000E+00  1.28808E-01
      21    -1     0     0   502   501  0.000000000E+00  0.000000000E+00  1.533505687E+01  1.533505687E+01  0.000000000E+00  0.00000E+00  9.000E+00
       2    -1     0     0   501     0  0.000000000E+00  0.000000000E+00 -5.046873111E+03  5.046873111E+03  0.000000000E+00  0.00000E+00  9.000E+00
      25     1     1     2     0     0 -1.376414658E+02 -1.005847657E+02 -2.138363395E+03  2.148786978E+03  1.250000000E+02  0.00000E+00  9.000E+00
      25     1     1     2     0     0  1.244513621E+02  1.777444411E+02 -2.501384611E+03  2.513887667E+03  1.250000000E+02  0.00000E+00  9.000E+00
       2     1     1     2   502     0  1.319010369E+01 -7.715967541E+01 -3.917900472E+02  3.995335223E+02  5.394796609E-06  0.00000E+00  9.000E+00
#rwgt            1           1   8.0100205617430152E-004           9      439576           0
</event>
<event>
      5   9999  3.79277E-02  5.72579E+00 -1.00000E+00  2.28674E-01
      21    -1     0     0   502   511  0.000000000E+00  0.000000000E+00  2.129322721E+02  2.129322721E+02  0.000000000E+00  0.00000E+00  9.000E+00
      21    -1     0     0   501   502  0.000000000E+00  0.000000000E+00 -2.112081467E+02  2.112081467E+02  0.000000000E+00  0.00000E+00  9.000E+00
      25     1     1     2     0     0 -1.602642841E+02  1.727588758E+01 -1.821685907E+01  2.047924584E+02  1.250000000E+02  0.00000E+00  9.000E+00
      25     1     1     2     0     0  1.642299624E+02 -1.314575293E+01  9.004549931E+00  2.070033171E+02  1.250000000E+02  0.00000E+00  9.000E+00
      21     1     1     2   501   511 -3.965678247E+00 -4.130134652E+00  1.093643459E+01  1.234464328E+01  2.064765462E-07  0.00000E+00  9.000E+00
#rwgt            1           1   6.1295974719488569E-002           9      439678           0
</event>
<event>
      5   9999  3.79277E-02  1.31372E+01 -1.00000E+00  1.82987E-01
      21    -1     0     0   502   501  0.000000000E+00  0.000000000E+00  5.845487130E+02  5.845487130E+02  0.000000000E+00  0.00000E+00  9.000E+00
      21    -1     0     0   501   512  0.000000000E+00  0.000000000E+00 -1.157532289E+02  1.157532289E+02  0.000000000E+00  0.00000E+00  9.000E+00
      25     1     1     2     0     0  9.133161526E+01  1.619326591E+02  3.709366386E+02  4.333389434E+02  1.250000000E+02  0.00000E+00  9.000E+00
      25     1     1     2     0     0 -9.320071681E+01 -1.489291350E+02  1.157841440E+02  2.447391037E+02  1.250000000E+02  0.00000E+00  9.000E+00
      21     1     1     2   502   512  1.869101544E+00 -1.300352405E+01 -1.792529841E+01  2.222389483E+01  5.331201500E-07  0.00000E+00  9.000E+00
#rwgt            1           1   4.0427531159219585E-002           9      440142           0
</event>
<event>
      5   9999 -3.79277E-02  2.38123E+01 -1.00000E+00  1.60351E-01
      21    -1     0     0   502   511  0.000000000E+00  0.000000000E+00  3.302469905E+01  3.302469905E+01  0.000000000E+00  0.00000E+00  9.000E+00
      21    -1     0     0   501   502  0.000000000E+00  0.000000000E+00 -4.720613921E+03  4.720613921E+03  0.000000000E+00  0.00000E+00  9.000E+00
      25     1     1     2     0     0  6.844801070E+01 -2.986029339E+02 -1.981854078E+03  2.009283312E+03  1.250000000E+02  0.00000E+00  9.000E+00
      25     1     1     2     0     0 -5.549676771E+01  2.786206330E+02 -2.702569069E+03  2.720333421E+03  1.250000000E+02  0.00000E+00  9.000E+00
      21     1     1     2   501   511 -1.295124299E+01  1.998230091E+01 -3.166075574E+00  2.402188750E+01  9.433741445E-07  0.00000E+00  9.000E+00
#rwgt            1           1  -1.0188593505161428E-002           9      440393           0
</event>
<event>
      5   9999 -3.79277E-02  8.34602E+01 -1.00000E+00  1.27466E-01
      21    -1     0     0   502   501  0.000000000E+00  0.000000000E+00  8.342679304E+01  8.342679304E+01  0.000000000E+00  0.00000E+00  9.000E+00
      21    -1     0     0   512   502  0.000000000E+00  0.000000000E+00 -1.023691726E+03  1.023691726E+03  0.000000000E+00  0.00000E+00  9.000E+00
      25     1     1     2     0     0 -1.026052690E+02  1.928523675E+01 -4.172749221E+01  1.681247905E+02  1.250000000E+02  0.00000E+00  9.000E+00
      25     1     1     2     0     0  5.244910913E+01  4.742276463E+01 -2.783411846E+02  3.132070285E+02  1.250000000E+02  0.00000E+00  9.000E+00
      21     1     1     2   512   501  5.015615982E+01 -6.670800138E+01 -6.201962558E+02  6.257866997E+02  7.629394531E-06  0.00000E+00  9.000E+00
#rwgt            1           1 -0.16012715665491062                9      440561           0
</event>
<event>
      5   9999  3.79277E-02  7.51203E+01 -1.00000E+00  1.29687E-01
      21    -1     0     0   502   501  0.000000000E+00  0.000000000E+00  6.429714219E+02  6.429714219E+02  0.000000000E+00  0.00000E+00  9.000E+00
      21    -1     0     0   501   511  0.000000000E+00  0.000000000E+00 -1.385013607E+02  1.385013607E+02  0.000000000E+00  0.00000E+00  9.000E+00
      25     1     1     2     0     0  7.142520330E+01 -6.909463817E+01  1.410392147E+02  2.130556002E+02  1.250000000E+02  0.00000E+00  9.000E+00
      25     1     1     2     0     0 -1.228009202E+01  1.154078582E+02  4.334006237E+02  4.657583869E+02  1.250000000E+02  0.00000E+00  9.000E+00
      21     1     1     2   502   511 -5.914511128E+01 -4.631322006E+01 -6.996977722E+01  1.026587954E+02  0.000000000E+00  0.00000E+00  9.000E+00
#rwgt            1           1   3.0952028996901703E-002           9      440613           0
</event>
<event>
      5   9999  3.79277E-02  5.83818E+01 -1.00000E+00  1.35341E-01
      21    -1     0     0   502   501  0.000000000E+00  0.000000000E+00  5.253557472E+01  5.253557472E+01  0.000000000E+00  0.00000E+00  9.000E+00
       2    -1     0     0   501     0  0.000000000E+00  0.000000000E+00 -1.605597518E+03  1.605597518E+03  0.000000000E+00  0.00000E+00  9.000E+00
      25     1     1     2     0     0  1.012305562E+02 -1.243093809E+02 -7.070774521E+02  7.357200358E+02  1.250000000E+02  0.00000E+00  9.000E+00
      25     1     1     2     0     0 -5.950152678E+01  8.347897358E+01 -1.395235407E+02  2.135438810E+02  1.250000000E+02  0.00000E+00  9.000E+00
       2     1     1     2   502     0 -4.172902942E+01  4.083040737E+01 -7.064609500E+02  7.088691755E+02  0.000000000E+00  0.00000E+00  9.000E+00
#rwgt            1           1   3.9599393082574513E-002           9      440766           0
</event>
<event>
      5   9999  3.79277E-02  7.10335E+01 -1.00000E+00  1.30899E-01
       1    -1     0     0   502     0  0.000000000E+00  0.000000000E+00  3.754921042E+02  3.754921042E+02  0.000000000E+00  0.00000E+00  9.000E+00
      21    -1     0     0   501   502  0.000000000E+00  0.000000000E+00 -1.498849242E+02  1.498849242E+02  0.000000000E+00  0.00000E+00  9.000E+00
      25     1     1     2     0     0 -7.273897492E+01 -6.082329293E+01  2.053165301E+02  2.583995143E+02  1.250000000E+02  0.00000E+00  9.000E+00
      25     1     1     2     0     0  6.377674219E+01  1.312891160E+02 -3.090836183E+00  1.921948441E+02  1.250000000E+02  0.00000E+00  9.000E+00
       1     1     1     2   501     0  8.962232727E+00 -7.046582309E+01  2.338148610E+01  7.478266999E+01  4.768371582E-07  0.00000E+00  9.000E+00
#rwgt            1           1   4.0572414519294282E-002           9      440929           0
</event>
<event>
      5   9999  3.79277E-02  4.69494E+01 -1.00000E+00  1.40654E-01
      21    -1     0     0   502   501  0.000000000E+00  0.000000000E+00  3.936527790E+02  3.936527790E+02  0.000000000E+00  0.00000E+00  9.000E+00
      21    -1     0     0   511   502  0.000000000E+00  0.000000000E+00 -2.383566357E+02  2.383566357E+02  0.000000000E+00  0.00000E+00  9.000E+00
      25     1     1     2     0     0 -2.382142254E+02  1.095108853E+01  1.206769880E+02  2.950489433E+02  1.250000000E+02  0.00000E+00  9.000E+00
      25     1     1     2     0     0  1.945661429E+02  6.343193454E+00  1.036276553E+02  2.534953866E+02  1.250000000E+02  0.00000E+00  9.000E+00
      21     1     1     2   511   501  4.364808249E+01 -1.729428199E+01 -6.900850009E+01  8.346508479E+01  0.000000000E+00  0.00000E+00  9.000E+00
#rwgt            1           1   3.8173641305963395E-002           9      441005           0
</event>
<event>
      5   9999  3.79277E-02  5.65777E+00 -1.00000E+00  2.29507E-01
      21    -1     0     0   512   501  0.000000000E+00  0.000000000E+00  9.046903034E+01  9.046903034E+01  0.000000000E+00  0.00000E+00  9.000E+00
      21    -1     0     0   501   502  0.000000000E+00  0.000000000E+00 -2.381769256E+02  2.381769256E+02  0.000000000E+00  0.00000E+00  9.000E+00
      25     1     1     2     0     0 -5.168353273E+01 -2.968001536E+01 -9.087801940E+01  1.656378739E+02  1.250000000E+02  0.00000E+00  9.000E+00
      25     1     1     2     0     0  5.481043919E+01  3.439518970E+01 -6.336761485E+01  1.543621324E+02  1.250000000E+02  0.00000E+00  9.000E+00
      21     1     1     2   512   502 -3.126906458E+00 -4.715174344E+00  6.537738991E+00  8.645949584E+00  1.884864366E-07  0.00000E+00  9.000E+00
#rwgt            1           1   4.7892253003396175E-002           9      441182           0
</event>
<event>
      5   9999  3.79277E-02  8.89425E+01 -1.00000E+00  1.26161E-01
      21    -1     0     0   502   501  0.000000000E+00  0.000000000E+00  3.043883230E+02  3.043883230E+02  0.000000000E+00  0.00000E+00  9.000E+00
      21    -1     0     0   511   502  0.000000000E+00  0.000000000E+00 -3.172274096E+02  3.172274096E+02  0.000000000E+00  0.00000E+00  9.000E+00
      25     1     1     2     0     0 -3.259475190E+01  2.246101947E+02 -7.113321990E+01  2.686951663E+02  1.250000000E+02  0.00000E+00  9.000E+00
      25     1     1     2     0     0  3.170493363E+01 -1.356721232E+02  1.387407245E+02  2.329938121E+02  1.250000000E+02  0.00000E+00  9.000E+00
      21     1     1     2   511   501  8.898182680E-01 -8.893807149E+01 -8.044659122E+01  1.199267542E+02  1.651812370E-06  0.00000E+00  9.000E+00
#rwgt            1           1   1.9175527173752892E-002           9      441440           0
</event>
<event>
      5   9999  3.79277E-02  1.79557E+01 -1.00000E+00  1.70328E-01
      -4    -1     0     0     0   501  0.000000000E+00  0.000000000E+00  1.029929504E+02  1.029929504E+02  0.000000000E+00  0.00000E+00  9.000E+00
      21    -1     0     0   501   502  0.000000000E+00  0.000000000E+00 -1.178982087E+03  1.178982087E+03  0.000000000E+00  0.00000E+00  9.000E+00
      25     1     1     2     0     0 -6.307874185E+01 -1.962033081E+02 -7.133138896E+02  7.529384908E+02  1.250000000E+02  0.00000E+00  9.000E+00
      25     1     1     2     0     0  5.857898309E+01  2.135860263E+02 -4.077272286E+02  4.805382199E+02  1.250000000E+02  0.00000E+00  9.000E+00
      -4     1     1     2     0   502  4.499758757E+00 -1.738271823E+01  4.505198116E+01  4.849832706E+01  1.581489940E-06  0.00000E+00  9.000E+00
#rwgt            1           1   3.7265942904960297E-002           9      441555           0
</event>
<event>
      5   9999  3.79277E-02  4.46675E+01 -1.00000E+00  1.41929E-01
      21    -1     0     0   502   501  0.000000000E+00  0.000000000E+00  1.382277013E+02  1.382277013E+02  0.000000000E+00  0.00000E+00  9.000E+00
      21    -1     0     0   511   502  0.000000000E+00  0.000000000E+00 -4.340135715E+02  4.340135715E+02  0.000000000E+00  0.00000E+00  9.000E+00
      25     1     1     2     0     0  1.132839113E+02  6.460288163E+01 -1.216763764E+02  2.178001778E+02  1.250000000E+02  0.00000E+00  9.000E+00
      25     1     1     2     0     0 -1.114699831E+02 -1.997226083E+01  6.098477862E+00  1.687798559E+02  1.250000000E+02  0.00000E+00  9.000E+00
      21     1     1     2   511   501 -1.813928185E+00 -4.463062080E+01 -1.802079717E+02  1.856612391E+02  3.303624740E-06  0.00000E+00  9.000E+00
#rwgt            1           1   4.7292322818562008E-002           9      441786           0
</event>
<event>
      5   9999  3.79277E-02  1.71381E+01 -1.00000E+00  1.72100E-01
      21    -1     0     0   512   501  0.000000000E+00  0.000000000E+00  1.209038194E+02  1.209038194E+02  0.000000000E+00  0.00000E+00  9.000E+00
      21    -1     0     0   501   502  0.000000000E+00  0.000000000E+00 -6.762822600E+02  6.762822600E+02  0.000000000E+00  0.00000E+00  9.000E+00
      25     1     1     2     0     0  1.587876345E+02  9.042351675E+01 -3.345105097E+02  4.011386373E+02  1.250000000E+02  0.00000E+00  9.000E+00
      25     1     1     2     0     0 -1.518067016E+02 -1.060753524E+02 -2.662252890E+02  3.475602962E+02  1.250000000E+02  0.00000E+00  9.000E+00
      21     1     1     2   512   502 -6.980932928E+00  1.565183565E+01  4.535735803E+01  4.848714584E+01  1.348699152E-06  0.00000E+00  9.000E+00
#rwgt            1           1   7.0712527386844054E-002           9      441918           0
</event>
<event>
      5   9999  3.79277E-02  3.25687E+01 -1.00000E+00  1.50602E-01
      21    -1     0     0   511   501  0.000000000E+00  0.000000000E+00  1.407079424E+02  1.407079424E+02  0.000000000E+00  0.00000E+00  9.000E+00
      21    -1     0     0   501   502  0.000000000E+00  0.000000000E+00 -5.831004656E+02  5.831004656E+02  0.000000000E+00  0.00000E+00  9.000E+00
      25     1     1     2     0     0  5.792253410E+01  8.534457152E+01 -4.451635932E+02  4.737450164E+02  1.250000000E+02  0.00000E+00  9.000E+00
      25     1     1     2     0     0 -3.028617333E+01 -6.811220971E+01 -7.645906244E+01  1.644004673E+02  1.250000000E+02  0.00000E+00  9.000E+00
      21     1     1     2   511   502 -2.763636077E+01 -1.723236181E+01  7.923013241E+01  8.566292437E+01  9.536743164E-07  0.00000E+00  9.000E+00
#rwgt            1           1   7.8155779237867231E-003           9      442142           0
</event>
<event>
      5   9999  3.79277E-02  1.58836E+01 -1.00000E+00  1.75073E-01
      21    -1     0     0   502   501  0.000000000E+00  0.000000000E+00  2.202808467E+02  2.202808467E+02  0.000000000E+00  0.00000E+00  9.000E+00
      21    -1     0     0   512   502  0.000000000E+00  0.000000000E+00 -2.746345954E+02  2.746345954E+02  0.000000000E+00  0.00000E+00  9.000E+00
      25     1     1     2     0     0 -3.378204395E+01  1.109555293E+02  1.416969705E+02  2.217101428E+02  1.250000000E+02  0.00000E+00  9.000E+00
      25     1     1     2     0     0  1.821650112E+01 -1.141183539E+02 -1.591954667E+02  2.330730277E+02  1.250000000E+02  0.00000E+00  9.000E+00
      21     1     1     2   512   501  1.556554283E+01  3.162824584E+00 -3.685525247E+01  4.013227152E+01  4.768371582E-07  0.00000E+00  9.000E+00
#rwgt            2          11   1.2091877423544123E-003           9      442440           0
</event>
<event>
      5   9999  3.79277E-02  2.75866E+01 -1.00000E+00  1.55613E-01
      21    -1     0     0   502   501  0.000000000E+00  0.000000000E+00  6.329988340E+02  6.329988340E+02  0.000000000E+00  0.00000E+00  9.000E+00
      21    -1     0     0   501   511  0.000000000E+00  0.000000000E+00 -5.659704128E+01  5.659704128E+01  0.000000000E+00  0.00000E+00  9.000E+00
      25     1     1     2     0     0 -4.439077903E+00  1.364258612E+02  2.846571096E+02  3.395384972E+02  1.250000000E+02  0.00000E+00  9.000E+00
      25     1     1     2     0     0  1.408273222E+00 -1.090062576E+02  2.513701881E+02  3.011582954E+02  1.250000000E+02  0.00000E+00  9.000E+00
      21     1     1     2   502   511  3.030804681E+00 -2.741960361E+01  4.037449504E+01  4.889908270E+01  4.768371582E-07  0.00000E+00  9.000E+00
#rwgt            1           1   4.5430904831096484E-002           9      442565           0
</event>
<event>
      5   9999  3.79277E-02  3.25317E+01 -1.00000E+00  1.50635E-01
      21    -1     0     0   512   501  0.000000000E+00  0.000000000E+00  2.424327171E+02  2.424327171E+02  0.000000000E+00  0.00000E+00  9.000E+00
      21    -1     0     0   501   502  0.000000000E+00  0.000000000E+00 -3.462951650E+02  3.462951650E+02  0.000000000E+00  0.00000E+00  9.000E+00
      25     1     1     2     0     0  1.604016570E+02  1.215312513E+01 -2.344992630E+02  3.106304788E+02  1.250000000E+02  0.00000E+00  9.000E+00
      25     1     1     2     0     0 -1.283055396E+02 -1.745901160E+01  4.360619394E+01  1.851853901E+02  1.250000000E+02  0.00000E+00  9.000E+00
      21     1     1     2   512   502 -3.209611738E+01  5.305886467E+00  8.703062117E+01  9.291201324E+01  1.651812370E-06  0.00000E+00  9.000E+00
#rwgt            1           1  0.10542044825248562                9      442742           0
</event>
<event>
      5   9999  3.79277E-02  4.97015E+01 -1.00000E+00  1.39224E-01
      21    -1     0     0   502   501  0.000000000E+00  0.000000000E+00  1.134123965E+02  1.134123965E+02  0.000000000E+00  0.00000E+00  9.000E+00
       1    -1     0     0   501     0  0.000000000E+00  0.000000000E+00 -2.216499913E+03  2.216499913E+03  0.000000000E+00  0.00000E+00  9.000E+00
      25     1     1     2     0     0 -1.740290047E+02  1.164043701E+02 -1.521738720E+02  2.874333995E+02  1.250000000E+02  0.00000E+00  9.000E+00
      25     1     1     2     0     0  1.245001561E+02 -1.122655943E+02 -1.952025877E+02  2.860645080E+02  1.250000000E+02  0.00000E+00  9.000E+00
       1     1     1     2   502     0  4.952884863E+01 -4.138775821E+00 -1.755711056E+03  1.756414402E+03  4.315837288E-05  0.00000E+00  9.000E+00
#rwgt            1           1   3.8222346341536310E-002           9      442871           0
</event>
<event>
      5   9999  3.79277E-02  7.28626E+00 -1.00000E+00  2.13123E-01
      21    -1     0     0   502   501  0.000000000E+00  0.000000000E+00  2.146724593E+02  2.146724593E+02  0.000000000E+00  0.00000E+00  9.000E+00
      21    -1     0     0   511   502  0.000000000E+00  0.000000000E+00 -1.545740886E+02  1.545740886E+02  0.000000000E+00  0.00000E+00  9.000E+00
      25     1     1     2     0     0 -1.088118199E+02 -4.403589720E+01  7.978494704E+01  1.891290834E+02  1.250000000E+02  0.00000E+00  9.000E+00
      25     1     1     2     0     0  1.048805394E+02  3.790119326E+01 -9.754313065E+00  1.677992092E+02  1.250000000E+02  0.00000E+00  9.000E+00
      21     1     1     2   511   501  3.931280567E+00  6.134703942E+00 -9.932263299E+00  1.231825530E+01  1.192092896E-07  0.00000E+00  9.000E+00
#rwgt            1           1   2.1632224206038771E-002           9      442973           0
</event>
<event>
      5   9999  3.79277E-02  1.39809E+02 -1.00000E+00  1.17618E-01
      21    -1     0     0   502   501  0.000000000E+00  0.000000000E+00  4.956716545E+02  4.956716545E+02  0.000000000E+00  0.00000E+00  9.000E+00
      21    -1     0     0   501   512  0.000000000E+00  0.000000000E+00 -5.028658560E+02  5.028658560E+02  0.000000000E+00  0.00000E+00  9.000E+00
      25     1     1     2     0     0  3.826350911E+02 -3.256811353E+01  2.682556484E+01  4.047405415E+02  1.250000000E+02  0.00000E+00  9.000E+00
      25     1     1     2     0     0 -3.293041077E+02  1.618058718E+02  9.980706056E+01  4.002608960E+02  1.250000000E+02  0.00000E+00  9.000E+00
      21     1     1     2   502   512 -5.333098339E+01 -1.292377583E+02 -1.338268269E+02  1.935360730E+02  2.697398305E-06  0.00000E+00  9.000E+00
#rwgt            1           1   5.5381252107741044E-002           9      443431           0
</event>
<event>
      5   9999  3.79277E-02  1.14489E+02 -1.00000E+00  1.21241E-01
      21    -1     0     0   511   501  0.000000000E+00  0.000000000E+00  1.455154161E+02  1.455154161E+02  0.000000000E+00  0.00000E+00  9.000E+00
      21    -1     0     0   501   502  0.000000000E+00  0.000000000E+00 -5.910256055E+02  5.910256055E+02  0.000000000E+00  0.00000E+00  9.000E+00
      25     1     1     2     0     0 -2.076441780E+02  1.052789274E+02 -1.070525830E+02  2.851052660E+02  1.250000000E+02  0.00000E+00  9.000E+00
      25     1     1     2     0     0  1.011772094E+02 -6.317792777E+01 -2.617177898E+02  3.136072062E+02  1.250000000E+02  0.00000E+00  9.000E+00
      21     1     1     2   511   502  1.064669686E+02 -4.210099963E+01 -7.673981660E+01  1.378285494E+02  9.536743164E-07  0.00000E+00  9.000E+00
#rwgt            1           1   1.6590391117853421E-002           9      443561           0
</event>
<event>
      5   9999  3.79277E-02  5.34256E+01 -1.00000E+00  1.37453E-01
      21    -1     0     0   502   501  0.000000000E+00  0.000000000E+00  2.184808753E+03  2.184808753E+03  0.000000000E+00  0.00000E+00  9.000E+00
      21    -1     0     0   512   502  0.000000000E+00  0.000000000E+00 -3.040148249E+01  3.040148249E+01  0.000000000E+00  0.00000E+00  9.000E+00
      25     1     1     2     0     0 -1.432625086E+02 -8.200537332E+01  6.834447815E+02  7.141223964E+02  1.250000000E+02  0.00000E+00  9.000E+00
      25     1     1     2     0     0  1.686475883E+02  3.499584507E+01  1.373972406E+03  1.390356750E+03  1.250000000E+02  0.00000E+00  9.000E+00
      21     1     1     2   512   501 -2.538507962E+01  4.700952825E+01  9.699008251E+01  1.107310892E+02  2.336015456E-06  0.00000E+00  9.000E+00
#rwgt            1           1   9.2251944700419072E-002           9      443655           0
</event>
<event>
      5   9999  3.79277E-02  1.68534E+02 -1.00000E+00  1.14423E-01
      21    -1     0     0   502   501  0.000000000E+00  0.000000000E+00  4.569405890E+02  4.569405890E+02  0.000000000E+00  0.00000E+00  9.000E+00
      21    -1     0     0   511   502  0.000000000E+00  0.000000000E+00 -1.470780805E+03  1.470780805E+03  0.000000000E+00  0.00000E+00  9.000E+00
      25     1     1     2     0     0  1.984849905E+02  1.890940358E+02 -4.341956669E+01  3.044061508E+02  1.250000000E+02  0.00000E+00  9.000E+00
      25     1     1     2     0     0 -5.557534967E+01 -2.784278302E+02  2.456005157E+02  3.956706831E+02  1.250000000E+02  0.00000E+00  9.000E+00
      21     1     1     2   511   501 -1.429096409E+02  8.933379435E+01 -1.216021165E+03  1.227644560E+03  1.525878906E-05  0.00000E+00  9.000E+00
#rwgt            1           1   5.1997679709587900E-002           9      443848           0
</event>
<event>
      5   9999  3.79277E-02  2.84247E+01 -1.00000E+00  1.54685E-01
      21    -1     0     0   512   501  0.000000000E+00  0.000000000E+00  6.668549417E+01  6.668549417E+01  0.000000000E+00  0.00000E+00  9.000E+00
      21    -1     0     0   501   502  0.000000000E+00  0.000000000E+00 -7.752330604E+02  7.752330604E+02  0.000000000E+00  0.00000E+00  9.000E+00
      25     1     1     2     0     0 -1.304586054E+02 -3.678695734E+01 -2.483664704E+02  3.093277090E+02  1.250000000E+02  0.00000E+00  9.000E+00
      25     1     1     2     0     0  1.587317902E+02  3.385578058E+01 -4.606650965E+02  5.041620039E+02  1.250000000E+02  0.00000E+00  9.000E+00
      21     1     1     2   512   502 -2.827318481E+01  2.931176761E+00  4.840007038E-01  2.842884157E+01  7.124952477E-07  0.00000E+00  9.000E+00
#rwgt            1           1   4.0395915906004186E-002           9      443931           0
</event>
<event>
      5   9999  3.79277E-02  5.77736E+01 -1.00000E+00  1.35587E-01
      21    -1     0     0   511   501  0.000000000E+00  0.000000000E+00  1.164304435E+02  1.164304435E+02  0.000000000E+00  0.00000E+00  9.000E+00
      21    -1     0     0   501   502  0.000000000E+00  0.000000000E+00 -7.818022266E+02  7.818022266E+02  0.000000000E+00  0.00000E+00  9.000E+00
      25     1     1     2     0     0 -6.189574101E+01  4.700684011E+01 -6.908771758E+02  7.063830391E+02  1.250000000E+02  0.00000E+00  9.000E+00
      25     1     1     2     0     0  6.521374911E+00 -3.053056390E+01  3.575732701E-01  1.288401006E+02  1.250000000E+02  0.00000E+00  9.000E+00
      21     1     1     2   511   502  5.537436610E+01 -1.647627621E+01  2.514781948E+01  6.300953041E+01  9.536743164E-07  0.00000E+00  9.000E+00
#rwgt            1           1   5.1290011736071783E-002           9      444007           0
</event>
<event>
      5   9999  3.79277E-02  9.17222E+01 -1.00000E+00  1.25540E-01
      21    -1     0     0   502   501  0.000000000E+00  0.000000000E+00  3.654145533E+02  3.654145533E+02  0.000000000E+00  0.00000E+00  9.000E+00
      21    -1     0     0   501   512  0.000000000E+00  0.000000000E+00 -9.097330541E+02  9.097330541E+02  0.000000000E+00  0.00000E+00  9.000E+00
      25     1     1     2     0     0  2.636257346E+02 -5.934563561E+01  1.801723929E+02  3.480050626E+02  1.250000000E+02  0.00000E+00  9.000E+00
      25     1     1     2     0     0 -2.269018657E+02 -2.470387068E+01 -7.446132218E+01  2.706736529E+02  1.250000000E+02  0.00000E+00  9.000E+00
      21     1     1     2   502   512 -3.672386890E+01  8.404950629E+01 -6.500295716E+02  6.564688919E+02  0.000000000E+00  0.00000E+00  9.000E+00
#rwgt            1           1   3.6771876999435286E-002           9      444129           0
</event>
<event>
      5   9999  3.79277E-02  5.35826E+01 -1.00000E+00  1.37382E-01
      21    -1     0     0   502   501  0.000000000E+00  0.000000000E+00  4.663339121E+02  4.663339121E+02  0.000000000E+00  0.00000E+00  9.000E+00
      21    -1     0     0   501   511  0.000000000E+00  0.000000000E+00 -2.886538264E+02  2.886538264E+02  0.000000000E+00  0.00000E+00  9.000E+00
      25     1     1     2     0     0  2.631214046E+01 -1.715128669E+02 -4.414321026E+01  2.183634935E+02  1.250000000E+02  0.00000E+00  9.000E+00
      25     1     1     2     0     0 -2.735343483E+01  2.250853000E+02  3.278908793E+02  4.177906550E+02  1.250000000E+02  0.00000E+00  9.000E+00
      21     1     1     2   502   511  1.041294373E+00 -5.357243303E+01 -1.060675834E+02  1.188335900E+02  1.348699152E-06  0.00000E+00  9.000E+00
#rwgt            2          11   1.0104272043238210E-003           9      444242           0
</event>
<event>
      5   9999  3.79277E-02  1.70908E+01 -1.00000E+00  1.72206E-01
       2    -1     0     0   502     0  0.000000000E+00  0.000000000E+00  1.063155502E+03  1.063155502E+03  0.000000000E+00  0.00000E+00  9.000E+00
      21    -1     0     0   501   502  0.000000000E+00  0.000000000E+00 -7.823157777E+02  7.823157777E+02  0.000000000E+00  0.00000E+00  9.000E+00
      25     1     1     2     0     0  1.539362657E+02 -3.077936689E+02 -1.503787042E+02  3.958182300E+02  1.250000000E+02  0.00000E+00  9.000E+00
      25     1     1     2     0     0 -1.677600455E+02  2.977437850E+02 -4.441118063E+02  5.741559813E+02  1.250000000E+02  0.00000E+00  9.000E+00
       2     1     1     2   501     0  1.382377984E+01  1.004988390E+01  8.753302350E+02  8.754970687E+02  1.078959322E-05  0.00000E+00  9.000E+00
#rwgt            1           1   2.8589906071744806E-002           9      444457           0
</event>
<event>
      5   9999  3.79277E-02  6.26784E+01 -1.00000E+00  1.33698E-01
      21    -1     0     0   502   501  0.000000000E+00  0.000000000E+00  1.424702008E+03  1.424702008E+03  0.000000000E+00  0.00000E+00  9.000E+00
      21    -1     0     0   501   511  0.000000000E+00  0.000000000E+00 -4.666695049E+01  4.666695049E+01  0.000000000E+00  0.00000E+00  9.000E+00
      25     1     1     2     0     0  9.445568404E+01 -7.939932628E+01  1.130092906E+03  1.143661272E+03  1.250000000E+02  0.00000E+00  9.000E+00
      25     1     1     2     0     0 -4.012638621E+01  4.814384350E+01  2.161253502E+02  2.574162457E+02  1.250000000E+02  0.00000E+00  9.000E+00
      21     1     1     2   502   511 -5.432929783E+01  3.125548278E+01  3.181680160E+01  7.029144095E+01  1.685873940E-06  0.00000E+00  9.000E+00
#rwgt            1           1   5.1476413928128975E-002           9      444793           0
</event>
<event>
      5   9999  3.79277E-02  3.48185E+01 -1.00000E+00  1.48679E-01
      21    -1     0     0   502   501  0.000000000E+00  0.000000000E+00  2.216479829E+02  2.216479829E+02  0.000000000E+00  0.00000E+00  9.000E+00
      21    -1     0     0   501   512  0.000000000E+00  0.000000000E+00 -3.336447978E+02  3.336447978E+02  0.000000000E+00  0.00000E+00  9.000E+00
      25     1     1     2     0     0  2.063957349E+02  6.108503121E+01 -4.690076768E+01  2.532888912E+02  1.250000000E+02  0.00000E+00  9.000E+00
      25     1     1     2     0     0 -1.826245349E+02 -8.652628988E+01 -1.125699098E+01  2.378870308E+02  1.250000000E+02  0.00000E+00  9.000E+00
      21     1     1     2   502   512 -2.377120001E+01  2.544125867E+01 -5.383905616E+01  6.411685863E+01  9.536743164E-07  0.00000E+00  9.000E+00
#rwgt            1           1   3.0766507403730430E-002           9      444894           0
</event>
<event>
      5   9999  3.79277E-02  3.09988E+01 -1.00000E+00  1.52058E-01
      21    -1     0     0   502   511  0.000000000E+00  0.000000000E+00  4.156775181E+01  4.156775181E+01  0.000000000E+00  0.00000E+00  9.000E+00
      21    -1     0     0   501   502  0.000000000E+00  0.000000000E+00 -1.868674506E+03  1.868674506E+03  0.000000000E+00  0.00000E+00  9.000E+00
      25     1     1     2     0     0 -5.656424737E+01 -1.412051680E+02 -8.130863903E+02  8.365840613E+02  1.250000000E+02  0.00000E+00  9.000E+00
      25     1     1     2     0     0  4.049518032E+01  1.677138735E+02 -1.020063372E+03  1.042075854E+03  1.250000000E+02  0.00000E+00  9.000E+00
      21     1     1     2   501   511  1.606906705E+01 -2.650870551E+01  6.043008302E+00  3.158234210E+01  1.025477084E-06  0.00000E+00  9.000E+00
#rwgt            1           1  0.13387593830968861                9      445074           0
</event>
<event>
      5   9999  3.79277E-02  4.80821E+01 -1.00000E+00  1.40052E-01
      21    -1     0     0   502   501  0.000000000E+00  0.000000000E+00  2.189489899E+02  2.189489899E+02  0.000000000E+00  0.00000E+00  9.000E+00
       1    -1     0     0   501     0  0.000000000E+00  0.000000000E+00 -3.475860009E+02  3.475860009E+02  0.000000000E+00  0.00000E+00  9.000E+00
      25     1     1     2     0     0 -1.692017673E+02  9.362794748E+00  2.868381956E+01  2.125197908E+02  1.250000000E+02  0.00000E+00  9.000E+00
      25     1     1     2     0     0  1.235459884E+02 -2.444369601E+01  1.214684741E+01  1.778585152E+02  1.250000000E+02  0.00000E+00  9.000E+00
       1     1     1     2   502     0  4.565577891E+01  1.508090127E+01 -1.694676780E+02  1.761566848E+02  0.000000000E+00  0.00000E+00  9.000E+00
#rwgt            1           1   4.3697452916900359E-002           9      445154           0
</event>
<event>
      5   9999  3.79277E-02  2.43239E+01 -1.00000E+00  1.59648E-01
      21    -1     0     0   502   501  0.000000000E+00  0.000000000E+00  2.885750640E+02  2.885750640E+02  0.000000000E+00  0.00000E+00  9.000E+00
      21    -1     0     0   511   502  0.000000000E+00  0.000000000E+00 -1.322721018E+02  1.322721018E+02  0.000000000E+00  0.00000E+00  9.000E+00
      25     1     1     2     0     0 -2.847679161E+01  1.158190382E+02  9.444075804E+01  1.968985375E+02  1.250000000E+02  0.00000E+00  9.000E+00
      25     1     1     2     0     0  2.479538474E+01 -1.398627226E+02  6.346356965E+01  1.995720846E+02  1.250000000E+02  0.00000E+00  9.000E+00
      21     1     1     2   511   501  3.681406864E+00  2.404368436E+01 -1.601365499E+00  2.437654376E+01  2.096779239E-07  0.00000E+00  9.000E+00
#rwgt            1           1   4.1050651326918680E-002           9      445221           0
</event>
<event>
      5   9999  3.79277E-02  5.31348E+00 -1.00000E+00  2.33993E-01
      21    -1     0     0   502   501  0.000000000E+00  0.000000000E+00  4.801996070E+02  4.801996070E+02  0.000000000E+00  0.00000E+00  9.000E+00
      21    -1     0     0   512   502  0.000000000E+00  0.000000000E+00 -1.788651917E+02  1.788651917E+02  0.000000000E+00  0.00000E+00  9.000E+00
      25     1     1     2     0     0  2.445622948E+02  6.071707279E+01  9.386282978E+01  2.965341629E+02  1.250000000E+02  0.00000E+00  9.000E+00
      25     1     1     2     0     0 -2.482880895E+02 -6.450541107E+01  2.120432620E+02  3.555211223E+02  1.250000000E+02  0.00000E+00  9.000E+00
      21     1     1     2   512   501  3.725794732E+00  3.788338280E+00 -4.571676464E+00  7.009513464E+00  5.960464478E-08  0.00000E+00  9.000E+00
#rwgt            1           1   3.2152047472268859E-002           9      445390           0
</event>
<event>
      5   9999  3.79277E-02  3.82847E+01 -1.00000E+00  1.46031E-01
      21    -1     0     0   502   511  0.000000000E+00  0.000000000E+00  2.927582184E+02  2.927582184E+02  0.000000000E+00  0.00000E+00  9.000E+00
      21    -1     0     0   501   502  0.000000000E+00  0.000000000E+00 -1.609590912E+02  1.609590912E+02  0.000000000E+00  0.00000E+00  9.000E+00
      25     1     1     2     0     0  7.789499759E+01  6.131394267E+01 -5.222683365E+01  1.678680207E+02  1.250000000E+02  0.00000E+00  9.000E+00
      25     1     1     2     0     0 -7.532370644E+01 -9.951219157E+01  1.286291043E+02  2.185103739E+02  1.250000000E+02  0.00000E+00  9.000E+00
      21     1     1     2   501   511 -2.571291146E+00  3.819824890E+01  5.539685659E+01  6.733891503E+01  9.536743164E-07  0.00000E+00  9.000E+00
#rwgt            1           1   3.4154240018350608E-002           9      446054           0
</event>
<event>
      5   9999  3.79277E-02  2.07999E+02 -1.00000E+00  1.11032E-01
      21    -1     0     0   512   501  0.000000000E+00  0.000000000E+00  1.160955827E+03  1.160955827E+03  0.000000000E+00  0.00000E+00  9.000E+00
      21    -1     0     0   501   502  0.000000000E+00  0.000000000E+00 -8.238622259E+01  8.238622259E+01  0.000000000E+00  0.00000E+00  9.000E+00
      25     1     1     2     0     0  2.348260657E+02 -2.393271231E+01  3.637341605E+02  4.512688726E+02  1.250000000E+02  0.00000E+00  9.000E+00
      25     1     1     2     0     0 -2.723118339E+01  3.688757957E+01  2.829387504E+02  3.127004435E+02  1.250000000E+02  0.00000E+00  9.000E+00
      21     1     1     2   512   502 -2.075948823E+02 -1.295486726E+01  4.318966930E+02  4.793727331E+02  5.394796609E-06  0.00000E+00  9.000E+00
#rwgt            1           1   4.6518133857797982E-002           9      446319           0
</event>
<event>
      5   9999  3.79277E-02  2.08619E+01 -1.00000E+00  1.64871E-01
      21    -1     0     0   502   501  0.000000000E+00  0.000000000E+00  3.748578537E+01  3.748578537E+01  0.000000000E+00  0.00000E+00  9.000E+00
      21    -1     0     0   501   511  0.000000000E+00  0.000000000E+00 -1.496593936E+03  1.496593936E+03  0.000000000E+00  0.00000E+00  9.000E+00
      25     1     1     2     0     0 -1.416814445E+02 -8.895080940E+01 -3.923786016E+02  4.444905457E+02  1.250000000E+02  0.00000E+00  9.000E+00
      25     1     1     2     0     0  1.223771268E+02  9.686037563E+01 -9.947163395E+02  1.014615045E+03  1.250000000E+02  0.00000E+00  9.000E+00
      21     1     1     2   502   511  1.930431769E+01 -7.909566233E+00 -7.201320972E+01  7.497413083E+01  1.348699152E-06  0.00000E+00  9.000E+00
#rwgt            1           1   3.4255997160479564E-002           9      446370           0
</event>
<event>
      5   9999  3.79277E-02  2.29657E+01 -1.00000E+00  1.61562E-01
      21    -1     0     0   502   501  0.000000000E+00  0.000000000E+00  5.444693331E+02  5.444693331E+02  0.000000000E+00  0.00000E+00  9.000E+00
      21    -1     0     0   512   502  0.000000000E+00  0.000000000E+00 -8.099539763E+01  8.099539763E+01  0.000000000E+00  0.00000E+00  9.000E+00
      25     1     1     2     0     0 -9.929027661E+01  5.523641221E+01  3.890643850E+02  4.241529394E+02  1.250000000E+02  0.00000E+00  9.000E+00
      25     1     1     2     0     0  8.054948215E+01 -6.851063064E+01  6.102965545E+01  1.747327801E+02  1.250000000E+02  0.00000E+00  9.000E+00
      21     1     1     2   512   501  1.874079446E+01  1.327421843E+01  1.337989498E+01  2.657901130E+01  4.768371582E-07  0.00000E+00  9.000E+00
#rwgt            1           1   4.7019133298451934E-002           9      446581           0
</event>
<event>
      5   9999  3.79277E-02  3.53993E+02 -1.00000E+00  1.03308E-01
      21    -1     0     0   502   501  0.000000000E+00  0.000000000E+00  5.996440554E+02  5.996440554E+02  0.000000000E+00  0.00000E+00  9.000E+00
      21    -1     0     0   511   502  0.000000000E+00  0.000000000E+00 -1.282988816E+03  1.282988816E+03  0.000000000E+00  0.00000E+00  9.000E+00
      25     1     1     2     0     0  2.195000013E+02  5.667758153E+02 -2.997101822E+01  6.212393559E+02  1.250000000E+02  0.00000E+00  9.000E+00
      25     1     1     2     0     0 -5.367609864E+02 -4.097513351E+02 -2.655607816E+02  7.363124621E+02  1.250000000E+02  0.00000E+00  9.000E+00
      21     1     1     2   511   501  3.172609851E+02 -1.570244803E+02 -3.878129604E+02  5.250810531E+02  7.629394531E-06  0.00000E+00  9.000E+00
#rwgt            2          11   2.8231619772871967E-003           9      446942           0
</event>
<event>
      5   9999  3.79277E-02  3.91229E+01 -1.00000E+00  1.45440E-01
      21    -1     0     0   512   501  0.000000000E+00  0.000000000E+00  9.217118231E+02  9.217118231E+02  0.000000000E+00  0.00000E+00  9.000E+00
      21    -1     0     0   501   502  0.000000000E+00  0.000000000E+00 -1.786135399E+02  1.786135399E+02  0.000000000E+00  0.00000E+00  9.000E+00
      25     1     1     2     0     0 -1.109310432E+02 -9.029774623E+01 -8.176866962E+01  2.068102866E+02  1.250000000E+02  0.00000E+00  9.000E+00
      25     1     1     2     0     0  8.000883109E+01  6.633070379E+01  1.620179304E+02  2.295124944E+02  1.250000000E+02  0.00000E+00  9.000E+00
      21     1     1     2   512   502  3.092221210E+01  2.396704245E+01  6.628490224E+02  6.640025819E+02  7.629394531E-06  0.00000E+00  9.000E+00
#rwgt            1           1   3.9155610416764366E-002           9      447007           0
</event>
<event>
      5   9999  3.79277E-02  3.55446E+01 -1.00000E+00  1.48094E-01
      21    -1     0     0   511   501  0.000000000E+00  0.000000000E+00  5.740826298E+02  5.740826298E+02  0.000000000E+00  0.00000E+00  9.000E+00
      21    -1     0     0   501   502  0.000000000E+00  0.000000000E+00 -2.508034513E+02  2.508034513E+02  0.000000000E+00  0.00000E+00  9.000E+00
      25     1     1     2     0     0 -1.737221007E+01 -8.611927637E+01  1.943364632E+02  2.472043373E+02  1.250000000E+02  0.00000E+00  9.000E+00
      25     1     1     2     0     0  5.131812754E+01  9.665934987E+01 -1.925004161E+02  2.542793549E+02  1.250000000E+02  0.00000E+00  9.000E+00
      21     1     1     2   511   502 -3.394591746E+01 -1.054007349E+01  3.214431314E+02  3.234023889E+02  0.000000000E+00  0.00000E+00  9.000E+00
#rwgt            1           1   3.1593746479826532E-002           9      447138           0
</event>
<event>
      5   9999  3.79277E-02  9.50655E+01 -1.00000E+00  1.24825E-01
      21    -1     0     0   502   512  0.000000000E+00  0.000000000E+00  4.006355055E+01  4.006355055E+01  0.000000000E+00  0.00000E+00  9.000E+00
      21    -1     0     0   501   502  0.000000000E+00  0.000000000E+00 -1.132383869E+03  1.132383869E+03  0.000000000E+00  0.00000E+00  9.000E+00
      25     1     1     2     0     0  3.506814435E+01  1.184001976E+02 -5.523169560E+02  5.795924442E+02  1.250000000E+02  0.00000E+00  9.000E+00
      25     1     1     2     0     0 -4.667574028E+01 -2.404599054E+01 -4.097586981E+02  4.316063311E+02  1.250000000E+02  0.00000E+00  9.000E+00
      21     1     1     2   501   512  1.160759594E+01 -9.435420711E+01 -1.302446647E+02  1.612486445E+02  0.000000000E+00  0.00000E+00  9.000E+00
#rwgt            1           1   9.1516029800364204E-002           9      447273           0
</event>
<event>
      5   9999  3.79277E-02  4.44593E+01 -1.00000E+00  1.42050E-01
      21    -1     0     0   511   501  0.000000000E+00  0.000000000E+00  2.416631477E+03  2.416631477E+03  0.000000000E+00  0.00000E+00  9.000E+00
      21    -1     0     0   501   502  0.000000000E+00  0.000000000E+00 -3.271155116E+01  3.271155116E+01  0.000000000E+00  0.00000E+00  9.000E+00
      25     1     1     2     0     0  5.641574002E+01  2.123998285E+01  1.767915049E+03  1.773353459E+03  1.250000000E+02  0.00000E+00  9.000E+00
      25     1     1     2     0     0 -1.701277627E+01 -4.183202183E+01  1.233328830E+02  1.813156161E+02  1.250000000E+02  0.00000E+00  9.000E+00
      21     1     1     2   511   502 -3.940296375E+01  2.059203898E+01  4.926719945E+02  4.946739531E+02  0.000000000E+00  0.00000E+00  9.000E+00
#rwgt            1           1   4.1849938973427404E-002           9      447358           0
</event>
<event>
      5   9999  3.79277E-02  2.25063E+02 -1.00000E+00  1.09813E-01
      21    -1     0     0   502   501  0.000000000E+00  0.000000000E+00  2.394815938E+02  2.394815938E+02  0.000000000E+00  0.00000E+00  9.000E+00
       2    -1     0     0   501     0  0.000000000E+00  0.000000000E+00 -1.685542965E+03  1.685542965E+03  0.000000000E+00  0.00000E+00  9.000E+00
      25     1     1     2     0     0  1.830488640E+02  1.165652340E+02  1.309456276E+01  2.507803979E+02  1.250000000E+02  0.00000E+00  9.000E+00
      25     1     1     2     0     0 -1.347206426E+00 -2.493734938E+02 -9.962155922E+01  2.962067005E+02  1.250000000E+02  0.00000E+00  9.000E+00
       2     1     1     2   502     0 -1.817016575E+02  1.328082598E+02 -1.359534375E+03  1.378037461E+03  1.525878906E-05  0.00000E+00  9.000E+00
#rwgt            1           1   2.9711546853807905E-002           9      447491           0
</event>
<event>
      5   9999  3.79277E-02  4.87441E+01 -1.00000E+00  1.39709E-01
      21    -1     0     0   502   501  0.000000000E+00  0.000000000E+00  3.959291409E+01  3.959291409E+01  0.000000000E+00  0.00000E+00  9.000E+00
       2    -1     0     0   501     0  0.000000000E+00  0.000000000E+00 -1.228441411E+03  1.228441411E+03  0.000000000E+00  0.00000E+00  9.000E+00
      25     1     1     2     0     0 -8.995104295E+01 -5.949741577E+01 -2.676991547E+02  3.145138630E+02  1.250000000E+02  0.00000E+00  9.000E+00
      25     1     1     2     0     0  1.386856193E+02  5.853618955E+01 -7.809630881E+02  8.051015659E+02  1.250000000E+02  0.00000E+00  9.000E+00
       2     1     1     2   502     0 -4.873457638E+01  9.612262201E-01 -1.401862545E+02  1.484188965E+02  2.697398305E-06  0.00000E+00  9.000E+00
#rwgt            1           1   4.6682112284780711E-002           9      447618           0
</event>
<event>
      5   9999  3.79277E-02  2.37990E+01 -1.00000E+00  1.60369E-01
      21    -1     0     0   511   501  0.000000000E+00  0.000000000E+00  1.387186254E+03  1.387186254E+03  0.000000000E+00  0.00000E+00  9.000E+00
      21    -1     0     0   501   502  0.000000000E+00  0.000000000E+00 -1.872849137E+02  1.872849137E+02  0.000000000E+00  0.00000E+00  9.000E+00
      25     1     1     2     0     0 -1.354357538E+02  2.963181066E+02  1.196022993E+02  3.688861257E+02  1.250000000E+02  0.00000E+00  9.000E+00
      25     1     1     2     0     0  1.118449393E+02 -2.931768444E+02  3.943743658E+02  5.192476220E+02  1.250000000E+02  0.00000E+00  9.000E+00
      21     1     1     2   511   502  2.359081452E+01 -3.141262229E+00  6.859246749E+02  6.863374197E+02  1.321449896E-05  0.00000E+00  9.000E+00
#rwgt            1           1   2.7731767263764119E-002           9      447785           0
</event>
<event>
      5   9999  3.79277E-02  1.43717E+02 -1.00000E+00  1.17135E-01
      21    -1     0     0   502   512  0.000000000E+00  0.000000000E+00  9.123895680E+02  9.123895680E+02  0.000000000E+00  0.00000E+00  9.000E+00
      21    -1     0     0   501   502  0.000000000E+00  0.000000000E+00 -1.210961973E+02  1.210961973E+02  0.000000000E+00  0.00000E+00  9.000E+00
      25     1     1     2     0     0 -2.010252018E+02 -3.667041686E+01  3.267406076E+02  4.051422909E+02  1.250000000E+02  0.00000E+00  9.000E+00
      25     1     1     2     0     0  1.545744311E+02 -9.933310069E+01  1.146162727E+02  2.500444152E+02  1.250000000E+02  0.00000E+00  9.000E+00
      21     1     1     2   501   512  4.645077070E+01  1.360035176E+02  3.499364905E+02  3.782990593E+02  5.394796609E-06  0.00000E+00  9.000E+00
#rwgt            1           1   4.1797362722226075E-002           9      448111           0
</event>
<event>
      5   9999  3.79277E-02  1.24977E+02 -1.00000E+00  1.19624E-01
      21    -1     0     0   502   501  0.000000000E+00  0.000000000E+00  2.350918869E+02  2.350918869E+02  0.000000000E+00  0.00000E+00  9.000E+00
      21    -1     0     0   501   511  0.000000000E+00  0.000000000E+00 -9.113983391E+02  9.113983391E+02  0.000000000E+00  0.00000E+00  9.000E+00
      25     1     1     2     0     0  1.663447511E+01  1.737787926E+02  1.242052245E+02  2.480478024E+02  1.250000000E+02  0.00000E+00  9.000E+00
      25     1     1     2     0     0 -4.267773206E+01 -5.154498094E+01 -7.149689494E+01  1.587925687E+02  1.250000000E+02  0.00000E+00  9.000E+00
      21     1     1     2   502   511  2.604325695E+01 -1.222338116E+02 -7.290147817E+02  7.396498549E+02  1.078959322E-05  0.00000E+00  9.000E+00
#rwgt            2          11   2.0510409304947482E-003           9      448148           0
</event>
<event>
      5   9999  3.79277E-02  6.85263E+00 -1.00000E+00  2.16868E-01
      21    -1     0     0   502   501  0.000000000E+00  0.000000000E+00  2.896430543E+02  2.896430543E+02  0.000000000E+00  0.00000E+00  9.000E+00
      21    -1     0     0   512   502  0.000000000E+00  0.000000000E+00 -2.244689193E+02  2.244689193E+02  0.000000000E+00  0.00000E+00  9.000E+00
      25     1     1     2     0     0 -3.484611142E+01 -9.558385011E+01 -8.959493442E+01  1.843984169E+02  1.250000000E+02  0.00000E+00  9.000E+00
      25     1     1     2     0     0  2.803488959E+01  9.633600166E+01  2.155131073E+02  2.685842134E+02  1.250000000E+02  0.00000E+00  9.000E+00
      21     1     1     2   512   501  6.811221835E+00 -7.521515515E-01 -6.074403789E+01  6.112934331E+01  6.743495762E-07  0.00000E+00  9.000E+00
#rwgt            1           1   2.9798844066411485E-002           9      448183           0
</event>
<event>
      5   9999  3.79277E-02  3.83259E+01 -1.00000E+00  1.46001E-01
      21    -1     0     0   502   501  0.000000000E+00  0.000000000E+00  3.401449744E+02  3.401449744E+02  0.000000000E+00  0.00000E+00  9.000E+00
      21    -1     0     0   501   511  0.000000000E+00  0.000000000E+00 -2.236017396E+02  2.236017396E+02  0.000000000E+00  0.00000E+00  9.000E+00
      25     1     1     2     0     0 -1.265071237E+02  1.084868695E+02  2.091372400E+02  2.951894956E+02  1.250000000E+02  0.00000E+00  9.000E+00
      25     1     1     2     0     0  1.265917435E+02 -7.016110756E+01 -2.776374016E+01  1.932456359E+02  1.250000000E+02  0.00000E+00  9.000E+00
      21     1     1     2   502   511 -8.461978800E-02 -3.832576193E+01 -6.483026500E+01  7.531158243E+01  0.000000000E+00  0.00000E+00  9.000E+00
#rwgt            1           1   3.6473874528432738E-002           9      448646           0
</event>
<event>
      5   9999  3.79277E-02  1.14461E+02 -1.00000E+00  1.21246E-01
      21    -1     0     0   502   501  0.000000000E+00  0.000000000E+00  1.043490867E+02  1.043490867E+02  0.000000000E+00  0.00000E+00  9.000E+00
      -1    -1     0     0     0   502  0.000000000E+00  0.000000000E+00 -7.420514170E+02  7.420514170E+02  0.000000000E+00  0.00000E+00  9.000E+00
      25     1     1     2     0     0  1.826866509E+02  3.142751176E+01 -3.959235802E+02  4.546895450E+02  1.250000000E+02  0.00000E+00  9.000E+00
      25     1     1     2     0     0 -8.559236536E+01 -9.204153235E+01 -8.237641505E+01  1.954701267E+02  1.250000000E+02  0.00000E+00  9.000E+00
      -1     1     1     2     0   501 -9.709428554E+01  6.061402058E+01 -1.594023350E+02  1.962408321E+02  1.907348633E-06  0.00000E+00  9.000E+00
#rwgt            1           1   3.7964638138095981E-002           9      448768           0
</event>
<event>
      5   9999  3.79277E-02  2.52126E+01 -1.00000E+00  1.58476E-01
      21    -1     0     0   502   511  0.000000000E+00  0.000000000E+00  1.982647738E+02  1.982647738E+02  0.000000000E+00  0.00000E+00  9.000E+00
      21    -1     0     0   501   502  0.000000000E+00  0.000000000E+00 -1.236186234E+02  1.236186234E+02  0.000000000E+00  0.00000E+00  9.000E+00
      25     1     1     2     0     0  3.523045316E+01 -5.595096845E+01 -5.749961526E+00  1.415265267E+02  1.250000000E+02  0.00000E+00  9.000E+00
      25     1     1     2     0     0 -3.654668429E+01  3.077274389E+01  5.533797945E+01  1.448099232E+02  1.250000000E+02  0.00000E+00  9.000E+00
      21     1     1     2   501   511  1.316231132E+00  2.517822457E+01  2.505813248E+01  3.554694727E+01  3.371747881E-07  0.00000E+00  9.000E+00
#rwgt            1           1   3.5257365455276628E-002           9      448828           0
</event>
<event>
      5   9999  3.79277E-02  1.07210E+02 -1.00000E+00  1.22483E-01
      21    -1     0     0   502   501  0.000000000E+00  0.000000000E+00  2.685228624E+02  2.685228624E+02  0.000000000E+00  0.00000E+00  9.000E+00
      21    -1     0     0   501   512  0.000000000E+00  0.000000000E+00 -1.086166124E+03  1.086166124E+03  0.000000000E+00  0.00000E+00  9.000E+00
      25     1     1     2     0     0  2.183906607E+02  8.600044376E+01 -8.096568841E+01  2.779766172E+02  1.250000000E+02  0.00000E+00  9.000E+00
      25     1     1     2     0     0 -1.920612273E+02  1.792625019E+01  8.723543987E+01  2.458533861E+02  1.250000000E+02  0.00000E+00  9.000E+00
      21     1     1     2   502   512 -2.632943342E+01 -1.039266939E+02 -8.239130135E+02  8.308589836E+02  0.000000000E+00  0.00000E+00  9.000E+00
#rwgt            1           1   3.2084240402570581E-002           9      448992           0
</event>
<event>
      5   9999  3.79277E-02  2.80992E+01 -1.00000E+00  1.55041E-01
      21    -1     0     0   502   501  0.000000000E+00  0.000000000E+00  3.281076895E+02  3.281076895E+02  0.000000000E+00  0.00000E+00  9.000E+00
      -2    -1     0     0     0   502  0.000000000E+00  0.000000000E+00 -7.562263494E+02  7.562263494E+02  0.000000000E+00  0.00000E+00  9.000E+00
      25     1     1     2     0     0  1.630505718E+02 -9.476961390E+01  8.408282928E+01  2.413745862E+02  1.250000000E+02  0.00000E+00  9.000E+00
      25     1     1     2     0     0 -1.846083942E+02  1.127924989E+02  7.047659441E+01  2.596042322E+02  1.250000000E+02  0.00000E+00  9.000E+00
      -2     1     1     2     0   501  2.155782244E+01 -1.802288497E+01 -5.826780836E+02  5.833552204E+02  7.629394531E-06  0.00000E+00  9.000E+00
#rwgt            1           1   3.5849773669479876E-002           9      449080           0
</event>
<event>
      5   9999  3.79277E-02  5.34411E+01 -1.00000E+00  1.37446E-01
      21    -1     0     0   502   501  0.000000000E+00  0.000000000E+00  1.614657924E+02  1.614657924E+02  0.000000000E+00  0.00000E+00  9.000E+00
      21    -1     0     0   501   511  0.000000000E+00  0.000000000E+00 -3.844720624E+02  3.844720624E+02  0.000000000E+00  0.00000E+00  9.000E+00
      25     1     1     2     0     0 -7.889497451E+01 -4.157975797E+01 -1.943602502E+02  2.476978000E+02  1.250000000E+02  0.00000E+00  9.000E+00
      25     1     1     2     0     0  1.047946292E+02  8.832538629E+01  5.980588556E+01  1.948974913E+02  1.250000000E+02  0.00000E+00  9.000E+00
      21     1     1     2   502   511 -2.589965467E+01 -4.674562832E+01 -8.845190540E+01  1.033425636E+02  9.536743164E-07  0.00000E+00  9.000E+00
#rwgt            1           1   4.9656757195601725E-002           9      449210           0
</event>
<event>
      5   9999  3.79277E-02  9.87193E+01 -1.00000E+00  1.24080E-01
      21    -1     0     0   502   501  0.000000000E+00  0.000000000E+00  5.232449007E+02  5.232449007E+02  0.000000000E+00  0.00000E+00  9.000E+00
       2    -1     0     0   501     0  0.000000000E+00  0.000000000E+00 -1.963735940E+03  1.963735940E+03  0.000000000E+00  0.00000E+00  9.000E+00
      25     1     1     2     0     0 -1.681886029E+01  1.373110051E+02  4.506910231E+02  4.877341330E+02  1.250000000E+02  0.00000E+00  9.000E+00
      25     1     1     2     0     0  1.692825182E+01 -3.859177202E+01 -2.978445561E+01  1.352331482E+02  1.250000000E+02  0.00000E+00  9.000E+00
       2     1     1     2   502     0 -1.093915275E-01 -9.871923308E+01 -1.861397607E+03  1.864013559E+03  3.051757812E-05  0.00000E+00  9.000E+00
#rwgt            1           1   3.9367868758780136E-002           9      449359           0
</event>
<event>
      5   9999  3.79277E-02  7.03834E+01 -1.00000E+00  1.31101E-01
      21    -1     0     0   511   501  0.000000000E+00  0.000000000E+00  1.240561971E+02  1.240561971E+02  0.000000000E+00  0.00000E+00  9.000E+00
      21    -1     0     0   501   502  0.000000000E+00  0.000000000E+00 -8.986334209E+02  8.986334209E+02  0.000000000E+00  0.00000E+00  9.000E+00
      25     1     1     2     0     0 -4.045472855E+01  4.172368444E+01 -6.494037111E+02  6.638732039E+02  1.250000000E+02  0.00000E+00  9.000E+00
      25     1     1     2     0     0  8.162178162E+01 -9.881214026E+01 -1.914677211E+02  2.621275310E+02  1.250000000E+02  0.00000E+00  9.000E+00
      21     1     1     2   511   502 -4.116705307E+01  5.708845582E+01  6.629420839E+01  9.668888309E+01  3.162979880E-06  0.00000E+00  9.000E+00
#rwgt            2          11   1.6137671944459989E-003           9      449555           0
</event>
<event>
      5   9999  3.79277E-02  2.37733E+01 -1.00000E+00  1.60405E-01
      21    -1     0     0   502   512  0.000000000E+00  0.000000000E+00  2.378659479E+02  2.378659479E+02  0.000000000E+00  0.00000E+00  9.000E+00
      21    -1     0     0   501   502  0.000000000E+00  0.000000000E+00 -5.521355116E+02  5.521355116E+02  0.000000000E+00  0.00000E+00  9.000E+00
      25     1     1     2     0     0  1.576303440E+02  2.246061856E+01 -2.662726914E+02  3.344816152E+02  1.250000000E+02  0.00000E+00  9.000E+00
      25     1     1     2     0     0 -1.809959665E+02 -2.684449072E+01 -2.019061389E+02  2.997853490E+02  1.250000000E+02  0.00000E+00  9.000E+00
      21     1     1     2   501   512  2.336562249E+01  4.383872153E+00  1.539092667E+02  1.557344953E+02  2.697398305E-06  0.00000E+00  9.000E+00
#rwgt            1           1   3.1560702778483461E-002           9      449575           0
</event>
<event>
      5   9999  3.79277E-02  3.89543E+01 -1.00000E+00  1.45557E-01
       2    -1     0     0   502     0  0.000000000E+00  0.000000000E+00  5.678932278E+02  5.678932278E+02  0.000000000E+00  0.00000E+00  9.000E+00
      21    -1     0     0   501   502  0.000000000E+00  0.000000000E+00 -3.478981465E+02  3.478981465E+02  0.000000000E+00  0.00000E+00  9.000E+00
      25     1     1     2     0     0  1.315667107E+01 -1.379986488E+02 -1.979569120E+02  2.720820906E+02  1.250000000E+02  0.00000E+00  9.000E+00
      25     1     1     2     0     0 -3.996717537E+00  1.001366400E+02 -5.482189865E+01  1.693332838E+02  1.250000000E+02  0.00000E+00  9.000E+00
       2     1     1     2   501     0 -9.159953530E+00  3.786200874E+01  4.727738918E+02  4.743759999E+02  5.394796609E-06  0.00000E+00  9.000E+00
#rwgt            1           1   2.4770241348222054E-002           9      449712           0
</event>
<event>
      5   9999  3.79277E-02  5.98060E+01 -1.00000E+00  1.34779E-01
      21    -1     0     0   511   501  0.000000000E+00  0.000000000E+00  1.389649701E+03  1.389649701E+03  0.000000000E+00  0.00000E+00  9.000E+00
      21    -1     0     0   501   502  0.000000000E+00  0.000000000E+00 -7.252643703E+01  7.252643703E+01  0.000000000E+00  0.00000E+00  9.000E+00
      25     1     1     2     0     0 -2.177153216E+02 -1.243982124E+01  8.145678806E+02  8.524673264E+02  1.250000000E+02  0.00000E+00  9.000E+00
      25     1     1     2     0     0  2.059615995E+02  7.107941875E+01  2.666176426E+02  3.663092022E+02  1.250000000E+02  0.00000E+00  9.000E+00
      21     1     1     2   511   502  1.175372214E+01 -5.863959752E+01  2.359377408E+02  2.433996096E+02  0.000000000E+00  0.00000E+00  9.000E+00
#rwgt            1           1   3.2202391692434600E-002           9      449864           0
</event>
<event>
      5   9999  3.79277E-02  1.00121E+02 -1.00000E+00  1.23804E-01
      21    -1     0     0   502   501  0.000000000E+00  0.000000000E+00  7.396604952E+02  7.396604952E+02  0.000000000E+00  0.00000E+00  9.000E+00
      21    -1     0     0   512   502  0.000000000E+00  0.000000000E+00 -2.177480318E+03  2.177480318E+03  0.000000000E+00  0.00000E+00  9.000E+00
      25     1     1     2     0     0  2.090696426E+02 -4.998134166E+01  7.099562463E+01  2.585993594E+02  1.250000000E+02  0.00000E+00  9.000E+00
      25     1     1     2     0     0 -1.381729264E+02  1.206763195E+02  5.521713932E+02  5.951241712E+02  1.250000000E+02  0.00000E+00  9.000E+00
      21     1     1     2   512   501 -7.089671623E+01 -7.069497783E+01 -2.060986840E+03  2.063417282E+03  0.000000000E+00  0.00000E+00  9.000E+00
#rwgt            1           1   4.3982442311919515E-002           9      450009           0
</event>
<event>
      5   9999  3.79277E-02  4.71279E+01 -1.00000E+00  1.40557E-01
      21    -1     0     0   502   501  0.000000000E+00  0.000000000E+00  1.599390123E+02  1.599390123E+02  0.000000000E+00  0.00000E+00  9.000E+00
      21    -1     0     0   511   502  0.000000000E+00  0.000000000E+00 -2.827230909E+02  2.827230909E+02  0.000000000E+00  0.00000E+00  9.000E+00
      25     1     1     2     0     0  2.053424974E+01  3.323415107E+01  8.316674000E+01  1.551382314E+02  1.250000000E+02  0.00000E+00  9.000E+00
      25     1     1     2     0     0 -6.511220009E+01 -4.852629561E+01 -1.800537184E+02  2.337493133E+02  1.250000000E+02  0.00000E+00  9.000E+00
      21     1     1     2   511   501  4.457795036E+01  1.529214453E+01 -2.589710017E+01  5.377455848E+01  4.768371582E-07  0.00000E+00  9.000E+00
#rwgt            1           1   5.1465201300174040E-002           9      450075           0
</event>
<event>
      5   9999  3.79277E-02  1.85675E+01 -1.00000E+00  1.69077E-01
      21    -1     0     0   512   501  0.000000000E+00  0.000000000E+00  2.188135591E+03  2.188135591E+03  0.000000000E+00  0.00000E+00  9.000E+00
      21    -1     0     0   501   502  0.000000000E+00  0.000000000E+00 -2.851359425E+01  2.851359425E+01  0.000000000E+00  0.00000E+00  9.000E+00
      25     1     1     2     0     0 -4.231496583E+01 -1.213851343E+02  1.379825947E+03  1.391427163E+03  1.250000000E+02  0.00000E+00  9.000E+00
      25     1     1     2     0     0  5.963341918E+01  1.146900326E+02  3.364607897E+02  3.814981144E+02  1.250000000E+02  0.00000E+00  9.000E+00
      21     1     1     2   512   502 -1.731845335E+01  6.695101721E+00  4.433352604E+02  4.437239077E+02  5.394796609E-06  0.00000E+00  9.000E+00
#rwgt            1           1   2.3995624199601818E-002           9      450220           0
</event>
<event>
      5   9999  3.79277E-02  2.39111E+01 -1.00000E+00  1.60213E-01
      21    -1     0     0   502   511  0.000000000E+00  0.000000000E+00  2.494635083E+02  2.494635083E+02  0.000000000E+00  0.00000E+00  9.000E+00
      21    -1     0     0   501   502  0.000000000E+00  0.000000000E+00 -2.625555442E+02  2.625555442E+02  0.000000000E+00  0.00000E+00  9.000E+00
      25     1     1     2     0     0 -1.352988983E+02  4.279955883E+00 -1.798699695E+02  2.574923608E+02  1.250000000E+02  0.00000E+00  9.000E+00
      25     1     1     2     0     0  1.123480937E+02  2.428252054E+00  1.413199320E+02  2.196003500E+02  1.250000000E+02  0.00000E+00  9.000E+00
      21     1     1     2   501   511  2.295080467E+01 -6.708207937E+00  2.545800169E+01  3.492634161E+01  4.768371582E-07  0.00000E+00  9.000E+00
#rwgt            1           1   4.4362280608376346E-002           9      450476           0
</event>
<event>
      5   9999  3.79277E-02  5.99973E+01 -1.00000E+00  1.34704E-01
      21    -1     0     0   502   501  0.000000000E+00  0.000000000E+00  4.457884275E+02  4.457884275E+02  0.000000000E+00  0.00000E+00  9.000E+00
      21    -1     0     0   501   512  0.000000000E+00  0.000000000E+00 -9.388040982E+01  9.388040982E+01  0.000000000E+00  0.00000E+00  9.000E+00
      25     1     1     2     0     0 -6.040685032E+01 -6.290152651E+01  7.938639147E+01  1.718510656E+02  1.250000000E+02  0.00000E+00  9.000E+00
      25     1     1     2     0     0  1.200515556E+02  5.640663185E+01  2.336453894E+02  2.963262595E+02  1.250000000E+02  0.00000E+00  9.000E+00
      21     1     1     2   502   512 -5.964470525E+01  6.494894657E+00  3.887623681E+01  7.149151215E+01  4.768371582E-07  0.00000E+00  9.000E+00
#rwgt            1           1   2.5923278688824269E-002           9      450681           0
</event>
<event>
      5   9999  3.79277E-02  9.71854E+01 -1.00000E+00  1.24388E-01
      21    -1     0     0   502   511  0.000000000E+00  0.000000000E+00  7.436294522E+02  7.436294522E+02  0.000000000E+00  0.00000E+00  9.000E+00
      21    -1     0     0   501   502  0.000000000E+00  0.000000000E+00 -2.919021570E+02  2.919021570E+02  0.000000000E+00  0.00000E+00  9.000E+00
      25     1     1     2     0     0  9.925100289E+01 -3.129872236E+02 -3.264256155E+01  3.528488352E+02  1.250000000E+02  0.00000E+00  9.000E+00
      25     1     1     2     0     0 -1.072346749E+01  2.728889093E+02  1.524397825E+02  3.368178096E+02  1.250000000E+02  0.00000E+00  9.000E+00
      21     1     1     2   501   511 -8.852753540E+01  4.009831424E+01  3.319300743E+02  3.458649643E+02  3.814697266E-06  0.00000E+00  9.000E+00
#rwgt            1           1   3.6001521374831202E-002           9      450811           0
</event>
<event>
      5   9999  3.79277E-02  2.18734E+01 -1.00000E+00  1.63223E-01
      21    -1     0     0   502   512  0.000000000E+00  0.000000000E+00  1.134686475E+02  1.134686475E+02  0.000000000E+00  0.00000E+00  9.000E+00
      21    -1     0     0   501   502  0.000000000E+00  0.000000000E+00 -1.197003475E+03  1.197003475E+03  0.000000000E+00  0.00000E+00  9.000E+00
      25     1     1     2     0     0  9.837363338E+01  2.862527104E+02 -3.779604264E+02  5.000970604E+02  1.250000000E+02  0.00000E+00  9.000E+00
      25     1     1     2     0     0 -8.077154164E+01 -2.732677223E+02 -7.198709945E+02  7.842439280E+02  1.250000000E+02  0.00000E+00  9.000E+00
      21     1     1     2   501   512 -1.760209174E+01 -1.298498813E+01  1.429659379E+01  2.613113363E+01  5.840038640E-07  0.00000E+00  9.000E+00
#rwgt            1           1   3.7500126142726818E-002           9      451002           0
</event>
<event>
      5   9999  3.79277E-02  3.42937E+01 -1.00000E+00  1.49111E-01
      21    -1     0     0   502   501  0.000000000E+00  0.000000000E+00  7.278201286E+02  7.278201286E+02  0.000000000E+00  0.00000E+00  9.000E+00
      21    -1     0     0   511   502  0.000000000E+00  0.000000000E+00 -7.033075928E+01  7.033075928E+01  0.000000000E+00  0.00000E+00  9.000E+00
      25     1     1     2     0     0 -6.469527007E+01  1.200296383E+02  5.012291772E+02  5.342736005E+02  1.250000000E+02  0.00000E+00  9.000E+00
      25     1     1     2     0     0  4.196784327E+01 -9.434849265E+01  1.618944090E+02  2.291238477E+02  1.250000000E+02  0.00000E+00  9.000E+00
      21     1     1     2   511   501  2.272742680E+01 -2.568114566E+01 -5.634216889E+00  3.475343971E+01  4.256623047E-07  0.00000E+00  9.000E+00
#rwgt            1           1   3.6971988216794587E-002           9      451225           0
</event>
<event>
      5   9999  3.79277E-02  3.58870E+01 -1.00000E+00  1.47824E-01
      21    -1     0     0   502   501  0.000000000E+00  0.000000000E+00  2.465242151E+02  2.465242151E+02  0.000000000E+00  0.00000E+00  9.000E+00
      21    -1     0     0   512   502  0.000000000E+00  0.000000000E+00 -3.212625840E+02  3.212625840E+02  0.000000000E+00  0.00000E+00  9.000E+00
      25     1     1     2     0     0  4.565232112E+01 -1.209716940E+02 -1.727602801E+02  2.493780254E+02  1.250000000E+02  0.00000E+00  9.000E+00
      25     1     1     2     0     0 -7.636911248E+01  1.024148280E+02  1.644682502E+02  2.428906002E+02  1.250000000E+02  0.00000E+00  9.000E+00
      21     1     1     2   512   501  3.071679135E+01  1.855686605E+01 -6.644633899E+01  7.551817340E+01  9.536743164E-07  0.00000E+00  9.000E+00
#rwgt            1           1   2.8574280439318561E-002           9      451363           0
</event>
<event>
      5   9999  3.79277E-02  6.41557E+01 -1.00000E+00  1.33167E-01
      21    -1     0     0   502   501  0.000000000E+00  0.000000000E+00  1.775410868E+02  1.775410868E+02  0.000000000E+00  0.00000E+00  9.000E+00
      21    -1     0     0   511   502  0.000000000E+00  0.000000000E+00 -1.775569624E+03  1.775569624E+03  0.000000000E+00  0.00000E+00  9.000E+00
      25     1     1     2     0     0 -5.595533499E+01  1.498808365E+02 -2.186724661E+01  2.042019617E+02  1.250000000E+02  0.00000E+00  9.000E+00
      25     1     1     2     0     0 -3.716287728E+00 -1.263170734E+02 -6.428541672E+00  1.778655109E+02  1.250000000E+02  0.00000E+00  9.000E+00
      21     1     1     2   511   501  5.967162272E+01 -2.356376314E+01 -1.569732749E+03  1.571043238E+03  2.157918644E-05  0.00000E+00  9.000E+00
#rwgt            1           1   5.3297091530106457E-002           9      451720           0
</event>
<event>
      5   9999 -3.79277E-02  6.90795E+01 -1.00000E+00  1.31513E-01
      21    -1     0     0   502   501  0.000000000E+00  0.000000000E+00  1.077305912E+02  1.077305912E+02  0.000000000E+00  0.00000E+00  9.000E+00
      21    -1     0     0   512   502  0.000000000E+00  0.000000000E+00 -9.800956397E+02  9.800956397E+02  0.000000000E+00  0.00000E+00  9.000E+00
      25     1     1     2     0     0 -3.501610998E+01  2.136912999E+02 -2.221938304E+02  3.344924482E+02  1.250000000E+02  0.00000E+00  9.000E+00
      25     1     1     2     0     0  8.883899731E+01 -2.569933570E+02 -4.402398694E+02  5.323289356E+02  1.250000000E+02  0.00000E+00  9.000E+00
      21     1     1     2   512   501 -5.382288732E+01  4.330205707E+01 -2.099313486E+02  2.210048472E+02  4.672030912E-06  0.00000E+00  9.000E+00
#rwgt            1           1 -0.33549547062329577                9      452011           0
</event>
<event>
      5   9999  3.79277E-02  1.35043E+02 -1.00000E+00  1.18231E-01
      21    -1     0     0   502   501  0.000000000E+00  0.000000000E+00  3.427417035E+02  3.427417035E+02  0.000000000E+00  0.00000E+00  9.000E+00
      -1    -1     0     0     0   502  0.000000000E+00  0.000000000E+00 -6.695258653E+02  6.695258653E+02  0.000000000E+00  0.00000E+00  9.000E+00
      25     1     1     2     0     0 -9.984834289E+01  2.091603779E+02 -7.822913518E+01  2.747044828E+02  1.250000000E+02  0.00000E+00  9.000E+00
      25     1     1     2     0     0  1.090096532E+02 -3.438919692E+02  7.307920038E+01  3.887291609E+02  1.250000000E+02  0.00000E+00  9.000E+00
      -1     1     1     2     0   501 -9.161310328E+00  1.347315913E+02 -3.216342270E+02  3.488339251E+02  3.814697266E-06  0.00000E+00  9.000E+00
#rwgt            1           1   4.9210481312396123E-002           9      452174           0
</event>
<event>
      5   9999  3.79277E-02  7.50383E+01 -1.00000E+00  1.29710E-01
      21    -1     0     0   502   501  0.000000000E+00  0.000000000E+00  1.977695674E+02  1.977695674E+02  0.000000000E+00  0.00000E+00  9.000E+00
      21    -1     0     0   501   511  0.000000000E+00  0.000000000E+00 -4.640963826E+02  4.640963826E+02  0.000000000E+00  0.00000E+00  9.000E+00
      25     1     1     2     0     0 -1.375542173E+02  1.274102991E+02 -7.322611792E+01  2.369422110E+02  1.250000000E+02  0.00000E+00  9.000E+00
      25     1     1     2     0     0  1.937895526E+02 -1.770926442E+02 -1.048577925E+02  3.090895533E+02  1.250000000E+02  0.00000E+00  9.000E+00
      21     1     1     2   502   511 -5.623533525E+01  4.968234511E+01 -8.824290473E+01  1.158341857E+02  1.907348633E-06  0.00000E+00  9.000E+00
#rwgt            1           1   4.0915153587064962E-002           9      452452           0
</event>
<event>
      5   9999  3.79277E-02  1.98850E+02 -1.00000E+00  1.11739E-01
      21    -1     0     0   502   501  0.000000000E+00  0.000000000E+00  1.517856026E+02  1.517856026E+02  0.000000000E+00  0.00000E+00  9.000E+00
       2    -1     0     0   501     0  0.000000000E+00  0.000000000E+00 -1.765143229E+03  1.765143229E+03  0.000000000E+00  0.00000E+00  9.000E+00
      25     1     1     2     0     0  1.158584353E+01 -9.156168577E+01  1.279133934E+01  1.559050751E+02  1.250000000E+02  0.00000E+00  9.000E+00
      25     1     1     2     0     0 -1.249445596E+02  2.549355675E+02 -3.426366940E+02  4.621992975E+02  1.250000000E+02  0.00000E+00  9.000E+00
       2     1     1     2   502     0  1.133587161E+02 -1.633738818E+02 -1.283512272E+03  1.298824459E+03  0.000000000E+00  0.00000E+00  9.000E+00
#rwgt            1           1   2.9781904119017329E-002           9      452625           0
</event>
<event>
      5   9999  3.79277E-02  1.36898E+02 -1.00000E+00  1.17989E-01
      21    -1     0     0   502   501  0.000000000E+00  0.000000000E+00  8.052987398E+02  8.052987398E+02  0.000000000E+00  0.00000E+00  9.000E+00
       1    -1     0     0   501     0  0.000000000E+00  0.000000000E+00 -1.226501266E+03  1.226501266E+03  0.000000000E+00  0.00000E+00  9.000E+00
      25     1     1     2     0     0 -5.987498560E+01  4.335541342E+01  5.749950150E+02  5.930505653E+02  1.250000000E+02  0.00000E+00  9.000E+00
      25     1     1     2     0     0 -5.445924444E+01 -1.186460570E+02  1.797222661E+02  2.548877971E+02  1.250000000E+02  0.00000E+00  9.000E+00
       1     1     1     2   502     0  1.143342300E+02  7.529064359E+01 -1.175919808E+03  1.183861644E+03  1.525878906E-05  0.00000E+00  9.000E+00
#rwgt            1           1   4.1435471366734825E-003           9      452717           0
</event>
<event>
      5   9999  3.79277E-02  4.36247E+01 -1.00000E+00  1.42542E-01
      21    -1     0     0   502   501  0.000000000E+00  0.000000000E+00  2.170549323E+02  2.170549323E+02  0.000000000E+00  0.00000E+00  9.000E+00
      21    -1     0     0   511   502  0.000000000E+00  0.000000000E+00 -2.703283356E+02  2.703283356E+02  0.000000000E+00  0.00000E+00  9.000E+00
      25     1     1     2     0     0  1.673953163E+02 -3.485564642E+01  3.235052474E+01  2.142607394E+02  1.250000000E+02  0.00000E+00  9.000E+00
      25     1     1     2     0     0 -1.325844572E+02  6.114855340E+01 -1.853417239E+01  1.930966064E+02  1.250000000E+02  0.00000E+00  9.000E+00
      21     1     1     2   511   501 -3.481085916E+01 -2.629290698E+01 -6.708975570E+01  8.002592201E+01  9.536743164E-07  0.00000E+00  9.000E+00
#rwgt            1           1   3.6339180633208783E-002           9      452783           0
</event>
<event>
      5   9999  3.79277E-02  7.93630E+01 -1.00000E+00  1.28518E-01
      21    -1     0     0   512   501  0.000000000E+00  0.000000000E+00  2.582349057E+02  2.582349057E+02  0.000000000E+00  0.00000E+00  9.000E+00
      21    -1     0     0   501   502  0.000000000E+00  0.000000000E+00 -5.985321490E+02  5.985321490E+02  0.000000000E+00  0.00000E+00  9.000E+00
      25     1     1     2     0     0  1.036392655E+02 -1.745692971E+02  1.327595131E+02  2.728839042E+02  1.250000000E+02  0.00000E+00  9.000E+00
      25     1     1     2     0     0 -1.573094738E+02  1.161057006E+02 -4.409223253E+02  4.982612780E+02  1.250000000E+02  0.00000E+00  9.000E+00
      21     1     1     2   512   502  5.367020830E+01  5.846359650E+01 -3.213443117E+01  8.562187245E+01  1.168007728E-06  0.00000E+00  9.000E+00
#rwgt            1           1  0.16221082921651014                9      452936           0
</event>
<event>
      5   9999  3.79277E-02  2.47632E+01 -1.00000E+00  1.59061E-01
      21    -1     0     0   502   501  0.000000000E+00  0.000000000E+00  1.688541410E+02  1.688541410E+02  0.000000000E+00  0.00000E+00  9.000E+00
      21    -1     0     0   501   511  0.000000000E+00  0.000000000E+00 -3.365202345E+02  3.365202345E+02  0.000000000E+00  0.00000E+00  9.000E+00
      25     1     1     2     0     0  4.633188826E+01 -1.828302494E+02 -4.880206034E+01  2.314739403E+02  1.250000000E+02  0.00000E+00  9.000E+00
      25     1     1     2     0     0 -6.054688524E+01  1.625534069E+02 -8.096002554E+01  2.286242794E+02  1.250000000E+02  0.00000E+00  9.000E+00
      21     1     1     2   502   511  1.421499698E+01  2.027684244E+01 -3.790400763E+01  4.527615567E+01  4.768371582E-07  0.00000E+00  9.000E+00
#rwgt            1           1   3.2552719395131033E-002           9      453083           0
</event>
<event>
      5   9999  3.79277E-02  4.97777E+01 -1.00000E+00  1.39186E-01
      21    -1     0     0   502   501  0.000000000E+00  0.000000000E+00  1.907094640E+03  1.907094640E+03  0.000000000E+00  0.00000E+00  9.000E+00
      21    -1     0     0   501   512  0.000000000E+00  0.000000000E+00 -6.263134976E+01  6.263134976E+01  0.000000000E+00  0.00000E+00  9.000E+00
      25     1     1     2     0     0  1.498351575E+02  1.449928073E+02  8.520539315E+02  8.860555235E+02  1.250000000E+02  0.00000E+00  9.000E+00
      25     1     1     2     0     0 -1.605111975E+02 -1.936121891E+02  9.949500917E+02  1.033827940E+03  1.250000000E+02  0.00000E+00  9.000E+00
      21     1     1     2   502   512  1.067604002E+01  4.861938177E+01 -2.540732925E+00  4.984252640E+01  1.843412768E-06  0.00000E+00  9.000E+00
#rwgt            1           1   3.2529390826729711E-002           9      453319           0
</event>
<event>
      5   9999  3.79277E-02  5.82342E+01 -1.00000E+00  1.35400E-01
      21    -1     0     0   511   501  0.000000000E+00  0.000000000E+00  3.070096672E+02  3.070096672E+02  0.000000000E+00  0.00000E+00  9.000E+00
      21    -1     0     0   501   502  0.000000000E+00  0.000000000E+00 -2.742241489E+02  2.742241489E+02  0.000000000E+00  0.00000E+00  9.000E+00
      25     1     1     2     0     0 -1.900262913E+02 -1.115597960E+02 -1.119169058E+02  2.769584324E+02  1.250000000E+02  0.00000E+00  9.000E+00
      25     1     1     2     0     0  1.437558372E+02  7.620070295E+01  1.340223398E+02  2.450699399E+02  1.250000000E+02  0.00000E+00  9.000E+00
      21     1     1     2   511   502  4.627045406E+01  3.535909309E+01  1.068008437E+01  5.920544388E+01  3.153981341E-07  0.00000E+00  9.000E+00
#rwgt            1           1   3.9625474164582529E-002           9      453473           0
</event>
<event>
      5   9999  3.79277E-02  1.60712E+01 -1.00000E+00  1.74607E-01
      21    -1     0     0   502   501  0.000000000E+00  0.000000000E+00  2.643136308E+01  2.643136308E+01  0.000000000E+00  0.00000E+00  9.000E+00
       2    -1     0     0   501     0  0.000000000E+00  0.000000000E+00 -3.144899074E+03  3.144899074E+03  0.000000000E+00  0.00000E+00  9.000E+00
      25     1     1     2     0     0  8.687534198E+01 -1.323907833E+02 -1.156324102E+03  1.173790899E+03  1.250000000E+02  0.00000E+00  9.000E+00
      25     1     1     2     0     0 -7.280862330E+01  1.246183471E+02 -4.986051466E+02  5.339128395E+02  1.250000000E+02  0.00000E+00  9.000E+00
       2     1     1     2   502     0 -1.406671868E+01  7.772436284E+00 -1.463538462E+03  1.463626698E+03  0.000000000E+00  0.00000E+00  9.000E+00
#rwgt            1           1   3.7676933133868225E-002           9      453555           0
</event>
<event>
      5   9999  3.79277E-02  7.11213E+01 -1.00000E+00  1.30872E-01
      21    -1     0     0   502   501  0.000000000E+00  0.000000000E+00  2.019635360E+02  2.019635360E+02  0.000000000E+00  0.00000E+00  9.000E+00
      21    -1     0     0   511   502  0.000000000E+00  0.000000000E+00 -5.496435448E+02  5.496435448E+02  0.000000000E+00  0.00000E+00  9.000E+00
      25     1     1     2     0     0 -2.149867499E+02  8.826823081E+01 -1.883073123E+02  3.241839402E+02  1.250000000E+02  0.00000E+00  9.000E+00
      25     1     1     2     0     0  2.179429097E+02 -1.720843185E+01  1.165306150E+00  2.518364548E+02  1.250000000E+02  0.00000E+00  9.000E+00
      21     1     1     2   511   501 -2.956159824E+00 -7.105979895E+01 -1.605380027E+02  1.755866858E+02  0.000000000E+00  0.00000E+00  9.000E+00
#rwgt            1           1   1.8445839985673413E-002           9      453729           0
</event>
<event>
      5   9999  3.79277E-02  3.72431E+01 -1.00000E+00  1.46790E-01
      21    -1     0     0   502   501  0.000000000E+00  0.000000000E+00  1.202529446E+02  1.202529446E+02  0.000000000E+00  0.00000E+00  9.000E+00
      21    -1     0     0   512   502  0.000000000E+00  0.000000000E+00 -2.009391548E+03  2.009391548E+03  0.000000000E+00  0.00000E+00  9.000E+00
      25     1     1     2     0     0  5.674018447E+01  2.532705674E+02 -1.115414229E+03  1.152015334E+03  1.250000000E+02  0.00000E+00  9.000E+00
      25     1     1     2     0     0 -3.536003185E+01 -2.837654653E+02 -1.387106901E+02  3.415242696E+02  1.250000000E+02  0.00000E+00  9.000E+00
      21     1     1     2   512   501 -2.138015261E+01  3.049489790E+01 -6.350136848E+02  6.361048889E+02  7.629394531E-06  0.00000E+00  9.000E+00
#rwgt            1           1   4.7231865978815131E-002           9      453869           0
</event>
<event>
      5   9999  3.79277E-02  8.60619E+01 -1.00000E+00  1.26833E-01
      21    -1     0     0   502   511  0.000000000E+00  0.000000000E+00  3.848797826E+02  3.848797826E+02  0.000000000E+00  0.00000E+00  9.000E+00
      21    -1     0     0   501   502  0.000000000E+00  0.000000000E+00 -9.272534709E+02  9.272534709E+02  0.000000000E+00  0.00000E+00  9.000E+00
      25     1     1     2     0     0  2.832810237E+02  1.717973708E+02 -7.008744761E+02  7.852467805E+02  1.250000000E+02  0.00000E+00  9.000E+00
      25     1     1     2     0     0 -2.833249531E+02 -8.573549996E+01 -2.693779294E+01  3.224503833E+02  1.250000000E+02  0.00000E+00  9.000E+00
      21     1     1     2   501   511  4.392942872E-02 -8.606187080E+01  1.854385807E+02  2.044360897E+02  0.000000000E+00  0.00000E+00  9.000E+00
#rwgt            1           1   2.1879402877689753E-002           9      454019           0
</event>
<event>
      5   9999  3.79277E-02  2.72603E+02 -1.00000E+00  1.06961E-01
       2    -1     0     0   502     0  0.000000000E+00  0.000000000E+00  3.870614934E+03  3.870614934E+03  0.000000000E+00  0.00000E+00  9.000E+00
      21    -1     0     0   501   502  0.000000000E+00  0.000000000E+00 -4.069084080E+02  4.069084080E+02  0.000000000E+00  0.00000E+00  9.000E+00
      25     1     1     2     0     0 -7.297337780E+01 -2.004417391E+02  1.495978462E+01  2.476909361E+02  1.250000000E+02  0.00000E+00  9.000E+00
      25     1     1     2     0     0 -1.157842847E+02  3.971220154E+02 -1.217421265E+02  4.489521590E+02  1.250000000E+02  0.00000E+00  9.000E+00
       2     1     1     2   501     0  1.887576625E+02 -1.966802762E+02  3.570488868E+03  3.580880246E+03  0.000000000E+00  0.00000E+00  9.000E+00
#rwgt            1           1  0.28662279832617893                9      454087           0
</event>
<event>
      5   9999  3.79277E-02  1.44955E+01 -1.00000E+00  1.78795E-01
      21    -1     0     0   502   511  0.000000000E+00  0.000000000E+00  3.466429639E+02  3.466429639E+02  0.000000000E+00  0.00000E+00  9.000E+00
      21    -1     0     0   501   502  0.000000000E+00  0.000000000E+00 -2.393466134E+02  2.393466134E+02  0.000000000E+00  0.00000E+00  9.000E+00
      25     1     1     2     0     0  1.900269439E+02 -1.432935426E+02  1.299407980E+01  2.691414588E+02  1.250000000E+02  0.00000E+00  9.000E+00
      25     1     1     2     0     0 -1.963081892E+02  1.302296374E+02  5.144142607E+01  2.716024373E+02  1.250000000E+02  0.00000E+00  9.000E+00
      21     1     1     2   501   511  6.281245337E+00  1.306390519E+01  4.286084460E+01  4.524568114E+01  0.000000000E+00  0.00000E+00  9.000E+00
#rwgt            2          11   9.5546279890177754E-004           9      454139           0
</event>
<event>
      5   9999 -3.79277E-02  5.79359E+01 -1.00000E+00  1.35521E-01
      21    -1     0     0   502   501  0.000000000E+00  0.000000000E+00  1.241609072E+02  1.241609072E+02  0.000000000E+00  0.00000E+00  9.000E+00
       2    -1     0     0   501     0  0.000000000E+00  0.000000000E+00 -1.351526971E+03  1.351526971E+03  0.000000000E+00  0.00000E+00  9.000E+00
      25     1     1     2     0     0  2.481394988E+02 -2.895056850E+01 -2.339443284E+02  3.643710953E+02  1.250000000E+02  0.00000E+00  9.000E+00
      25     1     1     2     0     0 -1.905282177E+02  3.507527266E+01 -1.714793467E+02  2.873350707E+02  1.250000000E+02  0.00000E+00  9.000E+00
       2     1     1     2   502     0 -5.761128109E+01 -6.124704160E+00 -8.219423888E+02  8.239817123E+02  1.868812365E-05  0.00000E+00  9.000E+00
#rwgt            1           1  -5.4235892761340936E-002           9      454159           0
</event>
<event>
      5   9999  3.79277E-02  2.42116E+01 -1.00000E+00  1.59800E-01
      21    -1     0     0   502   501  0.000000000E+00  0.000000000E+00  2.806369432E+02  2.806369432E+02  0.000000000E+00  0.00000E+00  9.000E+00
      21    -1     0     0   511   502  0.000000000E+00  0.000000000E+00 -2.688629548E+02  2.688629548E+02  0.000000000E+00  0.00000E+00  9.000E+00
      25     1     1     2     0     0  1.986122123E+02 -8.514274851E+00 -4.356909708E+01  2.388358641E+02  1.250000000E+02  0.00000E+00  9.000E+00
      25     1     1     2     0     0 -2.198259592E+02 -3.155340779E+00  8.995716508E+01  2.684226147E+02  1.250000000E+02  0.00000E+00  9.000E+00
      21     1     1     2   511   501  2.121374697E+01  1.166961563E+01 -3.461407968E+01  4.224141927E+01  4.768371582E-07  0.00000E+00  9.000E+00
#rwgt            1           1   2.8470166401124132E-002           9      454413           0
</event>
<event>
      5   9999  3.79277E-02  2.03684E+01 -1.00000E+00  1.65718E-01
      21    -1     0     0   502   501  0.000000000E+00  0.000000000E+00  9.055930782E+01  9.055930782E+01  0.000000000E+00  0.00000E+00  9.000E+00
      21    -1     0     0   501   512  0.000000000E+00  0.000000000E+00 -7.871996161E+02  7.871996161E+02  0.000000000E+00  0.00000E+00  9.000E+00
      25     1     1     2     0     0  1.039995436E+02  1.721514493E+02 -1.772846343E+02  2.958155982E+02  1.250000000E+02  0.00000E+00  9.000E+00
      25     1     1     2     0     0 -8.482870065E+01 -1.790327416E+02 -4.237076864E+02  4.841506321E+02  1.250000000E+02  0.00000E+00  9.000E+00
      21     1     1     2   502   512 -1.917084294E+01  6.881292313E+00 -9.564798762E+01  9.779269369E+01  1.907348633E-06  0.00000E+00  9.000E+00
#rwgt            1           1   4.4605381866734468E-002           9      454658           0
</event>
<event>
      5   9999  3.79277E-02  3.78271E+01 -1.00000E+00  1.46361E-01
      21    -1     0     0   502   501  0.000000000E+00  0.000000000E+00  2.818301635E+02  2.818301635E+02  0.000000000E+00  0.00000E+00  9.000E+00
      21    -1     0     0   511   502  0.000000000E+00  0.000000000E+00 -7.558222051E+02  7.558222051E+02  0.000000000E+00  0.00000E+00  9.000E+00
      25     1     1     2     0     0  1.905163837E+02  1.574088575E+00 -3.418915801E+02  4.108695934E+02  1.250000000E+02  0.00000E+00  9.000E+00
      25     1     1     2     0     0 -1.802895266E+02 -3.799247574E+01  1.959274448E+02  2.965810265E+02  1.250000000E+02  0.00000E+00  9.000E+00
      21     1     1     2   511   501 -1.022685707E+01  3.641838716E+01 -3.280279063E+02  3.302017487E+02  6.607249480E-06  0.00000E+00  9.000E+00
#rwgt            1           1   3.5489992678258364E-002           9      455010           0
</event>
<event>
      5   9999  3.79277E-02  4.53115E+01 -1.00000E+00  1.41560E-01
      21    -1     0     0   512   501  0.000000000E+00  0.000000000E+00  1.677752165E+02  1.677752165E+02  0.000000000E+00  0.00000E+00  9.000E+00
      21    -1     0     0   501   502  0.000000000E+00  0.000000000E+00 -3.836047084E+02  3.836047084E+02  0.000000000E+00  0.00000E+00  9.000E+00
      25     1     1     2     0     0  5.874339606E+01  9.262201612E+01 -2.669099361E+02  3.144766103E+02  1.250000000E+02  0.00000E+00  9.000E+00
      25     1     1     2     0     0 -1.038906655E+02 -8.876742404E+01  3.298173441E+01  1.881109267E+02  1.250000000E+02  0.00000E+00  9.000E+00
      21     1     1     2   512   502  4.514726946E+01 -3.854592080E+00  1.809870976E+01  4.879238787E+01  8.259061849E-07  0.00000E+00  9.000E+00
#rwgt            1           1   5.1412243866077387E-002           9      455189           0
</event>
<event>
      5   9999  3.79277E-02  1.32788E+02 -1.00000E+00  1.18531E-01
      21    -1     0     0   502   501  0.000000000E+00  0.000000000E+00  8.894202118E+02  8.894202118E+02  0.000000000E+00  0.00000E+00  9.000E+00
      21    -1     0     0   511   502  0.000000000E+00  0.000000000E+00 -1.637831916E+02  1.637831916E+02  0.000000000E+00  0.00000E+00  9.000E+00
      25     1     1     2     0     0 -2.082846665E+02 -1.980840680E+02  4.293772699E+02  5.316104214E+02  1.250000000E+02  0.00000E+00  9.000E+00
      25     1     1     2     0     0  2.569832973E+02  7.454787153E+01  2.218439315E+02  3.693745121E+02  1.250000000E+02  0.00000E+00  9.000E+00
      21     1     1     2   511   501 -4.869863085E+01  1.235361965E+02  7.441581881E+01  1.522184699E+02  1.348699152E-06  0.00000E+00  9.000E+00
#rwgt            1           1   4.4741533236257292E-002           9      455419           0
</event>
<event>
      5   9999  3.79277E-02  3.43207E+01 -1.00000E+00  1.49089E-01
      21    -1     0     0   502   501  0.000000000E+00  0.000000000E+00  1.671455493E+02  1.671455493E+02  0.000000000E+00  0.00000E+00  9.000E+00
       1    -1     0     0   501     0  0.000000000E+00  0.000000000E+00 -2.418663331E+02  2.418663331E+02  0.000000000E+00  0.00000E+00  9.000E+00
      25     1     1     2     0     0  4.672896987E+01  7.156254713E+01 -1.378095158E+02  2.047468130E+02  1.250000000E+02  0.00000E+00  9.000E+00
      25     1     1     2     0     0 -1.421716199E+01 -6.056752085E+01  8.507758001E+01  1.635045776E+02  1.250000000E+02  0.00000E+00  9.000E+00
       1     1     1     2   502     0 -3.251180788E+01 -1.099502629E+01 -2.198884801E+01  4.076049179E+01  4.129530925E-07  0.00000E+00  9.000E+00
#rwgt            1           1   3.6883582368560396E-002           9      455475           0
</event>
<event>
      5   9999  3.79277E-02  1.81526E+01 -1.00000E+00  1.69919E-01
      21    -1     0     0   502   501  0.000000000E+00  0.000000000E+00  9.997144639E+02  9.997144639E+02  0.000000000E+00  0.00000E+00  9.000E+00
      21    -1     0     0   501   511  0.000000000E+00  0.000000000E+00 -4.220341467E+01  4.220341467E+01  0.000000000E+00  0.00000E+00  9.000E+00
      25     1     1     2     0     0 -4.401256546E+01 -1.167955506E+02  2.669331014E+02  3.200884052E+02  1.250000000E+02  0.00000E+00  9.000E+00
      25     1     1     2     0     0  4.240948281E+01  9.871387189E+01  6.822129556E+02  7.018422255E+02  1.250000000E+02  0.00000E+00  9.000E+00
      21     1     1     2   502   511  1.603082654E+00  1.808167875E+01  8.364992324E+00  1.998724786E+01  3.576278687E-07  0.00000E+00  9.000E+00
#rwgt            1           1   3.5268048221954611E-002           9      455594           0
</event>
<event>
      5   9999  3.79277E-02  1.04412E+01 -1.00000E+00  1.93614E-01
       1    -1     0     0   502     0  0.000000000E+00  0.000000000E+00  9.208600344E+01  9.208600344E+01  0.000000000E+00  0.00000E+00  9.000E+00
      21    -1     0     0   501   502  0.000000000E+00  0.000000000E+00 -1.897742370E+03  1.897742370E+03  0.000000000E+00  0.00000E+00  9.000E+00
      25     1     1     2     0     0  1.463980643E+02  1.245988075E+01 -1.593336020E+03  1.604971126E+03  1.250000000E+02  0.00000E+00  9.000E+00
      25     1     1     2     0     0 -1.360518860E+02 -1.105448419E+01 -2.693868736E+02  3.268433952E+02  1.250000000E+02  0.00000E+00  9.000E+00
       1     1     1     2   501     0 -1.034617834E+01 -1.405396565E+00  5.706652717E+01  5.801385239E+01  1.651812370E-06  0.00000E+00  9.000E+00
#rwgt            1           1   3.7492099808759331E-002           9      455832           0
</event>
<event>
      5   9999  3.79277E-02  1.17160E+02 -1.00000E+00  1.20812E-01
      21    -1     0     0   502   501  0.000000000E+00  0.000000000E+00  4.347760895E+02  4.347760895E+02  0.000000000E+00  0.00000E+00  9.000E+00
      21    -1     0     0   501   511  0.000000000E+00  0.000000000E+00 -2.362794048E+02  2.362794048E+02  0.000000000E+00  0.00000E+00  9.000E+00
      25     1     1     2     0     0 -9.055734309E+00 -2.050455371E+02  2.244051313E+02  3.287983296E+02  1.250000000E+02  0.00000E+00  9.000E+00
      25     1     1     2     0     0  1.089045716E+02  1.437544492E+02 -4.373718871E+01  2.237487186E+02  1.250000000E+02  0.00000E+00  9.000E+00
      21     1     1     2   502   511 -9.984883727E+01  6.129108788E+01  1.782874208E+01  1.185084461E+02  1.800020799E-06  0.00000E+00  9.000E+00
#rwgt            1           1  0.29357217505585009                9      456099           0
</event>
<event>
      5   9999  3.79277E-02  7.14032E+01 -1.00000E+00  1.30786E-01
      21    -1     0     0   512   501  0.000000000E+00  0.000000000E+00  5.165482757E+02  5.165482757E+02  0.000000000E+00  0.00000E+00  9.000E+00
      21    -1     0     0   501   502  0.000000000E+00  0.000000000E+00 -2.243184862E+02  2.243184862E+02  0.000000000E+00  0.00000E+00  9.000E+00
      25     1     1     2     0     0 -2.816834915E+01 -6.330524859E+01  8.442280422E+01  1.659916271E+02  1.250000000E+02  0.00000E+00  9.000E+00
      25     1     1     2     0     0  6.346318302E+01  1.235173771E+00 -1.527405040E+02  2.073252585E+02  1.250000000E+02  0.00000E+00  9.000E+00
      21     1     1     2   512   502 -3.529483386E+01  6.207007482E+01  3.605474893E+02  3.675498762E+02  5.394796609E-06  0.00000E+00  9.000E+00
#rwgt            1           1   4.1007161365074346E-002           9      456195           0
</event>
<event>
      5   9999  3.79277E-02  6.85381E+01 -1.00000E+00  1.31687E-01
      21    -1     0     0   502   501  0.000000000E+00  0.000000000E+00  9.405229948E+01  9.405229948E+01  0.000000000E+00  0.00000E+00  9.000E+00
       1    -1     0     0   501     0  0.000000000E+00  0.000000000E+00 -3.095240073E+03  3.095240073E+03  0.000000000E+00  0.00000E+00  9.000E+00
      25     1     1     2     0     0  9.878267448E+01  6.643966000E+01 -4.144540542E+00  1.726685334E+02  1.250000000E+02  0.00000E+00  9.000E+00
      25     1     1     2     0     0 -3.296113289E+01 -4.733486576E+01 -4.990347851E+02  5.176753254E+02  1.250000000E+02  0.00000E+00  9.000E+00
       1     1     1     2   502     0 -6.582154159E+01 -1.910479423E+01 -2.498008448E+03  2.498948514E+03  4.315837288E-05  0.00000E+00  9.000E+00
#rwgt            1           1   4.3842149734289286E-002           9      456359           0
</event>
<event>
      5   9999  3.79277E-02  1.06404E+01 -1.00000E+00  1.92692E-01
      21    -1     0     0   511   501  0.000000000E+00  0.000000000E+00  6.287668719E+01  6.287668719E+01  0.000000000E+00  0.00000E+00  9.000E+00
      21    -1     0     0   501   502  0.000000000E+00  0.000000000E+00 -5.973242419E+02  5.973242419E+02  0.000000000E+00  0.00000E+00  9.000E+00
      25     1     1     2     0     0  2.469650054E+01 -5.904275920E+00 -5.033175958E+02  5.192286392E+02  1.250000000E+02  0.00000E+00  9.000E+00
      25     1     1     2     0     0 -1.454335009E+01  9.087238475E+00 -2.478019965E+01  1.285812787E+02  1.250000000E+02  0.00000E+00  9.000E+00
      21     1     1     2   511   502 -1.015315044E+01 -3.182962556E+00 -6.349759345E+00  1.239101119E+01  1.685873940E-07  0.00000E+00  9.000E+00
#rwgt            1           1   4.9333619675426064E-002           9      456609           0
</event>
<event>
      5   9999  3.79277E-02  3.16006E+01 -1.00000E+00  1.51488E-01
      21    -1     0     0   512   501  0.000000000E+00  0.000000000E+00  9.314893428E+02  9.314893428E+02  0.000000000E+00  0.00000E+00  9.000E+00
      21    -1     0     0   501   502  0.000000000E+00  0.000000000E+00 -1.057733412E+02  1.057733412E+02  0.000000000E+00  0.00000E+00  9.000E+00
      25     1     1     2     0     0  1.157711831E+02  1.855948577E+02  1.415777008E+02  2.889942273E+02  1.250000000E+02  0.00000E+00  9.000E+00
      25     1     1     2     0     0 -1.471135611E+02 -1.896260574E+02  5.934835193E+02  6.522638493E+02  1.250000000E+02  0.00000E+00  9.000E+00
      21     1     1     2   512   502  3.134237802E+01  4.031199721E+00  9.065478145E+01  9.600460734E+01  0.000000000E+00  0.00000E+00  9.000E+00
#rwgt            1           1   4.3002751519756910E-002           9      456866           0
</event>
<event>
      5   9999  3.79277E-02  9.28096E+01 -1.00000E+00  1.25303E-01
      21    -1     0     0   511   501  0.000000000E+00  0.000000000E+00  2.708925714E+02  2.708925714E+02  0.000000000E+00  0.00000E+00  9.000E+00
      21    -1     0     0   501   502  0.000000000E+00  0.000000000E+00 -4.957261217E+02  4.957261217E+02  0.000000000E+00  0.00000E+00  9.000E+00
      25     1     1     2     0     0  1.652858999E+02  5.168072925E+00 -1.420146355E+02  2.512753357E+02  1.250000000E+02  0.00000E+00  9.000E+00
      25     1     1     2     0     0 -1.624004243E+02  8.759671074E+01 -2.433048868E+02  3.299535566E+02  1.250000000E+02  0.00000E+00  9.000E+00
      21     1     1     2   511   502 -2.885475579E+00 -9.276478366E+01  1.604859719E+02  1.853898008E+02  3.814697266E-06  0.00000E+00  9.000E+00
#rwgt            1           1   4.4000536693956975E-002           9      457028           0
</event>
<event>
      5   9999  3.79277E-02  4.77588E+01 -1.00000E+00  1.40222E-01
      21    -1     0     0   502   501  0.000000000E+00  0.000000000E+00  3.113026982E+02  3.113026982E+02  0.000000000E+00  0.00000E+00  9.000E+00
      21    -1     0     0   512   502  0.000000000E+00  0.000000000E+00 -3.522268456E+02  3.522268456E+02  0.000000000E+00  0.00000E+00  9.000E+00
      25     1     1     2     0     0  4.410291605E+01  8.804456725E+01  4.449496668E+01  1.652323064E+02  1.250000000E+02  0.00000E+00  9.000E+00
      25     1     1     2     0     0 -8.668730289E+01 -6.642351675E+01  1.705036166E+02  2.379564148E+02  1.250000000E+02  0.00000E+00  9.000E+00
      21     1     1     2   512   501  4.258438685E+01 -2.162105050E+01 -2.559227306E+02  2.603408226E+02  3.814697266E-06  0.00000E+00  9.000E+00
#rwgt            1           1   2.3104137586509539E-002           9      457278           0
</event>
<event>
      5   9999  3.79277E-02  9.25993E+01 -1.00000E+00  1.25349E-01
       1    -1     0     0   502     0  0.000000000E+00  0.000000000E+00  8.176708883E+02  8.176708883E+02  0.000000000E+00  0.00000E+00  9.000E+00
      21    -1     0     0   501   502  0.000000000E+00  0.000000000E+00 -2.122285542E+02  2.122285542E+02  0.000000000E+00  0.00000E+00  9.000E+00
      25     1     1     2     0     0  9.373405084E+01  1.644664832E+01 -1.447392358E+02  2.136141636E+02  1.250000000E+02  0.00000E+00  9.000E+00
      25     1     1     2     0     0 -8.867063529E+01  7.601415926E+01  2.231404515E+02  2.811712913E+02  1.250000000E+02  0.00000E+00  9.000E+00
       1     1     1     2   501     0 -5.063415549E+00 -9.246080758E+01  5.270411184E+02  5.351139875E+02  0.000000000E+00  0.00000E+00  9.000E+00
#rwgt            1           1   3.3385434281390007E-002           9      457371           0
</event>
<event>
      5   9999  3.79277E-02  3.77204E+01 -1.00000E+00  1.46438E-01
      21    -1     0     0   502   501  0.000000000E+00  0.000000000E+00  1.694833966E+03  1.694833966E+03  0.000000000E+00  0.00000E+00  9.000E+00
      21    -1     0     0   501   511  0.000000000E+00  0.000000000E+00 -5.395709371E+01  5.395709371E+01  0.000000000E+00  0.00000E+00  9.000E+00
      25     1     1     2     0     0 -1.434874854E+02  3.426821010E+01  4.754472107E+02  5.132621346E+02  1.250000000E+02  0.00000E+00  9.000E+00
      25     1     1     2     0     0  1.332966098E+02 -7.058594554E+01  1.179209415E+03  1.195370321E+03  1.250000000E+02  0.00000E+00  9.000E+00
      21     1     1     2   502   511  1.019087560E+01  3.631773544E+01 -1.377975301E+01  4.015860364E+01  1.884864366E-06  0.00000E+00  9.000E+00
#rwgt            1           1   3.8665642318051509E-002           9      457616           0
</event>
<event>
      5   9999  3.79277E-02  3.75251E+01 -1.00000E+00  1.46582E-01
      21    -1     0     0   502   501  0.000000000E+00  0.000000000E+00  1.015650461E+03  1.015650461E+03  0.000000000E+00  0.00000E+00  9.000E+00
      21    -1     0     0   512   502  0.000000000E+00  0.000000000E+00 -6.808278369E+01  6.808278369E+01  0.000000000E+00  0.00000E+00  9.000E+00
      25     1     1     2     0     0 -4.577277389E+01 -2.097992001E+02  3.230606356E+02  4.075586159E+02  1.250000000E+02  0.00000E+00  9.000E+00
      25     1     1     2     0     0  4.966121157E+01  1.724760905E+02  5.645999187E+02  6.054851822E+02  1.250000000E+02  0.00000E+00  9.000E+00
      21     1     1     2   512   501 -3.888437681E+00  3.732310955E+01  5.990712309E+01  7.068944654E+01  6.743495762E-07  0.00000E+00  9.000E+00
#rwgt            1           1   4.3805291050609249E-002           9      457716           0
</event>
<event>
      5   9999  3.79277E-02  3.66979E+01 -1.00000E+00  1.47200E-01
      21    -1     0     0   511   501  0.000000000E+00  0.000000000E+00  1.846232087E+03  1.846232087E+03  0.000000000E+00  0.00000E+00  9.000E+00
      21    -1     0     0   501   502  0.000000000E+00  0.000000000E+00 -5.271158126E+01  5.271158126E+01  0.000000000E+00  0.00000E+00  9.000E+00
      25     1     1     2     0     0 -1.124427031E+02 -8.538064615E+01  5.119071569E+02  5.455338243E+02  1.250000000E+02  0.00000E+00  9.000E+00
      25     1     1     2     0     0  9.296790020E+01  5.427647385E+01  1.555134889E+02  2.267121772E+02  1.250000000E+02  0.00000E+00  9.000E+00
      21     1     1     2   511   502  1.947480288E+01  3.110417230E+01  1.126099860E+03  1.126697666E+03  1.525878906E-05  0.00000E+00  9.000E+00
#rwgt            1           1   3.8235341234611378E-002           9      457987           0
</event>
<event>
      5   9999 -3.79277E-02  3.12252E+01 -1.00000E+00  1.51842E-01
      21    -1     0     0   502   501  0.000000000E+00  0.000000000E+00  1.142662938E+02  1.142662938E+02  0.000000000E+00  0.00000E+00  9.000E+00
      21    -1     0     0   512   502  0.000000000E+00  0.000000000E+00 -8.004971372E+02  8.004971372E+02  0.000000000E+00  0.00000E+00  9.000E+00
      25     1     1     2     0     0 -1.782310766E+02  1.818971063E+02 -2.365752254E+02  3.693855861E+02  1.250000000E+02  0.00000E+00  9.000E+00
      25     1     1     2     0     0  1.866246463E+02 -1.518211797E+02 -3.615952991E+02  4.519453391E+02  1.250000000E+02  0.00000E+00  9.000E+00
      21     1     1     2   512   501 -8.393569678E+00 -3.007592661E+01 -8.806031891E+01  9.343250580E+01  1.348699152E-06  0.00000E+00  9.000E+00
#rwgt            1           1 -0.12144273616804409                9      458057           0
</event>
<event>
      5   9999  3.79277E-02  3.29742E+01 -1.00000E+00  1.50242E-01
      21    -1     0     0   511   501  0.000000000E+00  0.000000000E+00  3.410308999E+02  3.410308999E+02  0.000000000E+00  0.00000E+00  9.000E+00
      21    -1     0     0   501   502  0.000000000E+00  0.000000000E+00 -1.460716853E+02  1.460716853E+02  0.000000000E+00  0.00000E+00  9.000E+00
      25     1     1     2     0     0  2.343357622E+01  1.057614627E+02  2.384268406E+02  2.901843859E+02  1.250000000E+02  0.00000E+00  9.000E+00
      25     1     1     2     0     0 -3.313864066E+01 -7.424777613E+01 -5.913060536E+01  1.604129990E+02  1.250000000E+02  0.00000E+00  9.000E+00
      21     1     1     2   511   502  9.705064434E+00 -3.151368661E+01  1.566297937E+01  3.650520021E+01  4.129530925E-07  0.00000E+00  9.000E+00
#rwgt            1           1   4.4532963173193073E-002           9      458232           0
</event>
<event>
      5   9999  3.79277E-02  5.93557E+01 -1.00000E+00  1.34954E-01
      21    -1     0     0   502   501  0.000000000E+00  0.000000000E+00  3.606998086E+02  3.606998086E+02  0.000000000E+00  0.00000E+00  9.000E+00
      21    -1     0     0   512   502  0.000000000E+00  0.000000000E+00 -2.708690232E+02  2.708690232E+02  0.000000000E+00  0.00000E+00  9.000E+00
      25     1     1     2     0     0  1.796605797E+02  5.278601995E+01 -5.435117763E+01  2.316103156E+02  1.250000000E+02  0.00000E+00  9.000E+00
      25     1     1     2     0     0 -2.367442061E+02 -3.652086218E+01  1.854056817E+02  3.276917138E+02  1.250000000E+02  0.00000E+00  9.000E+00
      21     1     1     2   512   501  5.708362637E+01 -1.626515777E+01 -4.122371856E+01  7.226680239E+01  1.261592536E-06  0.00000E+00  9.000E+00
#rwgt            1           1   2.3989614058433972E-002           9      458428           0
</event>
<event>
      5   9999  3.79277E-02  7.20478E+01 -1.00000E+00  1.30590E-01
      21    -1     0     0   502   511  0.000000000E+00  0.000000000E+00  9.425944571E+01  9.425944571E+01  0.000000000E+00  0.00000E+00  9.000E+00
      21    -1     0     0   501   502  0.000000000E+00  0.000000000E+00 -1.951780855E+03  1.951780855E+03  0.000000000E+00  0.00000E+00  9.000E+00
      25     1     1     2     0     0  3.057845478E+02  7.321343309E+01 -1.528730954E+03  1.565729135E+03  1.250000000E+02  0.00000E+00  9.000E+00
      25     1     1     2     0     0 -2.337394359E+02 -7.259542091E+01 -2.320492381E+02  3.596888488E+02  1.250000000E+02  0.00000E+00  9.000E+00
      21     1     1     2   501   511 -7.204511183E+01 -6.180121811E-01 -9.674121714E+01  1.206223162E+02  1.348699152E-06  0.00000E+00  9.000E+00
#rwgt            1           1   4.3670798915377784E-002           9      458586           0
</event>
<event>
      5   9999  3.79277E-02  3.83990E+01 -1.00000E+00  1.45949E-01
      21    -1     0     0   512   501  0.000000000E+00  0.000000000E+00  2.234103143E+03  2.234103143E+03  0.000000000E+00  0.00000E+00  9.000E+00
      21    -1     0     0   501   502  0.000000000E+00  0.000000000E+00 -2.145160178E+02  2.145160178E+02  0.000000000E+00  0.00000E+00  9.000E+00
      25     1     1     2     0     0 -1.219621508E+02 -1.498011702E+02  1.214705221E+02  2.601830982E+02  1.250000000E+02  0.00000E+00  9.000E+00
      25     1     1     2     0     0  1.557303663E+02  1.315202024E+02 -4.637315371E+01  2.435671981E+02  1.250000000E+02  0.00000E+00  9.000E+00
      21     1     1     2   512   502 -3.376821553E+01  1.828096782E+01  1.944489757E+03  1.944868865E+03  0.000000000E+00  0.00000E+00  9.000E+00
#rwgt            1           1   3.4800820004818211E-002           9      458682           0
</event>
<event>
      5   9999  3.79277E-02  1.32088E+01 -1.00000E+00  1.82750E-01
      21    -1     0     0   502   511  0.000000000E+00  0.000000000E+00  2.926888536E+02  2.926888536E+02  0.000000000E+00  0.00000E+00  9.000E+00
      21    -1     0     0   501   502  0.000000000E+00  0.000000000E+00 -4.063068730E+02  4.063068730E+02  0.000000000E+00  0.00000E+00  9.000E+00
      25     1     1     2     0     0 -3.044358587E+02  6.631189861E+01 -9.045337531E+00  3.358351948E+02  1.250000000E+02  0.00000E+00  9.000E+00
      25     1     1     2     0     0  2.974851549E+02 -7.754395411E+01 -1.088736629E+02  3.492691751E+02  1.250000000E+02  0.00000E+00  9.000E+00
      21     1     1     2   501   511  6.950703745E+00  1.123205550E+01  4.300980967E+00  1.389135669E+01  2.149076030E-07  0.00000E+00  9.000E+00
#rwgt            1           1   3.0291678997154597E-002           9      458875           0
</event>
<event>
      5   9999  3.79277E-02  6.41725E+01 -1.00000E+00  1.33161E-01
      21    -1     0     0   502   501  0.000000000E+00  0.000000000E+00  7.192313927E+01  7.192313927E+01  0.000000000E+00  0.00000E+00  9.000E+00
       2    -1     0     0   501     0  0.000000000E+00  0.000000000E+00 -1.678026526E+03  1.678026526E+03  0.000000000E+00  0.00000E+00  9.000E+00
      25     1     1     2     0     0  2.090986630E+02  5.380810996E+01 -5.844369813E+02  6.354597932E+02  1.250000000E+02  0.00000E+00  9.000E+00
      25     1     1     2     0     0 -2.129493298E+02 -1.178649452E+02 -3.726690766E+02  4.623275928E+02  1.250000000E+02  0.00000E+00  9.000E+00
       2     1     1     2   502     0  3.850666811E+00  6.405683526E+01 -6.489973288E+02  6.521622793E+02  0.000000000E+00  0.00000E+00  9.000E+00
#rwgt            1           1   3.5977307364592100E-002           9      459159           0
</event>
<event>
      5   9999  3.79277E-02  2.25696E+02 -1.00000E+00  1.09770E-01
      -1    -1     0     0     0   501  0.000000000E+00  0.000000000E+00  5.379989646E+02  5.379989646E+02  0.000000000E+00  0.00000E+00  9.000E+00
      21    -1     0     0   501   502  0.000000000E+00  0.000000000E+00 -2.962716652E+02  2.962716652E+02  0.000000000E+00  0.00000E+00  9.000E+00
      25     1     1     2     0     0 -2.118918923E+02 -1.598156385E+02  6.824438836E+01  3.012001143E+02  1.250000000E+02  0.00000E+00  9.000E+00
      25     1     1     2     0     0  2.115210260E+00  2.430761206E+02  5.752470774E+01  2.793287785E+02  1.250000000E+02  0.00000E+00  9.000E+00
      -1     1     1     2     0   502  2.097766820E+02 -8.326048204E+01  1.159582033E+02  2.537417370E+02  3.303624740E-06  0.00000E+00  9.000E+00
#rwgt            2           5   2.9224197276743315E-005           9      459283           0
</event>
<event>
      5   9999  3.79277E-02  3.39399E+01 -1.00000E+00  1.49409E-01
      21    -1     0     0   502   501  0.000000000E+00  0.000000000E+00  2.885499395E+02  2.885499395E+02  0.000000000E+00  0.00000E+00  9.000E+00
       5    -1     0     0   501     0  0.000000000E+00  0.000000000E+00 -2.124639724E+02  2.124639724E+02  0.000000000E+00  0.00000E+00  9.000E+00
      25     1     1     2     0     0 -5.504731677E+01 -1.478880169E+02  1.495737233E+02  2.507954771E+02  1.250000000E+02  0.00000E+00  9.000E+00
      25     1     1     2     0     0  2.605612547E+01  1.302406353E+02 -1.552595680E+01  1.830508129E+02  1.250000000E+02  0.00000E+00  9.000E+00
       5     1     1     2   502     0  2.899119130E+01  1.764738162E+01 -5.796179944E+01  6.716762200E+01  0.000000000E+00  0.00000E+00  9.000E+00
#rwgt            1           1   3.2962353662295080E-002           9      459497           0
</event>
<event>
      5   9999  3.79277E-02  2.00311E+01 -1.00000E+00  1.66313E-01
      21    -1     0     0   502   501  0.000000000E+00  0.000000000E+00  5.885777626E+02  5.885777626E+02  0.000000000E+00  0.00000E+00  9.000E+00
      21    -1     0     0   501   511  0.000000000E+00  0.000000000E+00 -1.515496369E+02  1.515496369E+02  0.000000000E+00  0.00000E+00  9.000E+00
      25     1     1     2     0     0 -1.229612517E+02  5.340377916E+01  2.364552707E+02  2.991780876E+02  1.250000000E+02  0.00000E+00  9.000E+00
      25     1     1     2     0     0  1.055134497E+02 -6.324336270E+01  2.956669143E+02  3.437684325E+02  1.250000000E+02  0.00000E+00  9.000E+00
      21     1     1     2   502   511  1.744780205E+01  9.839583533E+00 -9.509405935E+01  9.718087941E+01  0.000000000E+00  0.00000E+00  9.000E+00
#rwgt            1           1   4.1387928947333182E-002           9      459915           0
</event>
<event>
      5   9999  3.79277E-02  2.61315E+01 -1.00000E+00  1.57324E-01
      21    -1     0     0   502   512  0.000000000E+00  0.000000000E+00  1.021351831E+02  1.021351831E+02  0.000000000E+00  0.00000E+00  9.000E+00
      21    -1     0     0   501   502  0.000000000E+00  0.000000000E+00 -1.164740496E+03  1.164740496E+03  0.000000000E+00  0.00000E+00  9.000E+00
      25     1     1     2     0     0 -2.904717494E+02  5.706547079E+01 -3.413481948E+02  4.688004855E+02  1.250000000E+02  0.00000E+00  9.000E+00
      25     1     1     2     0     0  2.838782545E+02 -3.177944317E+01 -6.910275659E+02  7.581166752E+02  1.250000000E+02  0.00000E+00  9.000E+00
      21     1     1     2   501   512  6.593494954E+00 -2.528602762E+01 -3.022955227E+01  3.995851847E+01  6.743495762E-07  0.00000E+00  9.000E+00
#rwgt            1           1   2.6037679265716780E-002           9      460009           0
</event>
<event>
      5   9999  3.79277E-02  1.14405E+01 -1.00000E+00  1.89235E-01
      21    -1     0     0   502   511  0.000000000E+00  0.000000000E+00  5.639885532E+02  5.639885532E+02  0.000000000E+00  0.00000E+00  9.000E+00
      21    -1     0     0   501   502  0.000000000E+00  0.000000000E+00 -1.346068310E+02  1.346068310E+02  0.000000000E+00  0.00000E+00  9.000E+00
      25     1     1     2     0     0  1.715755431E+02 -9.278131023E+01  3.660837497E+02  4.332307125E+02  1.250000000E+02  0.00000E+00  9.000E+00
      25     1     1     2     0     0 -1.802381667E+02  1.002542038E+02  4.740509304E+01  2.457823122E+02  1.250000000E+02  0.00000E+00  9.000E+00
      21     1     1     2   501   511  8.662623616E+00 -7.472893618E+00  1.589287947E+01  1.958235953E+01  1.685873940E-07  0.00000E+00  9.000E+00
#rwgt            1           1   3.6713674733109991E-002           9      460212           0
</event>
<event>
      5   9999  3.79277E-02  4.43044E+01 -1.00000E+00  1.42140E-01
      21    -1     0     0   502   512  0.000000000E+00  0.000000000E+00  1.373765325E+02  1.373765325E+02  0.000000000E+00  0.00000E+00  9.000E+00
      21    -1     0     0   501   502  0.000000000E+00  0.000000000E+00 -8.414674356E+02  8.414674356E+02  0.000000000E+00  0.00000E+00  9.000E+00
      25     1     1     2     0     0  1.069298320E+02  1.057163082E+02  2.502077998E+01  1.971318499E+02  1.250000000E+02  0.00000E+00  9.000E+00
      25     1     1     2     0     0 -1.005182200E+02 -6.187831250E+01 -7.147527314E+02  7.351389700E+02  1.250000000E+02  0.00000E+00  9.000E+00
      21     1     1     2   501   512 -6.411612042E+00 -4.383799574E+01 -1.435895160E+01  4.657314817E+01  4.460403188E-07  0.00000E+00  9.000E+00
#rwgt            1           1   6.3430594137222115E-002           9      460732           0
</event>
<event>
      5   9999  3.79277E-02  8.06658E+01 -1.00000E+00  1.28175E-01
      21    -1     0     0   502   501  0.000000000E+00  0.000000000E+00  4.904996817E+02  4.904996817E+02  0.000000000E+00  0.00000E+00  9.000E+00
      21    -1     0     0   501   511  0.000000000E+00  0.000000000E+00 -1.640056329E+02  1.640056329E+02  0.000000000E+00  0.00000E+00  9.000E+00
      25     1     1     2     0     0  1.009973402E+02 -1.320629639E+02  1.158501097E+02  2.380910268E+02  1.250000000E+02  0.00000E+00  9.000E+00
      25     1     1     2     0     0 -2.658901610E+01  1.632138386E+02  2.515599008E+02  3.259649008E+02  1.250000000E+02  0.00000E+00  9.000E+00
      21     1     1     2   502   511 -7.440832408E+01 -3.115087474E+01 -4.091596161E+01  9.044938697E+01  1.261592536E-06  0.00000E+00  9.000E+00
#rwgt            1           1   3.5844996735713307E-002           9      460862           0
</event>
<event>
      5   9999  3.79277E-02  4.77144E+01 -1.00000E+00  1.40245E-01
       2    -1     0     0   502     0  0.000000000E+00  0.000000000E+00  3.435526562E+03  3.435526562E+03  0.000000000E+00  0.00000E+00  9.000E+00
      21    -1     0     0   501   502  0.000000000E+00  0.000000000E+00 -1.427704129E+03  1.427704129E+03  0.000000000E+00  0.00000E+00  9.000E+00
      25     1     1     2     0     0 -7.055036840E+00 -5.954328609E+01 -1.174585958E+02  1.817049757E+02  1.250000000E+02  0.00000E+00  9.000E+00
      25     1     1     2     0     0  4.839640333E+01  8.336674978E+01 -1.273080434E+03  1.282829303E+03  1.250000000E+02  0.00000E+00  9.000E+00
       2     1     1     2   501     0 -4.134136649E+01 -2.382346369E+01  3.398361463E+03  3.398696412E+03  6.103515625E-05  0.00000E+00  9.000E+00
#rwgt            1           1   3.4977296817858210E-002           9      461032           0
</event>
<event>
      5   9999  3.79277E-02  2.04822E+01 -1.00000E+00  1.65520E-01
      21    -1     0     0   502   511  0.000000000E+00  0.000000000E+00  1.013830372E+02  1.013830372E+02  0.000000000E+00  0.00000E+00  9.000E+00
      21    -1     0     0   501   502  0.000000000E+00  0.000000000E+00 -7.681187688E+02  7.681187688E+02  0.000000000E+00  0.00000E+00  9.000E+00
      25     1     1     2     0     0  4.417634597E+01 -1.079711965E+02 -5.559593803E+02  5.816572542E+02  1.250000000E+02  0.00000E+00  9.000E+00
      25     1     1     2     0     0 -4.241474788E+01  8.756493999E+01 -1.656953667E+02  2.292304170E+02  1.250000000E+02  0.00000E+00  9.000E+00
      21     1     1     2   501   511 -1.761598088E+00  2.040625653E+01  5.491901548E+01  5.861413477E+01  1.168007728E-06  0.00000E+00  9.000E+00
#rwgt            1           1   4.8097756944483629E-002           9      461147           0
</event>
<event>
      5   9999  3.79277E-02  3.54124E+01 -1.00000E+00  1.48199E-01
      21    -1     0     0   502   501  0.000000000E+00  0.000000000E+00  2.154254460E+02  2.154254460E+02  0.000000000E+00  0.00000E+00  9.000E+00
      21    -1     0     0   512   502  0.000000000E+00  0.000000000E+00 -5.021182418E+02  5.021182418E+02  0.000000000E+00  0.00000E+00  9.000E+00
      25     1     1     2     0     0 -1.617615919E+02 -1.696278849E+02 -2.108804234E+01  2.664772739E+02  1.250000000E+02  0.00000E+00  9.000E+00
      25     1     1     2     0     0  1.942267837E+02  1.837716638E+02 -1.518618097E+02  3.319383635E+02  1.250000000E+02  0.00000E+00  9.000E+00
      21     1     1     2   512   501 -3.246519175E+01 -1.414377890E+01 -1.137429437E+02  1.191280504E+02  1.348699152E-06  0.00000E+00  9.000E+00
#rwgt            1           1   2.0725826230962877E-002           9      461478           0
</event>
<event>
      5   9999  3.79277E-02  1.25568E+02 -1.00000E+00  1.19538E-01
      21    -1     0     0   502   501  0.000000000E+00  0.000000000E+00  2.210637599E+02  2.210637599E+02  0.000000000E+00  0.00000E+00  9.000E+00
      21    -1     0     0   501   511  0.000000000E+00  0.000000000E+00 -2.671712892E+02  2.671712892E+02  0.000000000E+00  0.00000E+00  9.000E+00
      25     1     1     2     0     0  2.148931145E+01 -5.106468143E+01 -1.721243400E+01  1.378066039E+02  1.250000000E+02  0.00000E+00  9.000E+00
      25     1     1     2     0     0 -1.032640593E+02  1.463545932E+02  1.093354025E+01  2.186953936E+02  1.250000000E+02  0.00000E+00  9.000E+00
      21     1     1     2   502   511  8.177474782E+01 -9.528991175E+01 -3.982863552E+01  1.317330515E+02  2.023048729E-06  0.00000E+00  9.000E+00
#rwgt            1           1   3.0523837309082310E-002           9      461638           0
</event>
<event>
      5   9999  3.79277E-02  2.46345E+01 -1.00000E+00  1.59232E-01
      21    -1     0     0   502   512  0.000000000E+00  0.000000000E+00  5.785112273E+02  5.785112273E+02  0.000000000E+00  0.00000E+00  9.000E+00
      21    -1     0     0   501   502  0.000000000E+00  0.000000000E+00 -1.916221562E+02  1.916221562E+02  0.000000000E+00  0.00000E+00  9.000E+00
      25     1     1     2     0     0 -2.967503886E+01  1.811223825E+01 -1.490351124E+02  1.975983953E+02  1.250000000E+02  0.00000E+00  9.000E+00
      25     1     1     2     0     0  5.167307378E+00 -2.060793535E+01  2.073876470E+02  2.430761695E+02  1.250000000E+02  0.00000E+00  9.000E+00
      21     1     1     2   501   512  2.450773148E+01  2.495697100E+00  3.285365365E+02  3.294588187E+02  3.814697266E-06  0.00000E+00  9.000E+00
#rwgt            1           1   4.4806228233036899E-002           9      461718           0
</event>
<event>
      5   9999  3.79277E-02  6.02472E+01 -1.00000E+00  1.34608E-01
      21    -1     0     0   502   501  0.000000000E+00  0.000000000E+00  6.463763979E+02  6.463763979E+02  0.000000000E+00  0.00000E+00  9.000E+00
      21    -1     0     0   501   511  0.000000000E+00  0.000000000E+00 -1.210628503E+02  1.210628503E+02  0.000000000E+00  0.00000E+00  9.000E+00
      25     1     1     2     0     0  1.102567638E+02  3.368332310E+01  1.835463392E+02  2.502106689E+02  1.250000000E+02  0.00000E+00  9.000E+00
      25     1     1     2     0     0 -1.704998017E+02 -3.439566839E+01  3.867088224E+02  4.420655582E+02  1.250000000E+02  0.00000E+00  9.000E+00
      21     1     1     2   502   511  6.024303795E+01  7.123452847E-01 -4.494161412E+01  7.516302107E+01  8.259061849E-07  0.00000E+00  9.000E+00
#rwgt            1           1   4.6569621395825656E-002           9      461872           0
</event>
<event>
      5   9999 -3.79277E-02  7.60535E+01 -1.00000E+00  1.29422E-01
      21    -1     0     0   502   501  0.000000000E+00  0.000000000E+00  5.958756343E+01  5.958756343E+01  0.000000000E+00  0.00000E+00  9.000E+00
       2    -1     0     0   501     0  0.000000000E+00  0.000000000E+00 -3.377706178E+03  3.377706178E+03  0.000000000E+00  0.00000E+00  9.000E+00
      25     1     1     2     0     0  5.864303079E+01 -1.074735684E+02 -2.020720740E+02  2.672970184E+02  1.250000000E+02  0.00000E+00  9.000E+00
      25     1     1     2     0     0 -2.324301784E+01  4.016108825E+01 -1.412985535E+02  1.942766895E+02  1.250000000E+02  0.00000E+00  9.000E+00
       2     1     1     2   502     0 -3.540001295E+01  6.731248011E+01 -2.974747987E+03  2.975720033E+03  0.000000000E+00  0.00000E+00  9.000E+00
#rwgt            1           1 -0.40240332757158109                9      462060           0
</event>
<event>
      5   9999  3.79277E-02  9.99886E+01 -1.00000E+00  1.23830E-01
      21    -1     0     0   511   501  0.000000000E+00  0.000000000E+00  1.622412680E+03  1.622412680E+03  0.000000000E+00  0.00000E+00  9.000E+00
      21    -1     0     0   501   502  0.000000000E+00  0.000000000E+00 -7.429926040E+01  7.429926040E+01  0.000000000E+00  0.00000E+00  9.000E+00
      25     1     1     2     0     0  1.149081904E+02  1.692879706E+02  4.375104011E+02  4.989014535E+02  1.250000000E+02  0.00000E+00  9.000E+00
      25     1     1     2     0     0 -1.666204348E+01 -1.878732379E+02  2.744441902E+02  3.556945189E+02  1.250000000E+02  0.00000E+00  9.000E+00
      21     1     1     2   511   502 -9.824614688E+01  1.858526727E+01  8.361588287E+02  8.421159685E+02  1.078959322E-05  0.00000E+00  9.000E+00
#rwgt            1           1   3.2388804472300942E-002           9      462136           0
</event>
<event>
      5   9999  3.79277E-02  4.69987E+01 -1.00000E+00  1.40627E-01
      21    -1     0     0   512   501  0.000000000E+00  0.000000000E+00  3.117183429E+02  3.117183429E+02  0.000000000E+00  0.00000E+00  9.000E+00
      21    -1     0     0   501   502  0.000000000E+00  0.000000000E+00 -5.183770608E+02  5.183770608E+02  0.000000000E+00  0.00000E+00  9.000E+00
      25     1     1     2     0     0 -2.175775469E+02  2.039131092E+02  5.829749850E+01  3.285485403E+02  1.250000000E+02  0.00000E+00  9.000E+00
      25     1     1     2     0     0  1.926322171E+02 -2.437453841E+02 -2.945674696E+02  4.459977326E+02  1.250000000E+02  0.00000E+00  9.000E+00
      21     1     1     2   512   502  2.494532981E+01  3.983227497E+01  2.961125321E+01  5.554913073E+01  6.743495762E-07  0.00000E+00  9.000E+00
#rwgt            1           1   4.1560677918765825E-002           9      462250           0
</event>
<event>
      5   9999  3.79277E-02  1.75772E+02 -1.00000E+00  1.13728E-01
       1    -1     0     0   502     0  0.000000000E+00  0.000000000E+00  7.215968109E+02  7.215968109E+02  0.000000000E+00  0.00000E+00  9.000E+00
      21    -1     0     0   501   502  0.000000000E+00  0.000000000E+00 -1.858366963E+02  1.858366963E+02  0.000000000E+00  0.00000E+00  9.000E+00
      25     1     1     2     0     0  1.747857116E+02  2.059079092E+02  5.131650023E+01  3.020041312E+02  1.250000000E+02  0.00000E+00  9.000E+00
      25     1     1     2     0     0 -2.272851802E+01 -1.177360095E+02  1.569394533E+02  2.337377707E+02  1.250000000E+02  0.00000E+00  9.000E+00
       1     1     1     2   501     0 -1.520571935E+02 -8.817189976E+01  3.275041611E+02  3.716916054E+02  5.394796609E-06  0.00000E+00  9.000E+00
#rwgt            1           1   2.9160624808401179E-002           9      462418           0
</event>
<event>
      5   9999  3.79277E-02  7.13989E+00 -1.00000E+00  2.14346E-01
      21    -1     0     0   502   501  0.000000000E+00  0.000000000E+00  3.503405318E+02  3.503405318E+02  0.000000000E+00  0.00000E+00  9.000E+00
      21    -1     0     0   511   502  0.000000000E+00  0.000000000E+00 -1.190406391E+02  1.190406391E+02  0.000000000E+00  0.00000E+00  9.000E+00
      25     1     1     2     0     0 -1.209144569E+02 -8.892112503E+01  5.166943529E+01  2.020445567E+02  1.250000000E+02  0.00000E+00  9.000E+00
      25     1     1     2     0     0  1.159429795E+02  8.379643548E+01  1.772195521E+02  2.598006673E+02  1.250000000E+02  0.00000E+00  9.000E+00
      21     1     1     2   511   501  4.971477390E+00  5.124689549E+00  2.410905325E+00  7.535946848E+00  2.980232239E-08  0.00000E+00  9.000E+00
#rwgt            1           1   4.3440903459977295E-002           9      462607           0
</event>
<event>
      5   9999  3.79277E-02  2.41033E+01 -1.00000E+00  1.59948E-01
      21    -1     0     0   502   501  0.000000000E+00  0.000000000E+00  1.548350327E+02  1.548350327E+02  0.000000000E+00  0.00000E+00  9.000E+00
       1    -1     0     0   501     0  0.000000000E+00  0.000000000E+00 -1.167329380E+03  1.167329380E+03  0.000000000E+00  0.00000E+00  9.000E+00
      25     1     1     2     0     0  2.000565734E+02 -1.111245040E+02 -2.375298696E+02  3.527275534E+02  1.250000000E+02  0.00000E+00  9.000E+00
      25     1     1     2     0     0 -1.783528546E+02  1.216087197E+02 -6.328431645E+01  2.573486471E+02  1.250000000E+02  0.00000E+00  9.000E+00
       1     1     1     2   502     0 -2.170371878E+01 -1.048421568E+01 -7.116801612E+02  7.120882123E+02  7.629394531E-06  0.00000E+00  9.000E+00
#rwgt            1           1   3.6585647415790200E-002           9      462925           0
</event>
<event>
      5   9999  3.79277E-02  3.03625E+01 -1.00000E+00  1.52678E-01
      21    -1     0     0   502   501  0.000000000E+00  0.000000000E+00  7.512040948E+01  7.512040948E+01  0.000000000E+00  0.00000E+00  9.000E+00
      21    -1     0     0   511   502  0.000000000E+00  0.000000000E+00 -1.772257064E+03  1.772257064E+03  0.000000000E+00  0.00000E+00  9.000E+00
      25     1     1     2     0     0  6.578601995E+01  1.158536791E+02 -3.411976059E+02  3.870280115E+02  1.250000000E+02  0.00000E+00  9.000E+00
      25     1     1     2     0     0 -3.920730683E+01 -1.011752865E+02 -7.963720490E+01  1.836865153E+02  1.250000000E+02  0.00000E+00  9.000E+00
      21     1     1     2   511   501 -2.657871313E+01 -1.467839262E+01 -1.276301844E+03  1.276662946E+03  0.000000000E+00  0.00000E+00  9.000E+00
#rwgt            1           1   5.0475836948340916E-002           9      463100           0
</event>
<event>
      5   9999  3.79277E-02  1.43190E+02 -1.00000E+00  1.17199E-01
      21    -1     0     0   502   501  0.000000000E+00  0.000000000E+00  3.494894466E+02  3.494894466E+02  0.000000000E+00  0.00000E+00  9.000E+00
       1    -1     0     0   501     0  0.000000000E+00  0.000000000E+00 -4.511421012E+02  4.511421012E+02  0.000000000E+00  0.00000E+00  9.000E+00
      25     1     1     2     0     0 -9.163760665E+01  9.243196941E+00  2.290645408E+02  2.767281183E+02  1.250000000E+02  0.00000E+00  9.000E+00
      25     1     1     2     0     0  6.957246673E+01  1.322366689E+02 -3.862913621E+01  1.986053245E+02  1.250000000E+02  0.00000E+00  9.000E+00
       1     1     1     2   502     0  2.206513991E+01 -1.414798659E+02 -2.920880592E+02  3.252981051E+02  3.814697266E-06  0.00000E+00  9.000E+00
#rwgt            1           1   5.0918531278560962E-002           9      463216           0
</event>
<event>
      5   9999  3.79277E-02  5.95466E+01 -1.00000E+00  1.34880E-01
      21    -1     0     0   502   501  0.000000000E+00  0.000000000E+00  3.310113212E+02  3.310113212E+02  0.000000000E+00  0.00000E+00  9.000E+00
      21    -1     0     0   501   511  0.000000000E+00  0.000000000E+00 -1.905404207E+02  1.905404207E+02  0.000000000E+00  0.00000E+00  9.000E+00
      25     1     1     2     0     0 -1.325375647E+02  9.562514217E+01  2.015742132E+02  2.880408605E+02  1.250000000E+02  0.00000E+00  9.000E+00
      25     1     1     2     0     0  9.028660727E+01 -5.366499637E+01 -2.887489191E+01  1.658021793E+02  1.250000000E+02  0.00000E+00  9.000E+00
      21     1     1     2   502   511  4.225095744E+01 -4.196014580E+01 -3.222842079E+01  6.770870215E+01  6.743495762E-07  0.00000E+00  9.000E+00
#rwgt            1           1   3.2099865599321487E-002           9      463279           0
</event>
<event>
      5   9999  3.79277E-02  4.19482E+01 -1.00000E+00  1.43571E-01
      21    -1     0     0   502   501  0.000000000E+00  0.000000000E+00  3.464152230E+02  3.464152230E+02  0.000000000E+00  0.00000E+00  9.000E+00
      21    -1     0     0   501   512  0.000000000E+00  0.000000000E+00 -5.209232879E+02  5.209232879E+02  0.000000000E+00  0.00000E+00  9.000E+00
      25     1     1     2     0     0  6.326409407E+01 -3.552546248E+02 -3.452493236E+01  3.834386066E+02  1.250000000E+02  0.00000E+00  9.000E+00
      25     1     1     2     0     0 -7.727085701E+01  3.947953054E+02 -1.278179133E+02  4.402232814E+02  1.250000000E+02  0.00000E+00  9.000E+00
      21     1     1     2   502   512  1.400676294E+01 -3.954068061E+01 -1.216521921E+01  4.367662292E+01  5.057621821E-07  0.00000E+00  9.000E+00
#rwgt            1           1   4.3527473406510454E-002           9      463420           0
</event>
<event>
      5   9999  3.79277E-02  3.91953E+01 -1.00000E+00  1.45390E-01
      21    -1     0     0   502   501  0.000000000E+00  0.000000000E+00  4.683678521E+01  4.683678521E+01  0.000000000E+00  0.00000E+00  9.000E+00
      21    -1     0     0   511   502  0.000000000E+00  0.000000000E+00 -8.650625287E+02  8.650625287E+02  0.000000000E+00  0.00000E+00  9.000E+00
      25     1     1     2     0     0  7.602851994E+01  8.160362234E+01 -1.810380532E+02  2.466561650E+02  1.250000000E+02  0.00000E+00  9.000E+00
      25     1     1     2     0     0 -6.521670094E+01 -4.392897419E+01 -5.530026724E+02  5.723809295E+02  1.250000000E+02  0.00000E+00  9.000E+00
      21     1     1     2   511   501 -1.081181900E+01 -3.767464814E+01 -8.418501793E+01  9.286221937E+01  2.132480600E-06  0.00000E+00  9.000E+00
#rwgt            1           1   4.7040049942413988E-002           9      463550           0
</event>
<event>
      5   9999  3.79277E-02  3.33770E+01 -1.00000E+00  1.49890E-01
      21    -1     0     0   502   512  0.000000000E+00  0.000000000E+00  1.239761365E+02  1.239761365E+02  0.000000000E+00  0.00000E+00  9.000E+00
      21    -1     0     0   501   502  0.000000000E+00  0.000000000E+00 -6.661997332E+02  6.661997332E+02  0.000000000E+00  0.00000E+00  9.000E+00
      25     1     1     2     0     0  5.435758887E+01 -1.378568082E+02 -2.898644868E+02  3.487200421E+02  1.250000000E+02  0.00000E+00  9.000E+00
      25     1     1     2     0     0 -2.424527938E+01  1.522538726E+02 -3.139352938E+02  3.714154601E+02  1.250000000E+02  0.00000E+00  9.000E+00
      21     1     1     2   501   512 -3.011230949E+01 -1.439706442E+01  6.157618393E+01  7.004036746E+01  1.651812370E-06  0.00000E+00  9.000E+00
#rwgt            1           1   3.1308070745178024E-002           9      463669           0
</event>
<event>
      5   9999  3.79277E-02  4.46884E+01 -1.00000E+00  1.41917E-01
      21    -1     0     0   511   501  0.000000000E+00  0.000000000E+00  1.058966109E+03  1.058966109E+03  0.000000000E+00  0.00000E+00  9.000E+00
      21    -1     0     0   501   502  0.000000000E+00  0.000000000E+00 -1.225472364E+02  1.225472364E+02  0.000000000E+00  0.00000E+00  9.000E+00
      25     1     1     2     0     0 -9.623371779E+01  1.763985248E+02  2.407592065E+02  3.375905263E+02  1.250000000E+02  0.00000E+00  9.000E+00
      25     1     1     2     0     0  1.368303292E+02 -1.577178480E+02  1.288665934E+02  2.753707636E+02  1.250000000E+02  0.00000E+00  9.000E+00
      21     1     1     2   511   502 -4.059661138E+01 -1.868067676E+01  5.667930732E+02  5.685520560E+02  7.629394531E-06  0.00000E+00  9.000E+00
#rwgt            1           1   4.1935754247258539E-002           9      463816           0
</event>
<event>
      5   9999  3.79277E-02  1.92511E+01 -1.00000E+00  1.67748E-01
      21    -1     0     0   512   501  0.000000000E+00  0.000000000E+00  8.792563832E+02  8.792563832E+02  0.000000000E+00  0.00000E+00  9.000E+00
      21    -1     0     0   501   502  0.000000000E+00  0.000000000E+00 -6.648274577E+01  6.648274577E+01  0.000000000E+00  0.00000E+00  9.000E+00
      25     1     1     2     0     0  2.736189635E+01  7.067260750E+01  7.573087624E+01  1.646312742E+02  1.250000000E+02  0.00000E+00  9.000E+00
      25     1     1     2     0     0 -3.419598519E+01 -8.866983464E+01  2.604271203E+02  3.041035843E+02  1.250000000E+02  0.00000E+00  9.000E+00
      21     1     1     2   512   502  6.834088834E+00  1.799722713E+01  4.766156409E+02  4.770042705E+02  5.394796609E-06  0.00000E+00  9.000E+00
#rwgt            2          11   2.3558397317485365E-004           9      463951           0
</event>
<event>
      5   9999  3.79277E-02  3.06379E+01 -1.00000E+00  1.52408E-01
      21    -1     0     0   511   501  0.000000000E+00  0.000000000E+00  4.843789883E+02  4.843789883E+02  0.000000000E+00  0.00000E+00  9.000E+00
      21    -1     0     0   501   502  0.000000000E+00  0.000000000E+00 -5.894512033E+02  5.894512033E+02  0.000000000E+00  0.00000E+00  9.000E+00
      25     1     1     2     0     0  3.053910893E+02 -2.625375828E+02  2.304731251E+02  4.805544310E+02  1.250000000E+02  0.00000E+00  9.000E+00
      25     1     1     2     0     0 -3.061995423E+02  2.319103103E+02 -3.695683670E+02  5.474909402E+02  1.250000000E+02  0.00000E+00  9.000E+00
      21     1     1     2   511   502  8.084529788E-01  3.062727248E+01  3.402302690E+01  4.578482036E+01  8.259061849E-07  0.00000E+00  9.000E+00
#rwgt            1           1   6.4676405713397014E-002           9      464016           0
</event>
<event>
      5   9999  3.79277E-02  1.46373E+02 -1.00000E+00  1.16816E-01
      21    -1     0     0   502   501  0.000000000E+00  0.000000000E+00  7.059050519E+02  7.059050519E+02  0.000000000E+00  0.00000E+00  9.000E+00
      21    -1     0     0   512   502  0.000000000E+00  0.000000000E+00 -1.014889747E+03  1.014889747E+03  0.000000000E+00  0.00000E+00  9.000E+00
      25     1     1     2     0     0  2.869809190E+02 -2.410769578E+02 -1.155513812E+01  3.952653143E+02  1.250000000E+02  0.00000E+00  9.000E+00
      25     1     1     2     0     0 -3.758157970E+02  1.247437026E+02  4.216005169E+02  5.917520600E+02  1.250000000E+02  0.00000E+00  9.000E+00
      21     1     1     2   512   501  8.883487795E+01  1.163332552E+02 -7.190300736E+02  7.337774243E+02  7.629394531E-06  0.00000E+00  9.000E+00
#rwgt            1           1   3.1800401686896282E-002           9      464226           0
</event>
<event>
      5   9999  3.79277E-02  6.13313E+00 -1.00000E+00  2.24002E-01
      21    -1     0     0   502   511  0.000000000E+00  0.000000000E+00  6.146260337E+01  6.146260337E+01  0.000000000E+00  0.00000E+00  9.000E+00
      21    -1     0     0   501   502  0.000000000E+00  0.000000000E+00 -1.199431649E+03  1.199431649E+03  0.000000000E+00  0.00000E+00  9.000E+00
      25     1     1     2     0     0  6.965230830E+00 -1.422737115E+02 -1.009895145E+03  1.027523005E+03  1.250000000E+02  0.00000E+00  9.000E+00
      25     1     1     2     0     0 -1.298273785E+01  1.410884232E+02 -1.244822214E+02  2.262638241E+02  1.250000000E+02  0.00000E+00  9.000E+00
      21     1     1     2   501   511  6.017507025E+00  1.185288237E+00 -3.591679736E+00  7.107423044E+00  4.214684851E-08  0.00000E+00  9.000E+00
#rwgt            1           1   4.2186125096423062E-002           9      464351           0
</event>
<event>
      5   9999  3.79277E-02  2.32901E+01 -1.00000E+00  1.61091E-01
      21    -1     0     0   502   501  0.000000000E+00  0.000000000E+00  3.111659868E+03  3.111659868E+03  0.000000000E+00  0.00000E+00  9.000E+00
      21    -1     0     0   501   512  0.000000000E+00  0.000000000E+00 -2.461725940E+01  2.461725940E+01  0.000000000E+00  0.00000E+00  9.000E+00
      25     1     1     2     0     0  1.033813565E+02  1.882933491E+02  1.572383643E+03  1.591903706E+03  1.250000000E+02  0.00000E+00  9.000E+00
      25     1     1     2     0     0 -1.207010491E+02 -1.727223004E+02  1.491640887E+03  1.511628021E+03  1.250000000E+02  0.00000E+00  9.000E+00
      21     1     1     2   502   512  1.731969262E+01 -1.557104869E+01  2.301807872E+01  3.274540055E+01  7.539457465E-07  0.00000E+00  9.000E+00
#rwgt            1           1   3.0954131221309931E-002           9      464750           0
</event>
<event>
      5   9999  3.79277E-02  2.26799E+01 -1.00000E+00  1.61986E-01
      21    -1     0     0   502   501  0.000000000E+00  0.000000000E+00  3.763748889E+02  3.763748889E+02  0.000000000E+00  0.00000E+00  9.000E+00
      21    -1     0     0   511   502  0.000000000E+00  0.000000000E+00 -1.022466267E+02  1.022466267E+02  0.000000000E+00  0.00000E+00  9.000E+00
      25     1     1     2     0     0 -8.308877162E+01  3.574416087E+01  1.214573138E+02  1.963625934E+02  1.250000000E+02  0.00000E+00  9.000E+00
      25     1     1     2     0     0  7.614452306E+01 -1.415352831E+01  1.889785618E+02  2.394498018E+02  1.250000000E+02  0.00000E+00  9.000E+00
      21     1     1     2   511   501  6.944248554E+00 -2.159063256E+01 -3.630761339E+01  4.280912044E+01  4.768371582E-07  0.00000E+00  9.000E+00
#rwgt            1           1   5.0859125263508630E-002           9      465042           0
</event>
<event>
      5   9999  3.79277E-02  1.99303E+02 -1.00000E+00  1.11703E-01
      21    -1     0     0   502   501  0.000000000E+00  0.000000000E+00  4.154991369E+02  4.154991369E+02  0.000000000E+00  0.00000E+00  9.000E+00
      21    -1     0     0   501   512  0.000000000E+00  0.000000000E+00 -5.013361933E+02  5.013361933E+02  0.000000000E+00  0.00000E+00  9.000E+00
      25     1     1     2     0     0  2.016384142E+02  7.484351442E+01  1.097817539E+02  2.719129184E+02  1.250000000E+02  0.00000E+00  9.000E+00
      25     1     1     2     0     0 -1.415682643E+02  1.151914723E+02  1.347995551E+02  2.590493559E+02  1.250000000E+02  0.00000E+00  9.000E+00
      21     1     1     2   502   512 -6.007014987E+01 -1.900349867E+02 -3.304183654E+02  3.858730559E+02  5.394796609E-06  0.00000E+00  9.000E+00
#rwgt            2          11   2.8175638174990150E-003           9      465194           0
</event>
<event>
      5   9999  3.79277E-02  2.45006E+01 -1.00000E+00  1.59410E-01
      21    -1     0     0   511   501  0.000000000E+00  0.000000000E+00  5.436685246E+02  5.436685246E+02  0.000000000E+00  0.00000E+00  9.000E+00
      21    -1     0     0   501   502  0.000000000E+00  0.000000000E+00 -7.230826350E+01  7.230826350E+01  0.000000000E+00  0.00000E+00  9.000E+00
      25     1     1     2     0     0 -7.296911810E+01  1.149230507E+02  2.283662040E+02  2.937821010E+02  1.250000000E+02  0.00000E+00  9.000E+00
      25     1     1     2     0     0  4.887344211E+01 -1.193590161E+02  1.785889435E+02  2.532867917E+02  1.250000000E+02  0.00000E+00  9.000E+00
      21     1     1     2   511   502  2.409567599E+01  4.435965438E+00  6.440511361E+01  6.890789541E+01  1.348699152E-06  0.00000E+00  9.000E+00
#rwgt            1           1   4.1590338148689066E-002           9      465214           0
</event>
<event>
      5   9999  3.79277E-02  5.74571E+01 -1.00000E+00  1.35716E-01
      21    -1     0     0   502   512  0.000000000E+00  0.000000000E+00  3.036630678E+02  3.036630678E+02  0.000000000E+00  0.00000E+00  9.000E+00
      21    -1     0     0   501   502  0.000000000E+00  0.000000000E+00 -2.993439006E+02  2.993439006E+02  0.000000000E+00  0.00000E+00  9.000E+00
      25     1     1     2     0     0  6.694068013E+01  1.253926669E+02  4.302754776E+01  1.941152890E+02  1.250000000E+02  0.00000E+00  9.000E+00
      25     1     1     2     0     0 -6.388661056E+01 -1.827685328E+02 -1.559933018E+02  2.782889610E+02  1.250000000E+02  0.00000E+00  9.000E+00
      21     1     1     2   501   512 -3.054069567E+00  5.737586597E+01  1.172849212E+02  1.306027185E+02  3.015782986E-06  0.00000E+00  9.000E+00
#rwgt            1           1   4.1277888156284463E-002           9      465518           0
</event>
<event>
      5   9999  3.79277E-02  2.89831E+01 -1.00000E+00  1.54087E-01
      21    -1     0     0   502   501  0.000000000E+00  0.000000000E+00  2.128838249E+02  2.128838249E+02  0.000000000E+00  0.00000E+00  9.000E+00
      21    -1     0     0   501   511  0.000000000E+00  0.000000000E+00 -3.127994521E+02  3.127994521E+02  0.000000000E+00  0.00000E+00  9.000E+00
      25     1     1     2     0     0 -1.212844101E+02 -1.572496337E+02  5.043445418E+01  2.400124780E+02  1.250000000E+02  0.00000E+00  9.000E+00
      25     1     1     2     0     0  9.501357061E+01  1.450076863E+02 -1.286077839E+02  2.494389099E+02  1.250000000E+02  0.00000E+00  9.000E+00
      21     1     1     2   502   511  2.627083953E+01  1.224194741E+01 -2.174229749E+01  3.623188908E+01  7.539457465E-07  0.00000E+00  9.000E+00
#rwgt            1           1   4.3287417241713179E-002           9      465673           0
</event>
<event>
      5   9999  3.79277E-02  3.74854E+01 -1.00000E+00  1.46611E-01
      21    -1     0     0   512   501  0.000000000E+00  0.000000000E+00  5.512207091E+01  5.512207091E+01  0.000000000E+00  0.00000E+00  9.000E+00
      21    -1     0     0   501   502  0.000000000E+00  0.000000000E+00 -1.979102574E+03  1.979102574E+03  0.000000000E+00  0.00000E+00  9.000E+00
      25     1     1     2     0     0  5.623528666E+01  5.549152361E+01 -3.290197353E+02  3.607224734E+02  1.250000000E+02  0.00000E+00  9.000E+00
      25     1     1     2     0     0 -9.101416423E+01 -4.150625975E+01 -1.620342148E+03  1.628232178E+03  1.250000000E+02  0.00000E+00  9.000E+00
      21     1     1     2   512   502  3.477887757E+01 -1.398526385E+01  2.538137983E+01  4.526999417E+01  2.431401974E-06  0.00000E+00  9.000E+00
#rwgt            1           1   9.6241562691708901E-002           9      465861           0
</event>
<event>
      5   9999  3.79277E-02  2.83235E+01 -1.00000E+00  1.54795E-01
      21    -1     0     0   502   501  0.000000000E+00  0.000000000E+00  3.875444699E+03  3.875444699E+03  0.000000000E+00  0.00000E+00  9.000E+00
      21    -1     0     0   501   511  0.000000000E+00  0.000000000E+00 -1.677094648E+01  1.677094648E+01  0.000000000E+00  0.00000E+00  9.000E+00
      25     1     1     2     0     0  1.988975546E+02 -1.791140171E+01  2.069255379E+03  2.082624277E+03  1.250000000E+02  0.00000E+00  9.000E+00
      25     1     1     2     0     0 -1.997387049E+02  4.622237236E+01  1.643657418E+03  1.661104081E+03  1.250000000E+02  0.00000E+00  9.000E+00
      21     1     1     2   502   511  8.411502092E-01 -2.831097065E+01  1.457609550E+02  1.484872876E+02  1.907348633E-06  0.00000E+00  9.000E+00
#rwgt            1           1   7.2461553346357859E-003           9      465983           0
</event>
<event>
      5   9999  3.79277E-02  3.97591E+01 -1.00000E+00  1.45003E-01
      21    -1     0     0   502   501  0.000000000E+00  0.000000000E+00  1.696613947E+02  1.696613947E+02  0.000000000E+00  0.00000E+00  9.000E+00
      21    -1     0     0   512   502  0.000000000E+00  0.000000000E+00 -2.043932755E+02  2.043932755E+02  0.000000000E+00  0.00000E+00  9.000E+00
      25     1     1     2     0     0  5.375430292E+01  9.218923516E+01  4.422881952E+01  1.702044907E+02  1.250000000E+02  0.00000E+00  9.000E+00
      25     1     1     2     0     0 -5.687189587E+01 -5.255252214E+01 -7.106824962E+01  1.633152664E+02  1.250000000E+02  0.00000E+00  9.000E+00
      21     1     1     2   512   501  3.117592948E+00 -3.963671302E+01 -7.892450742E+00  4.053491314E+01  7.300048300E-07  0.00000E+00  9.000E+00
#rwgt            1           1   4.5378163126723381E-002           9      466122           0
</event>
<event>
      5   9999  3.79277E-02  3.37036E+01 -1.00000E+00  1.49609E-01
      21    -1     0     0   511   501  0.000000000E+00  0.000000000E+00  1.678870537E+02  1.678870537E+02  0.000000000E+00  0.00000E+00  9.000E+00
      21    -1     0     0   501   502  0.000000000E+00  0.000000000E+00 -4.957472524E+02  4.957472524E+02  0.000000000E+00  0.00000E+00  9.000E+00
      25     1     1     2     0     0 -6.645402216E+00  4.408155065E+01 -3.892717670E+01  1.383028184E+02  1.250000000E+02  0.00000E+00  9.000E+00
      25     1     1     2     0     0 -4.543480363E+00 -7.587376261E+01 -3.911967249E+02  4.176569748E+02  1.250000000E+02  0.00000E+00  9.000E+00
      21     1     1     2   511   502  1.118888258E+01  3.179221195E+01  1.022637028E+02  1.076745130E+02  0.000000000E+00  0.00000E+00  9.000E+00
#rwgt            1           1   3.9907124597946778E-002           9      466224           0
</event>
<event>
      5   9999 -3.79277E-02  8.28318E+01 -1.00000E+00  1.27623E-01
      21    -1     0     0   502   512  0.000000000E+00  0.000000000E+00  1.328168972E+02  1.328168972E+02  0.000000000E+00  0.00000E+00  9.000E+00
      21    -1     0     0   501   502  0.000000000E+00  0.000000000E+00 -6.581240641E+02  6.581240641E+02  0.000000000E+00  0.00000E+00  9.000E+00
      25     1     1     2     0     0 -9.314264525E+01  4.295034060E+01 -1.503025270E+02  2.207626186E+02  1.250000000E+02  0.00000E+00  9.000E+00
      25     1     1     2     0     0  1.740910021E+02 -6.051379813E+01 -4.203856873E+02  4.757296742E+02  1.250000000E+02  0.00000E+00  9.000E+00
      21     1     1     2   501   512 -8.094835683E+01  1.756345754E+01  4.538104755E+01  9.444866855E+01  1.507891493E-06  0.00000E+00  9.000E+00
#rwgt            1           1  -2.8440664508014100E-002           9      466337           0
</event>
<event>
      5   9999  3.79277E-02  3.89525E+01 -1.00000E+00  1.45559E-01
       2    -1     0     0   502     0  0.000000000E+00  0.000000000E+00  1.878581705E+03  1.878581705E+03  0.000000000E+00  0.00000E+00  9.000E+00
      21    -1     0     0   501   502  0.000000000E+00  0.000000000E+00 -7.260203774E+01  7.260203774E+01  0.000000000E+00  0.00000E+00  9.000E+00
      25     1     1     2     0     0  1.086360976E+02  1.301688522E+02  2.760672188E+02  3.472518410E+02  1.250000000E+02  0.00000E+00  9.000E+00
      25     1     1     2     0     0 -1.330484393E+02 -9.981536084E+01  2.580866832E+02  3.315097729E+02  1.250000000E+02  0.00000E+00  9.000E+00
       2     1     1     2   501     0  2.441234170E+01 -3.035349135E+01  1.271825765E+03  1.272422129E+03  2.157918644E-05  0.00000E+00  9.000E+00
#rwgt            1           1   4.1266457638863892E-002           9      466478           0
</event>
<event>
      5   9999  3.79277E-02  3.85757E+01 -1.00000E+00  1.45824E-01
      21    -1     0     0   502   501  0.000000000E+00  0.000000000E+00  1.380389447E+02  1.380389447E+02  0.000000000E+00  0.00000E+00  9.000E+00
      21    -1     0     0   501   511  0.000000000E+00  0.000000000E+00 -3.244607382E+02  3.244607382E+02  0.000000000E+00  0.00000E+00  9.000E+00
      25     1     1     2     0     0  1.060713588E+02  6.806114557E+01 -5.283021350E+01  1.852011991E+02  1.250000000E+02  0.00000E+00  9.000E+00
      25     1     1     2     0     0 -1.231676482E+02 -1.026414549E+02 -1.020795911E+02  2.274879794E+02  1.250000000E+02  0.00000E+00  9.000E+00
      21     1     1     2   502   511  1.709628941E+01  3.458030936E+01 -3.151198886E+01  4.981050440E+01  1.066240300E-06  0.00000E+00  9.000E+00
#rwgt            1           1   4.1478915809129657E-002           9      466676           0
</event>
<event>
      5   9999  3.79277E-02  4.12259E+01 -1.00000E+00  1.44032E-01
      21    -1     0     0   502   501  0.000000000E+00  0.000000000E+00  2.885460339E+02  2.885460339E+02  0.000000000E+00  0.00000E+00  9.000E+00
      21    -1     0     0   512   502  0.000000000E+00  0.000000000E+00 -7.280007697E+02  7.280007697E+02  0.000000000E+00  0.00000E+00  9.000E+00
      25     1     1     2     0     0  1.948015883E+02 -1.592310320E+02  4.592681878E+01  2.846690237E+02  1.250000000E+02  0.00000E+00  9.000E+00
      25     1     1     2     0     0 -1.583032874E+02  1.400620287E+02 -8.209865307E-01  2.455666441E+02  1.250000000E+02  0.00000E+00  9.000E+00
      21     1     1     2   512   501 -3.649830092E+01  1.916900328E+01 -4.845605681E+02  4.863111358E+02  5.394796609E-06  0.00000E+00  9.000E+00
#rwgt            1           1   3.1929243714553433E-002           9      466755           0
</event>
<event>
      5   9999  3.79277E-02  1.63135E+02 -1.00000E+00  1.14967E-01
      21    -1     0     0   511   501  0.000000000E+00  0.000000000E+00  1.118002444E+02  1.118002444E+02  0.000000000E+00  0.00000E+00  9.000E+00
      21    -1     0     0   501   502  0.000000000E+00  0.000000000E+00 -1.147714710E+03  1.147714710E+03  0.000000000E+00  0.00000E+00  9.000E+00
      25     1     1     2     0     0 -1.803141800E+02  4.297811075E+01 -8.952396327E+02  9.227346973E+02  1.250000000E+02  0.00000E+00  9.000E+00
      25     1     1     2     0     0  3.016166571E+01  2.079707217E+01 -1.554577478E+01  1.311827557E+02  1.250000000E+02  0.00000E+00  9.000E+00
      21     1     1     2   511   502  1.501525143E+02 -6.377518292E+01 -1.251290585E+02  2.055975019E+02  2.697398305E-06  0.00000E+00  9.000E+00
#rwgt            1           1   2.6897157481487997E-002           9      466937           0
</event>
<event>
      5   9999  3.79277E-02  3.11636E+01 -1.00000E+00  1.51901E-01
      21    -1     0     0   502   501  0.000000000E+00  0.000000000E+00  1.353516725E+02  1.353516725E+02  0.000000000E+00  0.00000E+00  9.000E+00
      21    -1     0     0   512   502  0.000000000E+00  0.000000000E+00 -2.983805784E+02  2.983805784E+02  0.000000000E+00  0.00000E+00  9.000E+00
      25     1     1     2     0     0 -8.290502014E+01 -5.244281768E+00  3.981767417E+01  1.552777899E+02  1.250000000E+02  0.00000E+00  9.000E+00
      25     1     1     2     0     0  9.271262288E+01 -2.433583718E+01 -1.525213571E+02  2.192615511E+02  1.250000000E+02  0.00000E+00  9.000E+00
      21     1     1     2   512   501 -9.807602747E+00  2.958011894E+01 -5.032522307E+01  5.919290993E+01  6.743495762E-07  0.00000E+00  9.000E+00
#rwgt            1           1   4.9557778672431253E-002           9      467012           0
</event>
<event>
      5   9999  3.79277E-02  3.33661E+01 -1.00000E+00  1.49900E-01
      21    -1     0     0   502   501  0.000000000E+00  0.000000000E+00  1.236762224E+03  1.236762224E+03  0.000000000E+00  0.00000E+00  9.000E+00
      21    -1     0     0   501   511  0.000000000E+00  0.000000000E+00 -4.445563290E+01  4.445563290E+01  0.000000000E+00  0.00000E+00  9.000E+00
      25     1     1     2     0     0  7.161057587E+01  1.368008295E+02  7.635925578E+02  7.890127602E+02  1.250000000E+02  0.00000E+00  9.000E+00
      25     1     1     2     0     0 -1.024047182E+02 -1.239549404E+02  3.969082875E+02  4.461084422E+02  1.250000000E+02  0.00000E+00  9.000E+00
      21     1     1     2   502   511  3.079414235E+01 -1.284588903E+01  3.180574543E+01  4.609665401E+01  1.011524364E-06  0.00000E+00  9.000E+00
#rwgt            1           1   4.6641068618231571E-002           9      467185           0
</event>
<event>
      5   9999  3.79277E-02  4.82556E+01 -1.00000E+00  1.39961E-01
      21    -1     0     0   502   501  0.000000000E+00  0.000000000E+00  1.166859657E+02  1.166859657E+02  0.000000000E+00  0.00000E+00  9.000E+00
      21    -1     0     0   512   502  0.000000000E+00  0.000000000E+00 -1.169489483E+03  1.169489483E+03  0.000000000E+00  0.00000E+00  9.000E+00
      25     1     1     2     0     0  1.075956446E+02 -5.608576234E+01 -5.098616158E+01  1.815131515E+02  1.250000000E+02  0.00000E+00  9.000E+00
      25     1     1     2     0     0 -6.022571434E+01  4.688290805E+01 -5.473652459E+01  1.563529049E+02  1.250000000E+02  0.00000E+00  9.000E+00
      21     1     1     2   512   501 -4.736993030E+01  9.202854289E+00 -9.470808314E+02  9.483093925E+02  1.078959322E-05  0.00000E+00  9.000E+00
#rwgt            1           1   4.1100558747770001E-002           9      467382           0
</event>
<event>
      5   9999  3.79277E-02  1.48993E+01 -1.00000E+00  1.77660E-01
      21    -1     0     0   502   501  0.000000000E+00  0.000000000E+00  3.335969568E+02  3.335969568E+02  0.000000000E+00  0.00000E+00  9.000E+00
      21    -1     0     0   511   502  0.000000000E+00  0.000000000E+00 -1.443650124E+02  1.443650124E+02  0.000000000E+00  0.00000E+00  9.000E+00
      25     1     1     2     0     0 -1.500905338E+02 -1.526003722E+01  9.886051338E+01  2.194503091E+02  1.250000000E+02  0.00000E+00  9.000E+00
      25     1     1     2     0     0  1.597451715E+02  2.660800410E+01  1.112444501E+02  2.328665570E+02  1.250000000E+02  0.00000E+00  9.000E+00
      21     1     1     2   511   501 -9.654637671E+00 -1.134796689E+01 -2.087301910E+01  2.564510299E+01  2.384185791E-07  0.00000E+00  9.000E+00
#rwgt            1           1   2.2035665037910095E-002           9      467511           0
</event>
<event>
      5   9999  3.79277E-02  1.48285E+02 -1.00000E+00  1.16592E-01
      21    -1     0     0   502   512  0.000000000E+00  0.000000000E+00  1.755559560E+03  1.755559560E+03  0.000000000E+00  0.00000E+00  9.000E+00
      21    -1     0     0   501   502  0.000000000E+00  0.000000000E+00 -1.451967678E+02  1.451967678E+02  0.000000000E+00  0.00000E+00  9.000E+00
      25     1     1     2     0     0  7.963541395E+01  2.552442276E+01  2.513637229E+02  2.929198124E+02  1.250000000E+02  0.00000E+00  9.000E+00
      25     1     1     2     0     0 -4.735117579E+01 -1.702523972E+02 -2.320974120E+01  2.176963589E+02  1.250000000E+02  0.00000E+00  9.000E+00
      21     1     1     2   501   512 -3.228423816E+01  1.447279744E+02  1.382208811E+03  1.390140157E+03  0.000000000E+00  0.00000E+00  9.000E+00
#rwgt            2          11   1.2441903516097323E-003           9      467738           0
</event>
<event>
      5   9999  3.79277E-02  3.81441E+01 -1.00000E+00  1.46131E-01
      21    -1     0     0   502   501  0.000000000E+00  0.000000000E+00  2.137632930E+03  2.137632930E+03  0.000000000E+00  0.00000E+00  9.000E+00
      21    -1     0     0   511   502  0.000000000E+00  0.000000000E+00 -5.974497114E+01  5.974497114E+01  0.000000000E+00  0.00000E+00  9.000E+00
      25     1     1     2     0     0 -1.511079062E+02 -1.341200012E+02  1.131284354E+03  1.155963262E+03  1.250000000E+02  0.00000E+00  9.000E+00
      25     1     1     2     0     0  1.866969990E+02  1.478454147E+02  9.630307824E+02  9.998836552E+02  1.250000000E+02  0.00000E+00  9.000E+00
      21     1     1     2   511   501 -3.558909278E+01 -1.372541351E+01 -1.642717705E+01  4.153098418E+01  1.450243599E-06  0.00000E+00  9.000E+00
#rwgt            1           1   9.7619676055509502E-002           9      467803           0
</event>
<event>
      5   9999  3.79277E-02  2.36262E+01 -1.00000E+00  1.60612E-01
      21    -1     0     0   502   501  0.000000000E+00  0.000000000E+00  3.409058385E+02  3.409058385E+02  0.000000000E+00  0.00000E+00  9.000E+00
      21    -1     0     0   512   502  0.000000000E+00  0.000000000E+00 -5.460901917E+02  5.460901917E+02  0.000000000E+00  0.00000E+00  9.000E+00
      25     1     1     2     0     0  1.812377540E+02 -1.621227483E+02  1.950419619E+02  3.358530570E+02  1.250000000E+02  0.00000E+00  9.000E+00
      25     1     1     2     0     0 -1.787408077E+02  1.856166390E+02 -1.995150426E+02  3.490459357E+02  1.250000000E+02  0.00000E+00  9.000E+00
      21     1     1     2   512   501 -2.496946244E+00 -2.349389070E+01 -2.007112725E+02  2.020970374E+02  0.000000000E+00  0.00000E+00  9.000E+00
#rwgt            1           1   4.0721982703688077E-002           9      467991           0
</event>
<event>
      5   9999  3.79277E-02  3.86597E+01 -1.00000E+00  1.45764E-01
      21    -1     0     0   511   501  0.000000000E+00  0.000000000E+00  3.579606413E+02  3.579606413E+02  0.000000000E+00  0.00000E+00  9.000E+00
      21    -1     0     0   501   502  0.000000000E+00  0.000000000E+00 -2.904879067E+02  2.904879067E+02  0.000000000E+00  0.00000E+00  9.000E+00
      25     1     1     2     0     0  3.092335876E+01  8.127309473E+01  4.025415321E+01  1.575022758E+02  1.250000000E+02  0.00000E+00  9.000E+00
      25     1     1     2     0     0 -6.312433330E+01 -5.987980456E+01 -2.050833041E+02  2.554494746E+02  1.250000000E+02  0.00000E+00  9.000E+00
      21     1     1     2   511   502  3.220097454E+01 -2.139329018E+01  2.323018855E+02  2.354967975E+02  0.000000000E+00  0.00000E+00  9.000E+00
#rwgt            1           1   4.0021141381924988E-002           9      468384           0
</event>
<event>
      5   9999  3.79277E-02  2.09986E+01 -1.00000E+00  1.64642E-01
      21    -1     0     0   502   512  0.000000000E+00  0.000000000E+00  5.968358901E+02  5.968358901E+02  0.000000000E+00  0.00000E+00  9.000E+00
      21    -1     0     0   501   502  0.000000000E+00  0.000000000E+00 -9.902565999E+01  9.902565999E+01  0.000000000E+00  0.00000E+00  9.000E+00
      25     1     1     2     0     0  1.150362007E+02 -2.729739589E+01  9.668270355E+00  1.723280324E+02  1.250000000E+02  0.00000E+00  9.000E+00
      25     1     1     2     0     0 -1.025067755E+02  4.414830057E+01  4.188128899E+02  4.510941678E+02  1.250000000E+02  0.00000E+00  9.000E+00
      21     1     1     2   501   512 -1.252942523E+01 -1.685090468E+01  6.932906988E+01  7.243934991E+01  9.536743164E-07  0.00000E+00  9.000E+00
#rwgt            1           1   2.2237026286111666E-002           9      468514           0
</event>
<event>
      5   9999  3.79277E-02  5.28033E+01 -1.00000E+00  1.37737E-01
      21    -1     0     0   502   501  0.000000000E+00  0.000000000E+00  9.083978680E+01  9.083978680E+01  0.000000000E+00  0.00000E+00  9.000E+00
      21    -1     0     0   511   502  0.000000000E+00  0.000000000E+00 -1.126284445E+03  1.126284445E+03  0.000000000E+00  0.00000E+00  9.000E+00
      25     1     1     2     0     0 -2.687655931E+02  1.286521845E+01 -3.950137037E+02  4.940255905E+02  1.250000000E+02  0.00000E+00  9.000E+00
      25     1     1     2     0     0  2.302068291E+02 -4.894027827E+01 -4.278222904E+02  5.040309982E+02  1.250000000E+02  0.00000E+00  9.000E+00
      21     1     1     2   511   501  3.855876401E+01  3.607505982E+01 -2.126086637E+02  2.190676428E+02  0.000000000E+00  0.00000E+00  9.000E+00
#rwgt            1           1   4.9579658754838690E-002           9      468808           0
</event>
<event>
      5   9999  3.79277E-02  2.13353E+01 -1.00000E+00  1.64086E-01
      21    -1     0     0   502   501  0.000000000E+00  0.000000000E+00  1.575046278E+02  1.575046278E+02  0.000000000E+00  0.00000E+00  9.000E+00
       1    -1     0     0   501     0  0.000000000E+00  0.000000000E+00 -4.714553880E+02  4.714553880E+02  0.000000000E+00  0.00000E+00  9.000E+00
      25     1     1     2     0     0 -9.256612599E+01 -5.984443726E+00 -8.214811856E+01  1.760045870E+02  1.250000000E+02  0.00000E+00  9.000E+00
      25     1     1     2     0     0  1.115309619E+02  1.575829376E+01  4.591837601E+01  1.744161017E+02  1.250000000E+02  0.00000E+00  9.000E+00
       1     1     1     2   502     0 -1.896483589E+01 -9.773850034E+00 -2.777210176E+02  2.785393271E+02  3.814697266E-06  0.00000E+00  9.000E+00
#rwgt            1           1   4.3558194997572061E-002           9      468907           0
</event>
<event>
      5   9999  3.79277E-02  1.00991E+01 -1.00000E+00  1.95263E-01
      21    -1     0     0   502   511  0.000000000E+00  0.000000000E+00  2.294692735E+02  2.294692735E+02  0.000000000E+00  0.00000E+00  9.000E+00
      21    -1     0     0   501   502  0.000000000E+00  0.000000000E+00 -2.852090755E+02  2.852090755E+02  0.000000000E+00  0.00000E+00  9.000E+00
      25     1     1     2     0     0 -1.339225967E+02 -6.400847787E+01 -4.373996020E+01  1.989234306E+02  1.250000000E+02  0.00000E+00  9.000E+00
      25     1     1     2     0     0  1.296417071E+02  5.486160082E+01 -1.094627319E+02  2.177701934E+02  1.250000000E+02  0.00000E+00  9.000E+00
      21     1     1     2   501   511  4.280889621E+00  9.146877045E+00  9.746289016E+01  9.798472500E+01  0.000000000E+00  0.00000E+00  9.000E+00
#rwgt            1           1   4.2997003267893096E-002           9      469133           0
</event>
<event>
      5   9999  3.79277E-02  1.05156E+01 -1.00000E+00  1.93267E-01
      21    -1     0     0   502   512  0.000000000E+00  0.000000000E+00  2.060209228E+02  2.060209228E+02  0.000000000E+00  0.00000E+00  9.000E+00
      21    -1     0     0   501   502  0.000000000E+00  0.000000000E+00 -1.153313797E+03  1.153313797E+03  0.000000000E+00  0.00000E+00  9.000E+00
      25     1     1     2     0     0  7.402076819E+01 -1.198876433E+02 -7.417229898E+02  7.652647351E+02  1.250000000E+02  0.00000E+00  9.000E+00
      25     1     1     2     0     0 -8.449225992E+01  1.208494397E+02 -3.762828456E+02  4.230334608E+02  1.250000000E+02  0.00000E+00  9.000E+00
      21     1     1     2   501   512  1.047149173E+01 -9.617964325E-01  1.707129615E+02  1.710365236E+02  3.303624740E-06  0.00000E+00  9.000E+00
#rwgt            1           1   3.2692054562501037E-002           9      469458           0
</event>
<event>
      5   9999  3.79277E-02  2.37872E+02 -1.00000E+00  1.08973E-01
       1    -1     0     0   502     0  0.000000000E+00  0.000000000E+00  8.546908622E+02  8.546908622E+02  0.000000000E+00  0.00000E+00  9.000E+00
      21    -1     0     0   501   502  0.000000000E+00  0.000000000E+00 -2.241878568E+02  2.241878568E+02  0.000000000E+00  0.00000E+00  9.000E+00
      25     1     1     2     0     0 -2.617404634E+02 -2.906362784E+02  3.453517864E+02  5.365355280E+02  1.250000000E+02  0.00000E+00  9.000E+00
      25     1     1     2     0     0  9.111794259E+01  1.248920066E+02  2.182836244E+02  2.952511363E+02  1.250000000E+02  0.00000E+00  9.000E+00
       1     1     1     2   501     0  1.706225209E+02  1.657442717E+02  6.686759461E+01  2.470920546E+02  4.264961200E-06  0.00000E+00  9.000E+00
#rwgt            1           1   3.6528640651195154E-002           9      469729           0
</event>
<event>
      5   9999  3.79277E-02  4.95178E+01 -1.00000E+00  1.39316E-01
      21    -1     0     0   502   501  0.000000000E+00  0.000000000E+00  1.855637425E+02  1.855637425E+02  0.000000000E+00  0.00000E+00  9.000E+00
       2    -1     0     0   501     0  0.000000000E+00  0.000000000E+00 -7.936401626E+02  7.936401626E+02  0.000000000E+00  0.00000E+00  9.000E+00
      25     1     1     2     0     0 -1.199545196E+01  1.038383319E+02  8.998742156E+01  1.861424887E+02  1.250000000E+02  0.00000E+00  9.000E+00
      25     1     1     2     0     0  6.130820515E+01 -1.083403180E+02 -1.211030913E+02  2.139796235E+02  1.250000000E+02  0.00000E+00  9.000E+00
       2     1     1     2   502     0 -4.931275319E+01  4.501986115E+00 -5.769607503E+02  5.790817930E+02  7.629394531E-06  0.00000E+00  9.000E+00
#rwgt            1           1   3.7869816191669757E-002           9      469781           0
</event>
<event>
      5   9999  3.79277E-02  6.22564E+01 -1.00000E+00  1.33852E-01
      21    -1     0     0   502   501  0.000000000E+00  0.000000000E+00  1.673593716E+02  1.673593716E+02  0.000000000E+00  0.00000E+00  9.000E+00
       2    -1     0     0   501     0  0.000000000E+00  0.000000000E+00 -7.709395783E+02  7.709395783E+02  0.000000000E+00  0.00000E+00  9.000E+00
      25     1     1     2     0     0  7.469418957E+01 -1.383163278E+02  6.936346321E+01  2.124780425E+02  1.250000000E+02  0.00000E+00  9.000E+00
      25     1     1     2     0     0 -9.817221166E+01  8.065658545E+01 -3.100865142E+02  3.576617316E+02  1.250000000E+02  0.00000E+00  9.000E+00
       2     1     1     2   502     0  2.347802209E+01  5.765974237E+01 -3.628571556E+02  3.681591759E+02  0.000000000E+00  0.00000E+00  9.000E+00
#rwgt            1           1   2.6157620032355652E-002           9      470018           0
</event>
<event>
      5   9999  3.79277E-02  1.29297E+01 -1.00000E+00  1.83684E-01
      21    -1     0     0   502   501  0.000000000E+00  0.000000000E+00  2.518271455E+03  2.518271455E+03  0.000000000E+00  0.00000E+00  9.000E+00
      21    -1     0     0   501   511  0.000000000E+00  0.000000000E+00 -2.224834631E+01  2.224834631E+01  0.000000000E+00  0.00000E+00  9.000E+00
      25     1     1     2     0     0  1.327610437E+02 -1.304545743E+02  1.481392591E+03  1.498263294E+03  1.250000000E+02  0.00000E+00  9.000E+00
      25     1     1     2     0     0 -1.248532092E+02  1.202250476E+02  1.000646557E+03  1.023211081E+03  1.250000000E+02  0.00000E+00  9.000E+00
      21     1     1     2   502   511 -7.907834443E+00  1.022952671E+01  1.398396090E+01  1.904542530E+01  6.743495762E-07  0.00000E+00  9.000E+00
#rwgt            1           1  0.10808596045532287                9      470070           0
</event>
<event>
      5   9999  3.79277E-02  2.59456E+01 -1.00000E+00  1.57553E-01
      21    -1     0     0   502   501  0.000000000E+00  0.000000000E+00  2.198880031E+02  2.198880031E+02  0.000000000E+00  0.00000E+00  9.000E+00
      21    -1     0     0   512   502  0.000000000E+00  0.000000000E+00 -1.556845163E+03  1.556845163E+03  0.000000000E+00  0.00000E+00  9.000E+00
      25     1     1     2     0     0 -1.904129187E+02 -4.716826326E+02 -3.022214460E+02  6.047349733E+02  1.250000000E+02  0.00000E+00  9.000E+00
      25     1     1     2     0     0  1.993225847E+02  4.473147682E+02 -8.775788158E+02  1.012713964E+03  1.250000000E+02  0.00000E+00  9.000E+00
      21     1     1     2   512   501 -8.909665931E+00  2.436786445E+01 -1.571568979E+02  1.592842287E+02  1.907348633E-06  0.00000E+00  9.000E+00
#rwgt            1           1  0.37432466672645309                9      470302           0
</event>
<event>
      5   9999  3.79277E-02  9.43609E+01 -1.00000E+00  1.24972E-01
      -5    -1     0     0     0   501  0.000000000E+00  0.000000000E+00  2.463204724E+02  2.463204724E+02  0.000000000E+00  0.00000E+00  9.000E+00
      21    -1     0     0   501   502  0.000000000E+00  0.000000000E+00 -7.585199782E+02  7.585199782E+02  0.000000000E+00  0.00000E+00  9.000E+00
      25     1     1     2     0     0  2.290985873E+02  2.175937954E+02 -4.532553814E+01  3.428011477E+02  1.250000000E+02  0.00000E+00  9.000E+00
      25     1     1     2     0     0 -1.596379219E+02 -2.814623553E+02 -2.563334964E+02  4.313202812E+02  1.250000000E+02  0.00000E+00  9.000E+00
      -5     1     1     2     0   502 -6.946066533E+01  6.386855988E+01 -2.105404712E+02  2.307190217E+02  0.000000000E+00  0.00000E+00  9.000E+00
#rwgt            1           1   3.0421455135705818E-002           9      470589           0
</event>
<event>
      5   9999  3.79277E-02  6.90435E+01 -1.00000E+00  1.31524E-01
      21    -1     0     0   511   501  0.000000000E+00  0.000000000E+00  4.382202801E+02  4.382202801E+02  0.000000000E+00  0.00000E+00  9.000E+00
      21    -1     0     0   501   502  0.000000000E+00  0.000000000E+00 -1.750076823E+02  1.750076823E+02  0.000000000E+00  0.00000E+00  9.000E+00
      25     1     1     2     0     0 -5.022874487E+01  7.243515468E+01 -8.077317991E+01  1.729713417E+02  1.250000000E+02  0.00000E+00  9.000E+00
      25     1     1     2     0     0  8.753818471E+01 -1.305300062E+02  2.893710242E+02  3.522238010E+02  1.250000000E+02  0.00000E+00  9.000E+00
      21     1     1     2   511   502 -3.730943983E+01  5.809485152E+01  5.461475349E+01  8.803281986E+01  0.000000000E+00  0.00000E+00  9.000E+00
#rwgt            1           1   4.5143406367436155E-002           9      470715           0
</event>
<event>
      5   9999  3.79277E-02  7.01352E+01 -1.00000E+00  1.31178E-01
       2    -1     0     0   502     0  0.000000000E+00  0.000000000E+00  4.933702816E+02  4.933702816E+02  0.000000000E+00  0.00000E+00  9.000E+00
      21    -1     0     0   501   502  0.000000000E+00  0.000000000E+00 -3.575970141E+02  3.575970141E+02  0.000000000E+00  0.00000E+00  9.000E+00
      25     1     1     2     0     0 -8.968102974E+01 -1.282276745E+02 -2.600791927E+02  3.282547944E+02  1.250000000E+02  0.00000E+00  9.000E+00
      25     1     1     2     0     0  2.167084431E+01  1.110942226E+02  5.902877804E+01  1.786643457E+02  1.250000000E+02  0.00000E+00  9.000E+00
       2     1     1     2   501     0  6.801018544E+01  1.713345187E+01  3.368236822E+02  3.440481556E+02  5.394796609E-06  0.00000E+00  9.000E+00
#rwgt            1           1   5.0928084058990020E-002           9      470878           0
</event>
<event>
      5   9999  3.79277E-02  1.65512E+02 -1.00000E+00  1.14725E-01
      -3    -1     0     0     0   501  0.000000000E+00  0.000000000E+00  1.405452806E+02  1.405452806E+02  0.000000000E+00  0.00000E+00  9.000E+00
      21    -1     0     0   501   502  0.000000000E+00  0.000000000E+00 -1.369238292E+03  1.369238292E+03  0.000000000E+00  0.00000E+00  9.000E+00
      25     1     1     2     0     0 -1.465484895E+02  6.808493199E+01 -5.092869366E+02  5.487350923E+02  1.250000000E+02  0.00000E+00  9.000E+00
      25     1     1     2     0     0  1.690750669E+02  9.588726482E+01 -7.568568407E+02  7.913520222E+02  1.250000000E+02  0.00000E+00  9.000E+00
      -3     1     1     2     0   502 -2.252657743E+01 -1.639721968E+02  3.745076582E+01  1.696964581E+02  2.939421655E-06  0.00000E+00  9.000E+00
#rwgt            1           1   2.7414151546413888E-002           9      470981           0
</event>
<event>
      5   9999  3.79277E-02  7.68339E+01 -1.00000E+00  1.29204E-01
      21    -1     0     0   511   501  0.000000000E+00  0.000000000E+00  9.566713155E+01  9.566713155E+01  0.000000000E+00  0.00000E+00  9.000E+00
      21    -1     0     0   501   502  0.000000000E+00  0.000000000E+00 -9.295456066E+02  9.295456066E+02  0.000000000E+00  0.00000E+00  9.000E+00
      25     1     1     2     0     0  5.890512506E+01  3.915861262E+01 -7.443229534E+02  7.580533422E+02  1.250000000E+02  0.00000E+00  9.000E+00
      25     1     1     2     0     0  9.925311035E+00 -7.330270423E+01 -1.160191730E+02  1.858957954E+02  1.250000000E+02  0.00000E+00  9.000E+00
      21     1     1     2   511   502 -6.883043609E+01  3.414409160E+01  2.646365138E+01  8.126360051E+01  3.371747881E-07  0.00000E+00  9.000E+00
#rwgt            1           1   4.6392800158808020E-002           9      471026           0
</event>
<event>
      5   9999  3.79277E-02  2.23775E+01 -1.00000E+00  1.62442E-01
      21    -1     0     0   502   501  0.000000000E+00  0.000000000E+00  3.394094367E+02  3.394094367E+02  0.000000000E+00  0.00000E+00  9.000E+00
      21    -1     0     0   512   502  0.000000000E+00  0.000000000E+00 -2.128095865E+02  2.128095865E+02  0.000000000E+00  0.00000E+00  9.000E+00
      25     1     1     2     0     0  9.447675881E+01  9.600893230E+01 -9.449343624E+00  1.840050628E+02  1.250000000E+02  0.00000E+00  9.000E+00
      25     1     1     2     0     0 -1.130384717E+02 -8.351034113E+01  2.152874790E+02  2.858764974E+02  1.250000000E+02  0.00000E+00  9.000E+00
      21     1     1     2   512   501  1.856171293E+01 -1.249859116E+01 -7.923828522E+01  8.233746300E+01  1.651812370E-06  0.00000E+00  9.000E+00
#rwgt            1           1   3.6317591779204288E-002           9      471072           0
</event>
<event>
      5   9999  3.79277E-02  7.57246E+00 -1.00000E+00  2.10839E-01
      21    -1     0     0   502   511  0.000000000E+00  0.000000000E+00  3.532142237E+02  3.532142237E+02  0.000000000E+00  0.00000E+00  9.000E+00
      21    -1     0     0   501   502  0.000000000E+00  0.000000000E+00 -3.286820513E+02  3.286820513E+02  0.000000000E+00  0.00000E+00  9.000E+00
      25     1     1     2     0     0  2.318647180E+02  5.306435990E+01  2.184465063E+02  3.462960437E+02  1.250000000E+02  0.00000E+00  9.000E+00
      25     1     1     2     0     0 -2.270110709E+02 -4.725194237E+01 -1.952721858E+02  3.279069974E+02  1.250000000E+02  0.00000E+00  9.000E+00
      21     1     1     2   501   511 -4.853647090E+00 -5.812417530E+00  1.357851936E+00  7.693234008E+00  1.134838627E-07  0.00000E+00  9.000E+00
#rwgt            1           1   3.2023217269161637E-002           9      471237           0
</event>
<event>
      5   9999  3.79277E-02  2.47336E+01 -1.00000E+00  1.59100E-01
      21    -1     0     0   512   501  0.000000000E+00  0.000000000E+00  2.331847538E+02  2.331847538E+02  0.000000000E+00  0.00000E+00  9.000E+00
      21    -1     0     0   501   502  0.000000000E+00  0.000000000E+00 -3.295440565E+02  3.295440565E+02  0.000000000E+00  0.00000E+00  9.000E+00
      25     1     1     2     0     0  1.138165143E+02 -2.006362130E+02 -4.467471970E+01  2.661389101E+02  1.250000000E+02  0.00000E+00  9.000E+00
      25     1     1     2     0     0 -1.336769191E+02  1.858945989E+02 -6.451609561E+01  2.687259704E+02  1.250000000E+02  0.00000E+00  9.000E+00
      21     1     1     2   512   502  1.986040475E+01  1.474161411E+01  1.283151261E+01  2.786392972E+01  0.000000000E+00  0.00000E+00  9.000E+00
#rwgt            1           1   3.4713550316760489E-002           9      471635           0
</event>
<event>
      5   9999  3.79277E-02  4.38524E+01 -1.00000E+00  1.42406E-01
      21    -1     0     0   511   501  0.000000000E+00  0.000000000E+00  2.693599985E+02  2.693599985E+02  0.000000000E+00  0.00000E+00  9.000E+00
      21    -1     0     0   501   502  0.000000000E+00  0.000000000E+00 -3.192726465E+02  3.192726465E+02  0.000000000E+00  0.00000E+00  9.000E+00
      25     1     1     2     0     0 -5.845102468E+01  1.068216079E+02 -4.242383847E+01  1.795888645E+02  1.250000000E+02  0.00000E+00  9.000E+00
      25     1     1     2     0     0  5.120647221E+01 -1.500714746E+02 -1.553868083E+02  2.547814955E+02  1.250000000E+02  0.00000E+00  9.000E+00
      21     1     1     2   511   502  7.244552463E+00  4.324986667E+01  1.478979988E+02  1.542622850E+02  1.907348633E-06  0.00000E+00  9.000E+00
#rwgt            1           1   3.0216187762248457E-002           9      471737           0
</event>
<event>
      5   9999 -3.79277E-02  8.01452E+01 -1.00000E+00  1.28311E-01
      21    -1     0     0   502   501  0.000000000E+00  0.000000000E+00  6.306542565E+01  6.306542565E+01  0.000000000E+00  0.00000E+00  9.000E+00
      21    -1     0     0   512   502  0.000000000E+00  0.000000000E+00 -1.748680269E+03  1.748680269E+03  0.000000000E+00  0.00000E+00  9.000E+00
      25     1     1     2     0     0  1.558828955E+01  1.235630562E+02 -1.353360099E+02  2.223772902E+02  1.250000000E+02  0.00000E+00  9.000E+00
      25     1     1     2     0     0 -2.788989168E+01 -2.027584885E+02 -8.097982253E+02  8.445632105E+02  1.250000000E+02  0.00000E+00  9.000E+00
      21     1     1     2   512   501  1.230160213E+01  7.919543232E+01 -7.404806080E+02  7.448051938E+02  1.078959322E-05  0.00000E+00  9.000E+00
#rwgt            1           1 -0.22082010916461511                9      471829           0
</event>
<event>
      5   9999  3.79277E-02  2.55822E+01 -1.00000E+00  1.58006E-01
      21    -1     0     0   502   501  0.000000000E+00  0.000000000E+00  1.633105235E+02  1.633105235E+02  0.000000000E+00  0.00000E+00  9.000E+00
      21    -1     0     0   501   511  0.000000000E+00  0.000000000E+00 -4.605710353E+02  4.605710353E+02  0.000000000E+00  0.00000E+00  9.000E+00
      25     1     1     2     0     0  1.845516971E+02  9.606026835E+01 -2.211368003E+02  3.283494914E+02  1.250000000E+02  0.00000E+00  9.000E+00
      25     1     1     2     0     0 -1.859679761E+02 -1.216031978E+02 -5.163943114E+01  2.601212346E+02  1.250000000E+02  0.00000E+00  9.000E+00
      21     1     1     2   502   511  1.416278966E+00  2.554292944E+01 -2.448428040E+01  3.541083277E+01  0.000000000E+00  0.00000E+00  9.000E+00
#rwgt            2          11   1.0542669505572529E-002           9      471944           0
</event>
<event>
      5   9999  3.79277E-02  2.23268E+02 -1.00000E+00  1.09935E-01
      21    -1     0     0   502   501  0.000000000E+00  0.000000000E+00  3.075586008E+02  3.075586008E+02  0.000000000E+00  0.00000E+00  9.000E+00
      21    -1     0     0   512   502  0.000000000E+00  0.000000000E+00 -5.299645078E+02  5.299645078E+02  0.000000000E+00  0.00000E+00  9.000E+00
      25     1     1     2     0     0  1.148832956E+02  1.717549842E+02 -3.099871144E+01  2.434827844E+02  1.250000000E+02  0.00000E+00  9.000E+00
      25     1     1     2     0     0 -3.052365901E+02 -5.507477107E+01 -7.695807967E+01  3.431474207E+02  1.250000000E+02  0.00000E+00  9.000E+00
      21     1     1     2   512   501  1.903532945E+02 -1.166802131E+02 -1.144491159E+02  2.508929034E+02  0.000000000E+00  0.00000E+00  9.000E+00
#rwgt            2          11   2.0418676389823112E-003           9      472069           0
</event>
<event>
      5   9999  3.79277E-02  8.27707E+01 -1.00000E+00  1.27638E-01
      21    -1     0     0   511   501  0.000000000E+00  0.000000000E+00  1.094199546E+02  1.094199546E+02  0.000000000E+00  0.00000E+00  9.000E+00
      21    -1     0     0   501   502  0.000000000E+00  0.000000000E+00 -5.651172393E+02  5.651172393E+02  0.000000000E+00  0.00000E+00  9.000E+00
      25     1     1     2     0     0 -3.532982297E+01  1.163132688E+02 -3.104884911E+02  3.560970036E+02  1.250000000E+02  0.00000E+00  9.000E+00
      25     1     1     2     0     0  1.031011432E+02 -6.879445614E+01 -1.556956722E+02  2.350077983E+02  1.250000000E+02  0.00000E+00  9.000E+00
      21     1     1     2   511   502 -6.777132023E+01 -4.751881267E+01  1.048687864E+01  8.343239195E+01  1.474537477E-06  0.00000E+00  9.000E+00
#rwgt            1           1   3.3093337819733101E-002           9      472209           0
</event>
<event>
      5   9999  3.79277E-02  1.84404E+02 -1.00000E+00  1.12947E-01
      21    -1     0     0   512   501  0.000000000E+00  0.000000000E+00  4.830518647E+02  4.830518647E+02  0.000000000E+00  0.00000E+00  9.000E+00
      21    -1     0     0   501   502  0.000000000E+00  0.000000000E+00 -2.142456631E+02  2.142456631E+02  0.000000000E+00  0.00000E+00  9.000E+00
      25     1     1     2     0     0 -5.778627559E+01  1.108198947E+02  4.071089132E+01  1.813909573E+02  1.250000000E+02  0.00000E+00  9.000E+00
      25     1     1     2     0     0  2.345461993E+02 -5.827777127E+01  9.388016307E+01  2.878310324E+02  1.250000000E+02  0.00000E+00  9.000E+00
      21     1     1     2   512   502 -1.767599237E+02 -5.254212346E+01  1.342151472E+02  2.280755381E+02  1.907348633E-06  0.00000E+00  9.000E+00
#rwgt            1           1   4.2643489217233779E-002           9      472336           0
</event>
<event>
      5   9999  3.79277E-02  8.91585E+00 -1.00000E+00  2.01700E-01
      21    -1     0     0   502   501  0.000000000E+00  0.000000000E+00  4.819358995E+01  4.819358995E+01  0.000000000E+00  0.00000E+00  9.000E+00
      21    -1     0     0   511   502  0.000000000E+00  0.000000000E+00 -4.621372977E+02  4.621372977E+02  0.000000000E+00  0.00000E+00  9.000E+00
      25     1     1     2     0     0  5.854495179E+01  3.108117913E+01 -2.604527530E+02  2.964020708E+02  1.250000000E+02  0.00000E+00  9.000E+00
      25     1     1     2     0     0 -4.975484143E+01 -3.257329409E+01 -1.347814965E+02  1.932035598E+02  1.250000000E+02  0.00000E+00  9.000E+00
      21     1     1     2   511   501 -8.790110368E+00  1.492114961E+00 -1.870945834E+01  2.072525702E+01  3.371747881E-07  0.00000E+00  9.000E+00
#rwgt            1           1   6.7346419498784407E-002           9      472427           0
</event>
<event>
      5   9999  3.79277E-02  6.91297E+01 -1.00000E+00  1.31496E-01
      21    -1     0     0   502   512  0.000000000E+00  0.000000000E+00  9.476220271E+02  9.476220271E+02  0.000000000E+00  0.00000E+00  9.000E+00
      21    -1     0     0   501   502  0.000000000E+00  0.000000000E+00 -1.588211109E+02  1.588211109E+02  0.000000000E+00  0.00000E+00  9.000E+00
      25     1     1     2     0     0 -6.259826089E+00  1.474596023E+02  1.916811392E+01  1.943603260E+02  1.250000000E+02  0.00000E+00  9.000E+00
      25     1     1     2     0     0 -5.347419481E+01 -1.126635310E+02  4.242542143E+01  1.815970185E+02  1.250000000E+02  0.00000E+00  9.000E+00
      21     1     1     2   501   512  5.973402090E+01 -3.479607132E+01  7.272073808E+02  7.304857935E+02  1.078959322E-05  0.00000E+00  9.000E+00
#rwgt            1           1   4.6549200752204589E-002           9      472717           0
</event>
<event>
      5   9999  3.79277E-02  3.02151E+01 -1.00000E+00  1.52825E-01
      21    -1     0     0   502   511  0.000000000E+00  0.000000000E+00  3.919493187E+02  3.919493187E+02  0.000000000E+00  0.00000E+00  9.000E+00
      21    -1     0     0   501   502  0.000000000E+00  0.000000000E+00 -1.218126898E+02  1.218126898E+02  0.000000000E+00  0.00000E+00  9.000E+00
      25     1     1     2     0     0 -4.283094178E+01 -1.258724869E+02  3.700535121E+01  1.862062527E+02  1.250000000E+02  0.00000E+00  9.000E+00
      25     1     1     2     0     0  6.564866957E+01  1.060658140E+02  1.278234050E+02  2.179989165E+02  1.250000000E+02  0.00000E+00  9.000E+00
      21     1     1     2   501   511 -2.281772780E+01  1.980667287E+01  1.053078727E+02  1.095568393E+02  1.348699152E-06  0.00000E+00  9.000E+00
#rwgt            2          11   9.1726740075781120E-004           9      472783           0
</event>
<event>
      5   9999  3.79277E-02  1.42575E+02 -1.00000E+00  1.17274E-01
      21    -1     0     0   502   501  0.000000000E+00  0.000000000E+00  4.226035116E+02  4.226035116E+02  0.000000000E+00  0.00000E+00  9.000E+00
      21    -1     0     0   512   502  0.000000000E+00  0.000000000E+00 -1.769081654E+02  1.769081654E+02  0.000000000E+00  0.00000E+00  9.000E+00
      25     1     1     2     0     0 -8.884772252E+01 -6.457498118E+01  2.555655764E+02  3.049632926E+02  1.250000000E+02  0.00000E+00  9.000E+00
      25     1     1     2     0     0  4.578450846E+01 -7.134125927E+01 -1.575440423E+01  1.518518941E+02  1.250000000E+02  0.00000E+00  9.000E+00
      21     1     1     2   512   501  4.306321406E+01  1.359162405E+02  5.884174004E+00  1.426964902E+02  1.656108378E-06  0.00000E+00  9.000E+00
#rwgt            1           1   3.7089887547918567E-002           9      472803           0
</event>
<event>
      5   9999  3.79277E-02  1.14065E+02 -1.00000E+00  1.21311E-01
      21    -1     0     0   502   511  0.000000000E+00  0.000000000E+00  4.735205943E+02  4.735205943E+02  0.000000000E+00  0.00000E+00  9.000E+00
      21    -1     0     0   501   502  0.000000000E+00  0.000000000E+00 -1.792326502E+02  1.792326502E+02  0.000000000E+00  0.00000E+00  9.000E+00
      25     1     1     2     0     0 -1.794018602E+02 -5.527995567E+00 -4.697829661E+01  2.237130898E+02  1.250000000E+02  0.00000E+00  9.000E+00
      25     1     1     2     0     0  6.557396802E+01  1.288146170E+01  2.267607205E+02  2.674159713E+02  1.250000000E+02  0.00000E+00  9.000E+00
      21     1     1     2   501   511  1.138278922E+02 -7.353466130E+00  1.145055203E+02  1.616241835E+02  3.015782986E-06  0.00000E+00  9.000E+00
#rwgt            1           1   3.6800915486734309E-002           9      472882           0
</event>
<event>
      5   9999  3.79277E-02  5.07229E+01 -1.00000E+00  1.38721E-01
      21    -1     0     0   502   501  0.000000000E+00  0.000000000E+00  7.273075816E+01  7.273075816E+01  0.000000000E+00  0.00000E+00  9.000E+00
       2    -1     0     0   501     0  0.000000000E+00  0.000000000E+00 -2.618591475E+03  2.618591475E+03  0.000000000E+00  0.00000E+00  9.000E+00
      25     1     1     2     0     0  8.151830743E+01  3.978995220E+01 -2.813377893E+02  3.209430268E+02  1.250000000E+02  0.00000E+00  9.000E+00
      25     1     1     2     0     0 -1.113657811E+02 -8.080141442E+01 -1.115192328E+02  2.167781009E+02  1.250000000E+02  0.00000E+00  9.000E+00
       2     1     1     2   502     0  2.984747366E+01  4.101146223E+01 -2.153003695E+03  2.153601105E+03  3.051757812E-05  0.00000E+00  9.000E+00
#rwgt            1           1   3.8428976431868364E-002           9      472958           0
</event>
<event>
      5   9999  3.79277E-02  6.04451E+01 -1.00000E+00  1.34532E-01
      21    -1     0     0   502   501  0.000000000E+00  0.000000000E+00  2.525937116E+03  2.525937116E+03  0.000000000E+00  0.00000E+00  9.000E+00
      -3    -1     0     0     0   502  0.000000000E+00  0.000000000E+00 -4.476684130E+02  4.476684130E+02  0.000000000E+00  0.00000E+00  9.000E+00
      25     1     1     2     0     0 -1.060587526E+02  1.258813318E+02  1.173311866E+03  1.191377482E+03  1.250000000E+02  0.00000E+00  9.000E+00
      25     1     1     2     0     0  1.006224479E+02 -1.860814441E+02  1.330203255E+03  1.352707241E+03  1.250000000E+02  0.00000E+00  9.000E+00
      -3     1     1     2     0   501  5.436304662E+00  6.020011227E+01 -4.252464180E+02  4.295208062E+02  7.629394531E-06  0.00000E+00  9.000E+00
#rwgt            1           1   6.7339185161252896E-002           9      473084           0
</event>
<event>
      5   9999  3.79277E-02  6.60948E+01 -1.00000E+00  1.32496E-01
      21    -1     0     0   502   501  0.000000000E+00  0.000000000E+00  1.169334148E+03  1.169334148E+03  0.000000000E+00  0.00000E+00  9.000E+00
      21    -1     0     0   511   502  0.000000000E+00  0.000000000E+00 -8.928782593E+01  8.928782593E+01  0.000000000E+00  0.00000E+00  9.000E+00
      25     1     1     2     0     0  5.220047747E+01 -6.387551603E+01  1.015039425E+03  1.026028754E+03  1.250000000E+02  0.00000E+00  9.000E+00
      25     1     1     2     0     0  1.270467871E+01  5.139153818E+01 -5.618751724E+00  1.358641580E+02  1.250000000E+02  0.00000E+00  9.000E+00
      21     1     1     2   511   501 -6.490515619E+01  1.248397785E+01  7.062564892E+01  9.672906124E+01  1.348699152E-06  0.00000E+00  9.000E+00
#rwgt            1           1   3.2319534520934300E-002           9      473152           0
</event>
<event>
      5   9999  3.79277E-02  3.40202E+01 -1.00000E+00  1.49341E-01
      21    -1     0     0   502   501  0.000000000E+00  0.000000000E+00  4.222809134E+01  4.222809134E+01  0.000000000E+00  0.00000E+00  9.000E+00
       2    -1     0     0   501     0  0.000000000E+00  0.000000000E+00 -3.529673889E+03  3.529673889E+03  0.000000000E+00  0.00000E+00  9.000E+00
      25     1     1     2     0     0  5.215493928E+01  2.524939739E+00 -1.169660318E+02  1.789764387E+02  1.250000000E+02  0.00000E+00  9.000E+00
      25     1     1     2     0     0 -6.099236026E+01  3.032733088E+01 -4.443056081E+02  4.665536286E+02  1.250000000E+02  0.00000E+00  9.000E+00
       2     1     1     2   502     0  8.837420986E+00 -3.285227062E+01 -2.926174157E+03  2.926371913E+03  4.315837288E-05  0.00000E+00  9.000E+00
#rwgt            1           1   4.9310997335062265E-002           9      473349           0
</event>
<event>
      5   9999  3.79277E-02  1.42757E+02 -1.00000E+00  1.17252E-01
      21    -1     0     0   502   511  0.000000000E+00  0.000000000E+00  4.245689807E+02  4.245689807E+02  0.000000000E+00  0.00000E+00  9.000E+00
      21    -1     0     0   501   502  0.000000000E+00  0.000000000E+00 -1.854589620E+02  1.854589620E+02  0.000000000E+00  0.00000E+00  9.000E+00
      25     1     1     2     0     0 -1.555266523E+01 -1.624507611E+02 -4.189603881E+01  2.097913565E+02  1.250000000E+02  0.00000E+00  9.000E+00
      25     1     1     2     0     0 -3.209873670E+01  2.788168334E+01  1.884527820E+02  2.301025167E+02  1.250000000E+02  0.00000E+00  9.000E+00
      21     1     1     2   501   511  4.765140193E+01  1.345690778E+02  9.255327545E+01  1.701340695E+02  0.000000000E+00  0.00000E+00  9.000E+00
#rwgt            1           1   3.4523559773583214E-002           9      473546           0
</event>
<event>
      5   9999  3.79277E-02  5.23292E+01 -1.00000E+00  1.37957E-01
      21    -1     0     0   502   501  0.000000000E+00  0.000000000E+00  9.276781570E+01  9.276781570E+01  0.000000000E+00  0.00000E+00  9.000E+00
      21    -1     0     0   501   512  0.000000000E+00  0.000000000E+00 -1.227044851E+03  1.227044851E+03  0.000000000E+00  0.00000E+00  9.000E+00
      25     1     1     2     0     0 -8.439189079E+01 -1.275396758E+02 -4.574312180E+02  4.982536295E+02  1.250000000E+02  0.00000E+00  9.000E+00
      25     1     1     2     0     0  1.359155779E+02  1.183935954E+02 -9.782201390E+01  2.401754237E+02  1.250000000E+02  0.00000E+00  9.000E+00
      21     1     1     2   502   512 -5.152368712E+01  9.146080360E+00 -5.790238031E+02  5.813836132E+02  1.078959322E-05  0.00000E+00  9.000E+00
#rwgt            1           1   3.2209217028574509E-002           9      473687           0
</event>
<event>
      5   9999  3.79277E-02  3.45318E+01 -1.00000E+00  1.48914E-01
      21    -1     0     0   502   501  0.000000000E+00  0.000000000E+00  2.718205791E+02  2.718205791E+02  0.000000000E+00  0.00000E+00  9.000E+00
      21    -1     0     0   511   502  0.000000000E+00  0.000000000E+00 -3.400961472E+02  3.400961472E+02  0.000000000E+00  0.00000E+00  9.000E+00
      25     1     1     2     0     0  2.460228204E+02  2.796272404E+01  9.325304104E+00  2.775267616E+02  1.250000000E+02  0.00000E+00  9.000E+00
      25     1     1     2     0     0 -2.421634579E+02 -6.227819433E+01 -3.843870083E+01  2.821776879E+02  1.250000000E+02  0.00000E+00  9.000E+00
      21     1     1     2   511   501 -3.859362515E+00  3.431547029E+01 -3.916217137E+01  5.221227678E+01  6.743495762E-07  0.00000E+00  9.000E+00
#rwgt            1           1   4.6193733511039087E-002           9      473808           0
</event>
<event>
      5   9999  3.79277E-02  1.41767E+02 -1.00000E+00  1.17374E-01
      21    -1     0     0   502   501  0.000000000E+00  0.000000000E+00  7.757573683E+02  7.757573683E+02  0.000000000E+00  0.00000E+00  9.000E+00
      21    -1     0     0   512   502  0.000000000E+00  0.000000000E+00 -1.308979652E+02  1.308979652E+02  0.000000000E+00  0.00000E+00  9.000E+00
      25     1     1     2     0     0 -1.675610000E+02 -1.066718686E+02  1.649633804E+02  2.868684247E+02  1.250000000E+02  0.00000E+00  9.000E+00
      25     1     1     2     0     0  1.587127085E+02 -3.481906217E+01  4.170529174E+02  4.647152104E+02  1.250000000E+02  0.00000E+00  9.000E+00
      21     1     1     2   512   501  8.848291478E+00  1.414909307E+02  6.284310530E+01  1.550716983E+02  3.015782986E-06  0.00000E+00  9.000E+00
#rwgt            1           1   2.1717185251734078E-002           9      474016           0
</event>
<event>
      5   9999 -3.79277E-02  2.91066E+01 -1.00000E+00  1.53957E-01
      21    -1     0     0   502   501  0.000000000E+00  0.000000000E+00  2.544628286E+02  2.544628286E+02  0.000000000E+00  0.00000E+00  9.000E+00
      21    -1     0     0   501   511  0.000000000E+00  0.000000000E+00 -5.048505477E+02  5.048505477E+02  0.000000000E+00  0.00000E+00  9.000E+00
      25     1     1     2     0     0 -1.085679445E+02  5.182344422E+01  1.935364729E+02  2.599115894E+02  1.250000000E+02  0.00000E+00  9.000E+00
      25     1     1     2     0     0  1.244072092E+02 -2.740395594E+01 -2.739826734E+02  3.269856814E+02  1.250000000E+02  0.00000E+00  9.000E+00
      21     1     1     2   502   511 -1.583926468E+01 -2.441948828E+01 -1.699415186E+02  1.724161055E+02  1.907348633E-06  0.00000E+00  9.000E+00
#rwgt            1           1  -2.0509010307133001E-002           9      474092           0
</event>
<event>
      5   9999  3.79277E-02  1.54432E+02 -1.00000E+00  1.15895E-01
       2    -1     0     0   502     0  0.000000000E+00  0.000000000E+00  1.268146757E+03  1.268146757E+03  0.000000000E+00  0.00000E+00  9.000E+00
      21    -1     0     0   501   502  0.000000000E+00  0.000000000E+00 -3.181675006E+02  3.181675006E+02  0.000000000E+00  0.00000E+00  9.000E+00
      25     1     1     2     0     0  5.266501916E+01 -1.480102712E+02  2.286255214E+02  3.042618505E+02  1.250000000E+02  0.00000E+00  9.000E+00
      25     1     1     2     0     0 -1.697462594E+02  4.730695341E+01 -2.315654132E+02  3.167006173E+02  1.250000000E+02  0.00000E+00  9.000E+00
       2     1     1     2   501     0  1.170812403E+02  1.007033178E+02  9.529191480E+02  9.653517896E+02  2.157918644E-05  0.00000E+00  9.000E+00
#rwgt            1           1   5.2075816079980630E-002           9      474206           0
</event>
<event>
      5   9999  3.79277E-02  2.68718E+01 -1.00000E+00  1.56437E-01
      21    -1     0     0   502   511  0.000000000E+00  0.000000000E+00  4.929534331E+02  4.929534331E+02  0.000000000E+00  0.00000E+00  9.000E+00
      21    -1     0     0   501   502  0.000000000E+00  0.000000000E+00 -2.109929803E+02  2.109929803E+02  0.000000000E+00  0.00000E+00  9.000E+00
      25     1     1     2     0     0  1.252579789E+02 -1.050151262E+02  3.761667562E+02  4.287705290E+02  1.250000000E+02  0.00000E+00  9.000E+00
      25     1     1     2     0     0 -1.390106507E+02  8.192924557E+01 -1.209567451E+02  2.372591336E+02  1.250000000E+02  0.00000E+00  9.000E+00
      21     1     1     2   501   511  1.375267184E+01  2.308588065E+01  2.675044162E+01  3.791675085E+01  3.371747881E-07  0.00000E+00  9.000E+00
#rwgt            1           1   4.0715426366438191E-002           9      474278           0
</event>
<event>
      5   9999  3.79277E-02  2.53623E+01 -1.00000E+00  1.58284E-01
      21    -1     0     0   502   512  0.000000000E+00  0.000000000E+00  4.219119097E+02  4.219119097E+02  0.000000000E+00  0.00000E+00  9.000E+00
      21    -1     0     0   501   502  0.000000000E+00  0.000000000E+00 -1.181173910E+02  1.181173910E+02  0.000000000E+00  0.00000E+00  9.000E+00
      25     1     1     2     0     0  1.389748500E+02  8.198740197E+01  1.917360335E+02  2.800422282E+02  1.250000000E+02  0.00000E+00  9.000E+00
      25     1     1     2     0     0 -1.407754618E+02 -5.668911050E+01  6.597660808E+01  2.073868335E+02  1.250000000E+02  0.00000E+00  9.000E+00
      21     1     1     2   501   512  1.800611798E+00 -2.529829147E+01  4.608187711E+01  5.260023909E+01  6.743495762E-07  0.00000E+00  9.000E+00
#rwgt            1           1   3.1191825984251638E-002           9      474538           0
</event>
<event>
      5   9999  3.79277E-02  1.87650E+02 -1.00000E+00  1.12665E-01
      21    -1     0     0   502   501  0.000000000E+00  0.000000000E+00  3.111399660E+02  3.111399660E+02  0.000000000E+00  0.00000E+00  9.000E+00
      21    -1     0     0   511   502  0.000000000E+00  0.000000000E+00 -6.253981243E+02  6.253981243E+02  0.000000000E+00  0.00000E+00  9.000E+00
      25     1     1     2     0     0  3.152001402E+01 -4.549554363E+01 -1.237294257E+02  1.843836396E+02  1.250000000E+02  0.00000E+00  9.000E+00
      25     1     1     2     0     0 -5.306954780E+01 -1.409128169E+02  2.238108898E+02  2.973030663E+02  1.250000000E+02  0.00000E+00  9.000E+00
      21     1     1     2   511   501  2.154953378E+01  1.864083605E+02 -4.143396223E+02  4.548513844E+02  7.629394531E-06  0.00000E+00  9.000E+00
#rwgt            1           1   3.5703437712549843E-002           9      474766           0
</event>
<event>
      5   9999  3.79277E-02  7.57663E+01 -1.00000E+00  1.29503E-01
      21    -1     0     0   512   501  0.000000000E+00  0.000000000E+00  6.042117805E+02  6.042117805E+02  0.000000000E+00  0.00000E+00  9.000E+00
      21    -1     0     0   501   502  0.000000000E+00  0.000000000E+00 -2.795899850E+02  2.795899850E+02  0.000000000E+00  0.00000E+00  9.000E+00
      25     1     1     2     0     0 -8.205016700E+01  7.550573820E+01 -1.956579135E+02  2.575662352E+02  1.250000000E+02  0.00000E+00  9.000E+00
      25     1     1     2     0     0  1.332399410E+02 -1.964747911E+01  1.214177049E+02  2.202411505E+02  1.250000000E+02  0.00000E+00  9.000E+00
      21     1     1     2   512   502 -5.118977401E+01 -5.585825909E+01  3.988620042E+02  4.059943798E+02  5.394796609E-06  0.00000E+00  9.000E+00
#rwgt            1           1   4.0682141551900787E-002           9      474892           0
</event>
<event>
      5   9999  3.79277E-02  1.49412E+01 -1.00000E+00  1.77544E-01
      21    -1     0     0   502   501  0.000000000E+00  0.000000000E+00  6.291038233E+02  6.291038233E+02  0.000000000E+00  0.00000E+00  9.000E+00
      21    -1     0     0   511   502  0.000000000E+00  0.000000000E+00 -1.313459578E+02  1.313459578E+02  0.000000000E+00  0.00000E+00  9.000E+00
      25     1     1     2     0     0 -2.980933104E+01  2.002024462E+02  5.915855260E+01  2.451414898E+02  1.250000000E+02  0.00000E+00  9.000E+00
      25     1     1     2     0     0  1.491487878E+01 -1.990212606E+02  4.412266305E+02  5.001378363E+02  1.250000000E+02  0.00000E+00  9.000E+00
      21     1     1     2   511   501  1.489445226E+01 -1.181185580E+00 -2.627317561E+00  1.517045501E+01  2.365486006E-07  0.00000E+00  9.000E+00
#rwgt            1           1   3.8684747156010682E-002           9      474948           0
</event>
<event>
      5   9999  3.79277E-02  6.21963E+01 -1.00000E+00  1.33874E-01
      21    -1     0     0   502   512  0.000000000E+00  0.000000000E+00  1.247978521E+02  1.247978521E+02  0.000000000E+00  0.00000E+00  9.000E+00
      21    -1     0     0   501   502  0.000000000E+00  0.000000000E+00 -1.129520680E+03  1.129520680E+03  0.000000000E+00  0.00000E+00  9.000E+00
      25     1     1     2     0     0  1.450264877E+02 -1.529003167E+02 -6.602910973E+02  7.042872441E+02  1.250000000E+02  0.00000E+00  9.000E+00
      25     1     1     2     0     0 -1.858222953E+02  1.059526763E+02 -3.974224990E+02  4.683220449E+02  1.250000000E+02  0.00000E+00  9.000E+00
      21     1     1     2   501   512  4.079580763E+01  4.694764043E+01  5.299076847E+01  8.170924308E+01  2.132480600E-06  0.00000E+00  9.000E+00
#rwgt            1           1   2.7981807412292996E-002           9      475103           0
</event>
<event>
      5   9999  3.79277E-02  3.80890E+01 -1.00000E+00  1.46171E-01
      21    -1     0     0   502   501  0.000000000E+00  0.000000000E+00  1.308078600E+02  1.308078600E+02  0.000000000E+00  0.00000E+00  9.000E+00
      21    -1     0     0   511   502  0.000000000E+00  0.000000000E+00 -1.823208513E+03  1.823208513E+03  0.000000000E+00  0.00000E+00  9.000E+00
      25     1     1     2     0     0 -4.289341446E+01  8.619931798E+01  2.388563158E+01  1.595797319E+02  1.250000000E+02  0.00000E+00  9.000E+00
      25     1     1     2     0     0  1.456253223E+01 -1.116578130E+02 -1.433203962E+02  2.210096616E+02  1.250000000E+02  0.00000E+00  9.000E+00
      21     1     1     2   511   501  2.833088223E+01  2.545849503E+01 -1.572965889E+03  1.573426980E+03  2.157918644E-05  0.00000E+00  9.000E+00
#rwgt            1           1   4.6870395384859501E-002           9      475157           0
</event>
<event>
      5   9999  3.79277E-02  7.87291E+01 -1.00000E+00  1.28687E-01
      21    -1     0     0   502   501  0.000000000E+00  0.000000000E+00  5.303795536E+02  5.303795536E+02  0.000000000E+00  0.00000E+00  9.000E+00
      21    -1     0     0   512   502  0.000000000E+00  0.000000000E+00 -1.922795253E+02  1.922795253E+02  0.000000000E+00  0.00000E+00  9.000E+00
      25     1     1     2     0     0  2.158472416E+02  8.871254267E+01  3.064163352E+01  2.665030144E+02  1.250000000E+02  0.00000E+00  9.000E+00
      25     1     1     2     0     0 -1.409034731E+02 -1.128309639E+02  3.069860755E+02  3.774255764E+02  1.250000000E+02  0.00000E+00  9.000E+00
      21     1     1     2   512   501 -7.494376853E+01  2.411842127E+01  4.723193461E-01  7.873048820E+01  2.101942026E-06  0.00000E+00  9.000E+00
#rwgt            1           1   4.4624568537039506E-002           9      475266           0
</event>
<event>
      5   9999  3.79277E-02  1.02240E+02 -1.00000E+00  1.23397E-01
      21    -1     0     0   502   501  0.000000000E+00  0.000000000E+00  2.714378300E+02  2.714378300E+02  0.000000000E+00  0.00000E+00  9.000E+00
      -1    -1     0     0     0   502  0.000000000E+00  0.000000000E+00 -5.233603529E+02  5.233603529E+02  0.000000000E+00  0.00000E+00  9.000E+00
      25     1     1     2     0     0  7.740517951E+01  9.347858428E+01 -2.328849960E+01  1.757758850E+02  1.250000000E+02  0.00000E+00  9.000E+00
      25     1     1     2     0     0 -1.718031661E+02 -5.420960009E+01  1.239732793E+02  2.518916089E+02  1.250000000E+02  0.00000E+00  9.000E+00
      -1     1     1     2     0   501  9.439798660E+01 -3.926898419E+01 -3.526073026E+02  3.671306890E+02  3.814697266E-06  0.00000E+00  9.000E+00
#rwgt            1           1   3.8540738708145658E-002           9      475354           0
</event>
<event>
      5   9999  3.79277E-02  3.99230E+01 -1.00000E+00  1.44892E-01
      -2    -1     0     0     0   501  0.000000000E+00  0.000000000E+00  1.340209736E+02  1.340209736E+02  0.000000000E+00  0.00000E+00  9.000E+00
      21    -1     0     0   501   502  0.000000000E+00  0.000000000E+00 -4.585019660E+02  4.585019660E+02  0.000000000E+00  0.00000E+00  9.000E+00
      25     1     1     2     0     0 -7.552011602E+01 -2.855191564E+01  3.317504624E+00  1.488438969E+02  1.250000000E+02  0.00000E+00  9.000E+00
      25     1     1     2     0     0  1.102919663E+02  8.936531198E+00 -3.570747807E+02  3.941720163E+02  1.250000000E+02  0.00000E+00  9.000E+00
      -2     1     1     2     0   502 -3.477185033E+01  1.961538444E+01  2.927628361E+01  4.950702641E+01  9.536743164E-07  0.00000E+00  9.000E+00
#rwgt            1           1   4.0740796022088778E-002           9      475401           0
</event>
<event>
      5   9999  3.79277E-02  3.51488E+01 -1.00000E+00  1.48411E-01
      21    -1     0     0   502   501  0.000000000E+00  0.000000000E+00  1.491321910E+02  1.491321910E+02  0.000000000E+00  0.00000E+00  9.000E+00
      21    -1     0     0   511   502  0.000000000E+00  0.000000000E+00 -1.065402445E+03  1.065402445E+03  0.000000000E+00  0.00000E+00  9.000E+00
      25     1     1     2     0     0  8.200811984E+01 -2.542119262E+01 -2.637576598E+02  3.042444278E+02  1.250000000E+02  0.00000E+00  9.000E+00
      25     1     1     2     0     0 -7.174509495E+01 -8.195874304E+00  8.791920766E+01  1.690246079E+02  1.250000000E+02  0.00000E+00  9.000E+00
      21     1     1     2   511   501 -1.026302489E+01  3.361706692E+01 -7.404318014E+02  7.412655998E+02  1.078959322E-05  0.00000E+00  9.000E+00
#rwgt            1           1   4.8566235726610903E-002           9      475472           0
</event>
<event>
      5   9999  3.79277E-02  2.13488E+01 -1.00000E+00  1.64064E-01
      -1    -1     0     0     0   501  0.000000000E+00  0.000000000E+00  2.088305883E+01  2.088305883E+01  0.000000000E+00  0.00000E+00  9.000E+00
      21    -1     0     0   501   502  0.000000000E+00  0.000000000E+00 -2.300310876E+03  2.300310876E+03  0.000000000E+00  0.00000E+00  9.000E+00
      25     1     1     2     0     0 -8.047280561E+01 -9.820313851E+01 -9.602239540E+02  9.766139312E+02  1.250000000E+02  0.00000E+00  9.000E+00
      25     1     1     2     0     0  5.920881554E+01  1.001041019E+02 -1.310417760E+03  1.321493935E+03  1.250000000E+02  0.00000E+00  9.000E+00
      -1     1     1     2     0   502  2.126399006E+01 -1.900963438E+00 -8.786102845E+00  2.308606806E+01  1.072883606E-06  0.00000E+00  9.000E+00
#rwgt            1           1   8.4700258386043656E-002           9      475637           0
</event>
<event>
      5   9999  3.79277E-02  2.40043E+01 -1.00000E+00  1.60084E-01
      21    -1     0     0   502   501  0.000000000E+00  0.000000000E+00  1.018146772E+03  1.018146772E+03  0.000000000E+00  0.00000E+00  9.000E+00
       1    -1     0     0   501     0  0.000000000E+00  0.000000000E+00 -6.311327511E+02  6.311327511E+02  0.000000000E+00  0.00000E+00  9.000E+00
      25     1     1     2     0     0  1.393344917E+02  7.022433485E+01  3.395814041E+02  3.940635580E+02  1.250000000E+02  0.00000E+00  9.000E+00
      25     1     1     2     0     0 -1.491824291E+02 -4.833308920E+01  6.356372590E+02  6.665217248E+02  1.250000000E+02  0.00000E+00  9.000E+00
       1     1     1     2   502     0  9.847937391E+00 -2.189124565E+01 -5.882046417E+02  5.886942406E+02  7.629394531E-06  0.00000E+00  9.000E+00
#rwgt            1           1   2.3397897598866929E-002           9      475850           0
</event>
<event>
      5   9999  3.79277E-02  3.99852E+02 -1.00000E+00  1.01690E-01
      21    -1     0     0   502   501  0.000000000E+00  0.000000000E+00  8.392148994E+02  8.392148994E+02  0.000000000E+00  0.00000E+00  9.000E+00
      21    -1     0     0   501   511  0.000000000E+00  0.000000000E+00 -3.938125599E+02  3.938125599E+02  0.000000000E+00  0.00000E+00  9.000E+00
      25     1     1     2     0     0  1.730382293E+01  1.324360083E+01 -9.367006811E+01  1.577146059E+02  1.250000000E+02  0.00000E+00  9.000E+00
      25     1     1     2     0     0 -3.950653396E+02  1.178193280E+02  5.196419861E+02  6.749894890E+02  1.250000000E+02  0.00000E+00  9.000E+00
      21     1     1     2   502   511  3.777615166E+02 -1.310629288E+02  1.943042152E+01  4.003233643E+02  6.017412884E-06  0.00000E+00  9.000E+00
#rwgt            2          11   6.9571240286180524E-004           9      476177           0
</event>
<event>
      5   9999  3.79277E-02  5.75371E+01 -1.00000E+00  1.35683E-01
       3    -1     0     0   502     0  0.000000000E+00  0.000000000E+00  1.221374400E+03  1.221374400E+03  0.000000000E+00  0.00000E+00  9.000E+00
      21    -1     0     0   501   502  0.000000000E+00  0.000000000E+00 -1.348047736E+02  1.348047736E+02  0.000000000E+00  0.00000E+00  9.000E+00
      25     1     1     2     0     0 -6.968048791E+01  1.874983207E+02  1.712524102E+01  2.364936882E+02  1.250000000E+02  0.00000E+00  9.000E+00
      25     1     1     2     0     0  2.204388009E+01 -1.552296341E+02  3.968194874E+02  4.446041807E+02  1.250000000E+02  0.00000E+00  9.000E+00
       3     1     1     2   501     0  4.763660783E+01 -3.226868663E+01  6.726248979E+02  6.750813046E+02  1.078959322E-05  0.00000E+00  9.000E+00
#rwgt            1           1   3.7556683800924563E-002           9      476197           0
</event>
<event>
      5   9999  3.79277E-02  6.42213E+01 -1.00000E+00  1.33144E-01
      21    -1     0     0   502   501  0.000000000E+00  0.000000000E+00  8.689310669E+02  8.689310669E+02  0.000000000E+00  0.00000E+00  9.000E+00
      21    -1     0     0   511   502  0.000000000E+00  0.000000000E+00 -1.058433572E+02  1.058433572E+02  0.000000000E+00  0.00000E+00  9.000E+00
      25     1     1     2     0     0 -8.186962569E+01  1.014048213E+02  5.494063522E+01  1.887565808E+02  1.250000000E+02  0.00000E+00  9.000E+00
      25     1     1     2     0     0  9.875709162E+01 -3.944361949E+01  7.026503877E+02  7.215617296E+02  1.250000000E+02  0.00000E+00  9.000E+00
      21     1     1     2   511   501 -1.688746593E+01 -6.196120181E+01  5.496686818E+00  6.445611376E+01  1.808880675E-06  0.00000E+00  9.000E+00
#rwgt            1           1   4.2518648622270151E-002           9      476269           0
</event>
<event>
      5   9999  3.79277E-02  1.14576E+02 -1.00000E+00  1.21227E-01
      21    -1     0     0   512   501  0.000000000E+00  0.000000000E+00  3.732918023E+02  3.732918023E+02  0.000000000E+00  0.00000E+00  9.000E+00
      21    -1     0     0   501   502  0.000000000E+00  0.000000000E+00 -4.340516285E+02  4.340516285E+02  0.000000000E+00  0.00000E+00  9.000E+00
      25     1     1     2     0     0  3.408112633E+02 -1.118285298E+02 -7.321997853E+01  3.868386001E+02  1.250000000E+02  0.00000E+00  9.000E+00
      25     1     1     2     0     0 -2.315803581E+02  1.464152343E+02 -1.881199949E+01  3.017379234E+02  1.250000000E+02  0.00000E+00  9.000E+00
      21     1     1     2   512   502 -1.092309052E+02 -3.458670443E+01  3.127215182E+01  1.187669072E+02  8.920806376E-07  0.00000E+00  9.000E+00
#rwgt            1           1   4.1091607942655435E-002           9      476362           0
</event>
<event>
      5   9999  3.79277E-02  3.11595E+01 -1.00000E+00  1.51905E-01
      21    -1     0     0   502   501  0.000000000E+00  0.000000000E+00  1.095844270E+03  1.095844270E+03  0.000000000E+00  0.00000E+00  9.000E+00
      21    -1     0     0   511   502  0.000000000E+00  0.000000000E+00 -3.603812718E+02  3.603812718E+02  0.000000000E+00  0.00000E+00  9.000E+00
      25     1     1     2     0     0  2.435457274E+02 -7.829774328E+01  7.242253993E+01  2.937942856E+02  1.250000000E+02  0.00000E+00  9.000E+00
      25     1     1     2     0     0 -2.197941705E+02  9.846654536E+01  8.914874112E+02  9.318690585E+02  1.250000000E+02  0.00000E+00  9.000E+00
      21     1     1     2   511   501 -2.375155690E+01 -2.016880208E+01 -2.284469525E+02  2.305621980E+02  5.394796609E-06  0.00000E+00  9.000E+00
#rwgt            1           1   3.4326940669261397E-002           9      476446           0
</event>
<event>
      5   9999  3.79277E-02  1.06074E+02 -1.00000E+00  1.22687E-01
      21    -1     0     0   502   501  0.000000000E+00  0.000000000E+00  1.552755386E+02  1.552755386E+02  0.000000000E+00  0.00000E+00  9.000E+00
      21    -1     0     0   501   512  0.000000000E+00  0.000000000E+00 -9.035323207E+02  9.035323207E+02  0.000000000E+00  0.00000E+00  9.000E+00
      25     1     1     2     0     0  5.656747651E+01  2.429016414E+02 -6.322610234E+01  2.860482946E+02  1.250000000E+02  0.00000E+00  9.000E+00
      25     1     1     2     0     0 -9.413289589E+01 -1.437024453E+02 -2.655655481E+02  3.400903633E+02  1.250000000E+02  0.00000E+00  9.000E+00
      21     1     1     2   502   512  3.756541939E+01 -9.919919620E+01 -4.194651316E+02  4.326692015E+02  9.344061824E-06  0.00000E+00  9.000E+00
#rwgt            1           1   1.6326182320556278E-002           9      476647           0
</event>
<event>
      5   9999  3.79277E-02  6.62515E+01 -1.00000E+00  1.32443E-01
      21    -1     0     0   502   501  0.000000000E+00  0.000000000E+00  1.345444122E+03  1.345444122E+03  0.000000000E+00  0.00000E+00  9.000E+00
       1    -1     0     0   501     0  0.000000000E+00  0.000000000E+00 -3.975723240E+02  3.975723240E+02  0.000000000E+00  0.00000E+00  9.000E+00
      25     1     1     2     0     0  1.843448365E+01 -3.086359730E+01  1.300471610E+03  1.306959755E+03  1.250000000E+02  0.00000E+00  9.000E+00
      25     1     1     2     0     0 -7.464312872E+01 -4.205644202E+00 -1.044938713E+02  1.792575054E+02  1.250000000E+02  0.00000E+00  9.000E+00
       1     1     1     2   502     0  5.620864507E+01  3.506924150E+01 -2.481059413E+02  2.567991854E+02  5.394796609E-06  0.00000E+00  9.000E+00
#rwgt            1           1   3.0029900925226782E-002           9      476763           0
</event>
<event>
      5   9999  3.79277E-02  1.62671E+01 -1.00000E+00  1.74129E-01
      21    -1     0     0   502   501  0.000000000E+00  0.000000000E+00  1.100041043E+02  1.100041043E+02  0.000000000E+00  0.00000E+00  9.000E+00
      21    -1     0     0   511   502  0.000000000E+00  0.000000000E+00 -6.154805834E+02  6.154805834E+02  0.000000000E+00  0.00000E+00  9.000E+00
      25     1     1     2     0     0  2.162447409E+01  7.180524684E+01 -4.637303908E+02  4.861013132E+02  1.250000000E+02  0.00000E+00  9.000E+00
      25     1     1     2     0     0 -3.456994245E+01 -8.165587455E+01  3.807954517E+01  1.579171128E+02  1.250000000E+02  0.00000E+00  9.000E+00
      21     1     1     2   511   501  1.294546837E+01  9.850627704E+00 -7.982563352E+01  8.146626163E+01  0.000000000E+00  0.00000E+00  9.000E+00
#rwgt            1           1   5.2507310118854587E-002           9      476878           0
</event>
<event>
      5   9999  3.79277E-02  1.82384E+02 -1.00000E+00  1.13125E-01
      -2    -1     0     0     0   501  0.000000000E+00  0.000000000E+00  6.804100013E+01  6.804100013E+01  0.000000000E+00  0.00000E+00  9.000E+00
      21    -1     0     0   501   502  0.000000000E+00  0.000000000E+00 -2.112768020E+03  2.112768020E+03  0.000000000E+00  0.00000E+00  9.000E+00
      25     1     1     2     0     0  1.541980094E+02  1.449320988E+02 -1.234456393E+03  1.258685793E+03  1.250000000E+02  0.00000E+00  9.000E+00
      25     1     1     2     0     0 -1.375623384E+02  3.669197326E+01 -6.573664500E+02  6.841237808E+02  1.250000000E+02  0.00000E+00  9.000E+00
      -2     1     1     2     0   502 -1.663567106E+01 -1.816240721E+02 -1.529041767E+02  2.379994461E+02  2.697398305E-06  0.00000E+00  9.000E+00
#rwgt            1           1   3.3658840926748909E-002           9      477090           0
</event>
<event>
      5   9999  3.79277E-02  3.83439E+01 -1.00000E+00  1.45988E-01
      21    -1     0     0   502   501  0.000000000E+00  0.000000000E+00  9.193545440E+02  9.193545440E+02  0.000000000E+00  0.00000E+00  9.000E+00
      21    -1     0     0   511   502  0.000000000E+00  0.000000000E+00 -1.144473103E+02  1.144473103E+02  0.000000000E+00  0.00000E+00  9.000E+00
      25     1     1     2     0     0 -3.788534087E+01 -5.719286308E+01  6.779500348E+02  6.927824856E+02  1.250000000E+02  0.00000E+00  9.000E+00
      25     1     1     2     0     0  1.920545611E+01  9.067889360E+01  2.030427604E+02  2.558180483E+02  1.250000000E+02  0.00000E+00  9.000E+00
      21     1     1     2   511   501  1.867988476E+01 -3.348603052E+01 -7.608556153E+01  8.520132046E+01  3.303624740E-06  0.00000E+00  9.000E+00
#rwgt            1           1   5.7911460343802304E-002           9      477157           0
</event>
<event>
      5   9999  3.79277E-02  5.16338E+01 -1.00000E+00  1.38283E-01
      21    -1     0     0   512   501  0.000000000E+00  0.000000000E+00  8.237454316E+01  8.237454316E+01  0.000000000E+00  0.00000E+00  9.000E+00
      21    -1     0     0   501   502  0.000000000E+00  0.000000000E+00 -7.813719416E+02  7.813719416E+02  0.000000000E+00  0.00000E+00  9.000E+00
      25     1     1     2     0     0  2.526174363E+01  1.714955481E+02 -5.449321675E+02  5.853417343E+02  1.250000000E+02  0.00000E+00  9.000E+00
      25     1     1     2     0     0 -3.430236596E+01 -1.206593604E+02 -9.885317917E+01  2.028109578E+02  1.250000000E+02  0.00000E+00  9.000E+00
      21     1     1     2   512   502  9.040622323E+00 -5.083618775E+01 -5.521205183E+01  7.559379276E+01  6.743495762E-07  0.00000E+00  9.000E+00
#rwgt            1           1   2.4033688918298754E-002           9      477385           0
</event>
<event>
      5   9999  3.79277E-02  2.25136E+02 -1.00000E+00  1.09808E-01
      21    -1     0     0   502   501  0.000000000E+00  0.000000000E+00  1.055474616E+03  1.055474616E+03  0.000000000E+00  0.00000E+00  9.000E+00
      21    -1     0     0   501   511  0.000000000E+00  0.000000000E+00 -4.394496700E+02  4.394496700E+02  0.000000000E+00  0.00000E+00  9.000E+00
      25     1     1     2     0     0 -9.394242931E+01  1.537899018E+02  9.041296165E+02  9.303504056E+02  1.250000000E+02  0.00000E+00  9.000E+00
      25     1     1     2     0     0  1.306191706E+02  6.833809076E+01  6.989632984E+00  1.934045432E+02  1.250000000E+02  0.00000E+00  9.000E+00
      21     1     1     2   502   511 -3.667674130E+01 -2.221279925E+02 -2.950943038E+02  3.711693368E+02  5.394796609E-06  0.00000E+00  9.000E+00
#rwgt            1           1   3.9511165363847779E-002           9      477487           0
</event>
<event>
      5   9999  3.79277E-02  1.41672E+01 -1.00000E+00  1.79753E-01
      21    -1     0     0   502   501  0.000000000E+00  0.000000000E+00  2.819180906E+02  2.819180906E+02  0.000000000E+00  0.00000E+00  9.000E+00
      21    -1     0     0   512   502  0.000000000E+00  0.000000000E+00 -1.308504663E+02  1.308504663E+02  0.000000000E+00  0.00000E+00  9.000E+00
      25     1     1     2     0     0  5.888735466E+00  1.416540702E+02  9.742260030E+01  2.126422250E+02  1.250000000E+02  0.00000E+00  9.000E+00
      25     1     1     2     0     0 -5.665713722E+00 -1.274886647E+02  4.962169233E+01  1.853989544E+02  1.250000000E+02  0.00000E+00  9.000E+00
      21     1     1     2   512   501 -2.230217439E-01 -1.416540550E+01  4.023331656E+00  1.472737754E+01  2.598106231E-07  0.00000E+00  9.000E+00
#rwgt            1           1   2.9595971374054397E-002           9      477583           0
</event>
<event>
      5   9999  3.79277E-02  2.67779E+01 -1.00000E+00  1.56548E-01
      21    -1     0     0   511   501  0.000000000E+00  0.000000000E+00  2.545016553E+02  2.545016553E+02  0.000000000E+00  0.00000E+00  9.000E+00
      21    -1     0     0   501   502  0.000000000E+00  0.000000000E+00 -8.376829868E+02  8.376829868E+02  0.000000000E+00  0.00000E+00  9.000E+00
      25     1     1     2     0     0 -4.146747686E+02  1.085864201E+01 -2.120413527E+02  4.823480165E+02  1.250000000E+02  0.00000E+00  9.000E+00
      25     1     1     2     0     0  4.136397603E+02 -3.761655007E+01 -3.847468111E+02  5.797999351E+02  1.250000000E+02  0.00000E+00  9.000E+00
      21     1     1     2   511   502  1.035008239E+00  2.675790806E+01  1.360683229E+01  3.003669041E+01  6.078504936E-07  0.00000E+00  9.000E+00
#rwgt            1           1   2.8693885961754685E-002           9      477767           0
</event>
<event>
      5   9999  3.79277E-02  9.65135E+00 -1.00000E+00  1.97556E-01
      21    -1     0     0   512   501  0.000000000E+00  0.000000000E+00  3.913106462E+01  3.913106462E+01  0.000000000E+00  0.00000E+00  9.000E+00
      21    -1     0     0   501   502  0.000000000E+00  0.000000000E+00 -1.341810980E+03  1.341810980E+03  0.000000000E+00  0.00000E+00  9.000E+00
      25     1     1     2     0     0 -5.652520437E+00  9.598712153E+01 -3.156521298E+02  3.528551339E+02  1.250000000E+02  0.00000E+00  9.000E+00
      25     1     1     2     0     0  9.207191369E+00 -1.049600141E+02 -9.992379174E+02  1.012522984E+03  1.250000000E+02  0.00000E+00  9.000E+00
      21     1     1     2   512   502 -3.554670932E+00  8.972892590E+00  1.221013214E+01  1.556392668E+01  1.250277577E-06  0.00000E+00  9.000E+00
#rwgt            1           1   4.6029363838647211E-002           9      478009           0
</event>
<event>
      5   9999  3.79277E-02  5.36498E+01 -1.00000E+00  1.37352E-01
      21    -1     0     0   511   501  0.000000000E+00  0.000000000E+00  7.495892012E+02  7.495892012E+02  0.000000000E+00  0.00000E+00  9.000E+00
      21    -1     0     0   501   502  0.000000000E+00  0.000000000E+00 -7.835093662E+01  7.835093662E+01  0.000000000E+00  0.00000E+00  9.000E+00
      25     1     1     2     0     0 -1.011817725E+02 -1.591749725E+02  2.578922068E+02  3.430857230E+02  1.250000000E+02  0.00000E+00  9.000E+00
      25     1     1     2     0     0  7.115012533E+01  1.147182316E+02  2.340451452E+02  2.976990812E+02  1.250000000E+02  0.00000E+00  9.000E+00
      21     1     1     2   511   502  3.003164713E+01  4.445674099E+01  1.793009126E+02  1.871553336E+02  2.697398305E-06  0.00000E+00  9.000E+00
#rwgt            1           1   4.4425670947695249E-002           9      478290           0
</event>
<event>
      5   9999  3.79277E-02  1.80585E+01 -1.00000E+00  1.70113E-01
      21    -1     0     0   502   512  0.000000000E+00  0.000000000E+00  4.767399851E+02  4.767399851E+02  0.000000000E+00  0.00000E+00  9.000E+00
      21    -1     0     0   501   502  0.000000000E+00  0.000000000E+00 -1.424314992E+02  1.424314992E+02  0.000000000E+00  0.00000E+00  9.000E+00
      25     1     1     2     0     0 -5.643771527E+00  1.477497577E+02  2.863680175E+02  3.456782963E+02  1.250000000E+02  0.00000E+00  9.000E+00
      25     1     1     2     0     0  5.877280587E+00 -1.658067093E+02 -1.475138536E+01  2.082522764E+02  1.250000000E+02  0.00000E+00  9.000E+00
      21     1     1     2   501   512 -2.335090599E-01  1.805695158E+01  6.269185377E+01  6.524091167E+01  0.000000000E+00  0.00000E+00  9.000E+00
#rwgt            1           1   3.4140836804068188E-002           9      478419           0
</event>
<event>
      5   9999  3.79277E-02  8.86053E+00 -1.00000E+00  2.02034E-01
      21    -1     0     0   502   501  0.000000000E+00  0.000000000E+00  7.282651655E+02  7.282651655E+02  0.000000000E+00  0.00000E+00  9.000E+00
      21    -1     0     0   501   511  0.000000000E+00  0.000000000E+00 -1.520583829E+02  1.520583829E+02  0.000000000E+00  0.00000E+00  9.000E+00
      25     1     1     2     0     0  5.137525814E+01 -3.670676260E+01 -3.540959471E+01  1.444494478E+02  1.250000000E+02  0.00000E+00  9.000E+00
      25     1     1     2     0     0 -5.037304026E+01  4.551042598E+01  6.658739728E+02  6.808977821E+02  1.250000000E+02  0.00000E+00  9.000E+00
      21     1     1     2   502   511 -1.002217880E+00 -8.803663381E+00 -5.425759551E+01  5.497631854E+01  1.168007728E-06  0.00000E+00  9.000E+00
#rwgt            1           1   4.2965832413200095E-002           9      478664           0
</event>
<event>
      5   9999  3.79277E-02  1.13757E+02 -1.00000E+00  1.21361E-01
      21    -1     0     0   502   501  0.000000000E+00  0.000000000E+00  1.420178642E+02  1.420178642E+02  0.000000000E+00  0.00000E+00  9.000E+00
      21    -1     0     0   512   502  0.000000000E+00  0.000000000E+00 -6.748460917E+02  6.748460917E+02  0.000000000E+00  0.00000E+00  9.000E+00
      25     1     1     2     0     0  1.363914899E+02  1.949585931E+02 -2.681591770E+02  3.796654260E+02  1.250000000E+02  0.00000E+00  9.000E+00
      25     1     1     2     0     0 -3.237903618E+01 -1.488932946E+02 -6.523329903E+01  2.076005743E+02  1.250000000E+02  0.00000E+00  9.000E+00
      21     1     1     2   512   501 -1.040124537E+02 -4.606529851E+01 -1.994357514E+02  2.295979555E+02  2.697398305E-06  0.00000E+00  9.000E+00
#rwgt            1           1   2.6022906799446518E-002           9      479052           0
</event>
<event>
      5   9999  3.79277E-02  2.60460E+01 -1.00000E+00  1.57429E-01
      21    -1     0     0   511   501  0.000000000E+00  0.000000000E+00  7.140896604E+02  7.140896604E+02  0.000000000E+00  0.00000E+00  9.000E+00
      21    -1     0     0   501   502  0.000000000E+00  0.000000000E+00 -1.230922296E+02  1.230922296E+02  0.000000000E+00  0.00000E+00  9.000E+00
      25     1     1     2     0     0  1.735543422E+02  5.638197060E+01  3.946711398E+01  2.246835316E+02  1.250000000E+02  0.00000E+00  9.000E+00
      25     1     1     2     0     0 -1.815287166E+02 -8.117721212E+01  4.491410819E+02  5.068482279E+02  1.250000000E+02  0.00000E+00  9.000E+00
      21     1     1     2   511   502  7.974374391E+00  2.479524152E+01  1.023892349E+02  1.056501305E+02  0.000000000E+00  0.00000E+00  9.000E+00
#rwgt            1           1   2.3145018058428429E-002           9      479176           0
</event>
<event>
      5   9999  3.79277E-02  1.41709E+02 -1.00000E+00  1.17381E-01
      21    -1     0     0   502   512  0.000000000E+00  0.000000000E+00  1.402740912E+02  1.402740912E+02  0.000000000E+00  0.00000E+00  9.000E+00
      21    -1     0     0   501   502  0.000000000E+00  0.000000000E+00 -9.018671978E+02  9.018671978E+02  0.000000000E+00  0.00000E+00  9.000E+00
      25     1     1     2     0     0 -8.985112290E+01  1.569404258E-01 -5.409282099E+02  5.624069498E+02  1.250000000E+02  0.00000E+00  9.000E+00
      25     1     1     2     0     0  1.935619623E+02  9.641102216E+01 -2.275154332E+02  3.378603125E+02  1.250000000E+02  0.00000E+00  9.000E+00
      21     1     1     2   501   512 -1.037108394E+02 -9.656796259E+01  6.850536399E+00  1.418740267E+02  2.971875873E-06  0.00000E+00  9.000E+00
#rwgt            1           1   3.6485794853944563E-002           9      479304           0
</event>
<event>
      5   9999  3.79277E-02  9.05393E+01 -1.00000E+00  1.25801E-01
       2    -1     0     0   502     0  0.000000000E+00  0.000000000E+00  1.540547146E+03  1.540547146E+03  0.000000000E+00  0.00000E+00  9.000E+00
      21    -1     0     0   501   502  0.000000000E+00  0.000000000E+00 -1.208206041E+02  1.208206041E+02  0.000000000E+00  0.00000E+00  9.000E+00
      25     1     1     2     0     0  7.302834441E+01  1.267769837E+02  5.305530241E+00  1.925063410E+02  1.250000000E+02  0.00000E+00  9.000E+00
      25     1     1     2     0     0 -2.999706624E+01 -4.711726641E+01  1.575218480E+02  2.087055183E+02  1.250000000E+02  0.00000E+00  9.000E+00
       2     1     1     2   501     0 -4.303127816E+01 -7.965971733E+01  1.256899163E+03  1.260155890E+03  1.525878906E-05  0.00000E+00  9.000E+00
#rwgt            1           1   5.1941186823293066E-002           9      479435           0
</event>
<event>
      5   9999 -3.79277E-02  1.07206E+01 -1.00000E+00  1.92327E-01
      21    -1     0     0   502   501  0.000000000E+00  0.000000000E+00  1.824927734E+02  1.824927734E+02  0.000000000E+00  0.00000E+00  9.000E+00
      21    -1     0     0   501   511  0.000000000E+00  0.000000000E+00 -2.318676719E+02  2.318676719E+02  0.000000000E+00  0.00000E+00  9.000E+00
      25     1     1     2     0     0  1.214422189E+02 -7.731150188E+01  1.872618745E+01  1.915749226E+02  1.250000000E+02  0.00000E+00  9.000E+00
      25     1     1     2     0     0 -1.228569034E+02  8.793835598E+01 -5.102255778E+01  2.026210122E+02  1.250000000E+02  0.00000E+00  9.000E+00
      21     1     1     2   502   511  1.414684487E+00 -1.062685410E+01 -1.707852824E+01  2.016451058E+01  0.000000000E+00  0.00000E+00  9.000E+00
#rwgt            1           1 -0.15144698400159429                9      479586           0
</event>
<event>
      5   9999  3.79277E-02  1.85568E+01 -1.00000E+00  1.69098E-01
      21    -1     0     0   512   501  0.000000000E+00  0.000000000E+00  8.691266775E+01  8.691266775E+01  0.000000000E+00  0.00000E+00  9.000E+00
      21    -1     0     0   501   502  0.000000000E+00  0.000000000E+00 -8.732721092E+02  8.732721092E+02  0.000000000E+00  0.00000E+00  9.000E+00
      25     1     1     2     0     0  7.972232474E+01 -1.697753808E+02 -4.696908288E+02  5.209738992E+02  1.250000000E+02  0.00000E+00  9.000E+00
      25     1     1     2     0     0 -6.252458349E+01  1.767461237E+02 -3.409310524E+02  4.086655091E+02  1.250000000E+02  0.00000E+00  9.000E+00
      21     1     1     2   512   502 -1.719774126E+01 -6.970742898E+00  2.426243983E+01  3.054536867E+01  6.743495762E-07  0.00000E+00  9.000E+00
#rwgt            1           1   3.9298788800156879E-002           9      479883           0
</event>
<event>
      5   9999  3.79277E-02  8.32555E+01 -1.00000E+00  1.27517E-01
      21    -1     0     0   511   501  0.000000000E+00  0.000000000E+00  8.647716311E+02  8.647716311E+02  0.000000000E+00  0.00000E+00  9.000E+00
      21    -1     0     0   501   502  0.000000000E+00  0.000000000E+00 -1.685269720E+02  1.685269720E+02  0.000000000E+00  0.00000E+00  9.000E+00
      25     1     1     2     0     0  1.383039213E+02 -1.161983890E+02  5.872847438E+01  2.273852984E+02  1.250000000E+02  0.00000E+00  9.000E+00
      25     1     1     2     0     0 -1.049003639E+02  1.924590258E+02  1.158622407E+02  2.776573820E+02  1.250000000E+02  0.00000E+00  9.000E+00
      21     1     1     2   511   502 -3.340355740E+01 -7.626063688E+01  5.216539441E+02  5.282559226E+02  0.000000000E+00  0.00000E+00  9.000E+00
#rwgt            1           1   3.8369069132677569E-002           9      480145           0
</event>
<event>
      5   9999 -3.79277E-02  6.27026E+01 -1.00000E+00  1.33689E-01
      21    -1     0     0   502   501  0.000000000E+00  0.000000000E+00  3.511782985E+01  3.511782985E+01  0.000000000E+00  0.00000E+00  9.000E+00
       2    -1     0     0   501     0  0.000000000E+00  0.000000000E+00 -1.832768062E+03  1.832768062E+03  0.000000000E+00  0.00000E+00  9.000E+00
      25     1     1     2     0     0  8.259426597E+01  1.301329972E+02 -4.732579379E+02  5.131807532E+02  1.250000000E+02  0.00000E+00  9.000E+00
      25     1     1     2     0     0 -1.284384305E+02 -8.735538403E+01 -7.208729406E+02  7.479372901E+02  1.250000000E+02  0.00000E+00  9.000E+00
       2     1     1     2   502     0  4.584416457E+01 -4.277761319E+01 -6.035193536E+02  6.067678483E+02  1.078959322E-05  0.00000E+00  9.000E+00
#rwgt            1           1 -0.16792306713276378                9      480246           0
</event>
<event>
      5   9999  3.79277E-02  5.18468E+01 -1.00000E+00  1.38183E-01
      21    -1     0     0   502   501  0.000000000E+00  0.000000000E+00  8.187940662E+02  8.187940662E+02  0.000000000E+00  0.00000E+00  9.000E+00
      21    -1     0     0   511   502  0.000000000E+00  0.000000000E+00 -2.796021700E+02  2.796021700E+02  0.000000000E+00  0.00000E+00  9.000E+00
      25     1     1     2     0     0 -7.722869690E+01 -1.789613855E+02  2.482603317E+02  3.394843758E+02  1.250000000E+02  0.00000E+00  9.000E+00
      25     1     1     2     0     0  1.078047728E+02  1.370902489E+02  4.996901101E+02  5.438113749E+02  1.250000000E+02  0.00000E+00  9.000E+00
      21     1     1     2   511   501 -3.057607593E+01  4.187113660E+01 -2.087585456E+02  2.151004855E+02  6.607249480E-06  0.00000E+00  9.000E+00
#rwgt            1           1   4.1662482290183878E-002           9      480332           0
</event>
<event>
      5   9999  3.79277E-02  3.24444E+01 -1.00000E+00  1.50714E-01
      21    -1     0     0   512   501  0.000000000E+00  0.000000000E+00  1.334614723E+02  1.334614723E+02  0.000000000E+00  0.00000E+00  9.000E+00
      21    -1     0     0   501   502  0.000000000E+00  0.000000000E+00 -9.831674434E+02  9.831674434E+02  0.000000000E+00  0.00000E+00  9.000E+00
      25     1     1     2     0     0 -2.251389281E+02  1.235252768E+01 -7.381384701E+02  7.818654123E+02  1.250000000E+02  0.00000E+00  9.000E+00
      25     1     1     2     0     0  2.116556736E+02 -4.186253488E+01 -1.447794149E+02  2.883343111E+02  1.250000000E+02  0.00000E+00  9.000E+00
      21     1     1     2   512   502  1.348325454E+01  2.951000720E+01  3.321191384E+01  4.642919232E+01  1.348699152E-06  0.00000E+00  9.000E+00
#rwgt            1           1   1.0981845920826676E-002           9      480517           0
</event>
<event>
      5   9999  3.79277E-02  3.45718E+01 -1.00000E+00  1.48881E-01
      21    -1     0     0   502   501  0.000000000E+00  0.000000000E+00  2.149439672E+03  2.149439672E+03  0.000000000E+00  0.00000E+00  9.000E+00
      21    -1     0     0   501   511  0.000000000E+00  0.000000000E+00 -1.090753624E+02  1.090753624E+02  0.000000000E+00  0.00000E+00  9.000E+00
      25     1     1     2     0     0 -7.820415868E+01 -1.404006855E+02  4.031444895E+02  4.516400362E+02  1.250000000E+02  0.00000E+00  9.000E+00
      25     1     1     2     0     0  1.040908082E+02  1.633155532E+02  1.710440853E+03  1.725902598E+03  1.250000000E+02  0.00000E+00  9.000E+00
      21     1     1     2   502   511 -2.588664957E+01 -2.291486777E+01 -7.322103329E+01  8.097239966E+01  9.536743164E-07  0.00000E+00  9.000E+00
#rwgt            1           1  0.14342966380234964                9      480721           0
</event>
<event>
      5   9999  3.79277E-02  8.18804E+01 -1.00000E+00  1.27863E-01
      21    -1     0     0   512   501  0.000000000E+00  0.000000000E+00  6.109744210E+02  6.109744210E+02  0.000000000E+00  0.00000E+00  9.000E+00
      21    -1     0     0   501   502  0.000000000E+00  0.000000000E+00 -1.419447016E+02  1.419447016E+02  0.000000000E+00  0.00000E+00  9.000E+00
      25     1     1     2     0     0 -1.028689306E+02  2.100146915E+01 -6.597443913E+01  1.760701713E+02  1.250000000E+02  0.00000E+00  9.000E+00
      25     1     1     2     0     0  3.074232715E+01  1.775615386E+01  2.729950624E+02  3.023436386E+02  1.250000000E+02  0.00000E+00  9.000E+00
      21     1     1     2   512   502  7.212660345E+01 -3.875762301E+01  2.620090961E+02  2.745053127E+02  0.000000000E+00  0.00000E+00  9.000E+00
#rwgt            1           1   4.0397468157616474E-002           9      480880           0
</event>
<event>
      5   9999  3.79277E-02  1.21669E+01 -1.00000E+00  1.86399E-01
      21    -1     0     0   502   511  0.000000000E+00  0.000000000E+00  6.072051781E+01  6.072051781E+01  0.000000000E+00  0.00000E+00  9.000E+00
      21    -1     0     0   501   502  0.000000000E+00  0.000000000E+00 -7.724987024E+02  7.724987024E+02  0.000000000E+00  0.00000E+00  9.000E+00
      25     1     1     2     0     0 -1.618260217E+01 -6.757014062E+01 -5.814556083E+01  1.543810440E+02  1.250000000E+02  0.00000E+00  9.000E+00
      25     1     1     2     0     0  1.606471671E+01  7.973651479E+01 -6.488447184E+02  6.657630626E+02  1.250000000E+02  0.00000E+00  9.000E+00
      21     1     1     2   501   511  1.178854581E-01 -1.216637418E+01 -4.787905387E+00  1.307511360E+01  5.161913656E-07  0.00000E+00  9.000E+00
#rwgt            1           1   4.0942151269649174E-002           9      480975           0
</event>
<event>
      5   9999  3.79277E-02  1.32130E+02 -1.00000E+00  1.18620E-01
      21    -1     0     0   502   501  0.000000000E+00  0.000000000E+00  1.271598500E+03  1.271598500E+03  0.000000000E+00  0.00000E+00  9.000E+00
      21    -1     0     0   512   502  0.000000000E+00  0.000000000E+00 -3.396171433E+02  3.396171433E+02  0.000000000E+00  0.00000E+00  9.000E+00
      25     1     1     2     0     0 -3.118779599E+01  5.090351630E+02  6.650261104E+01  5.292797682E+02  1.250000000E+02  0.00000E+00  9.000E+00
      25     1     1     2     0     0  1.286429457E+02 -4.198111737E+02  8.264559510E+02  9.441635811E+02  1.250000000E+02  0.00000E+00  9.000E+00
      21     1     1     2   512   501 -9.745514969E+01 -8.922398934E+01  3.902279462E+01  1.377722939E+02  1.966049969E-06  0.00000E+00  9.000E+00
#rwgt            1           1   3.4334237302149670E-002           9      481178           0
</event>
<event>
      5   9999  3.79277E-02  1.03614E+02 -1.00000E+00  1.23138E-01
      21    -1     0     0   502   501  0.000000000E+00  0.000000000E+00  1.343692646E+02  1.343692646E+02  0.000000000E+00  0.00000E+00  9.000E+00
      21    -1     0     0   511   502  0.000000000E+00  0.000000000E+00 -5.018101360E+02  5.018101360E+02  0.000000000E+00  0.00000E+00  9.000E+00
      25     1     1     2     0     0 -1.603070103E+02  6.713574778E+01 -9.863173682E+01  2.357090700E+02  1.250000000E+02  0.00000E+00  9.000E+00
      25     1     1     2     0     0  8.721280488E+01  6.302414136E+00 -5.372874507E+01  1.617330263E+02  1.250000000E+02  0.00000E+00  9.000E+00
      21     1     1     2   511   501  7.309420546E+01 -7.343816192E+01 -2.150803895E+02  2.387373043E+02  2.697398305E-06  0.00000E+00  9.000E+00
#rwgt            1           1   3.9312998010683435E-002           9      481233           0
</event>
<event>
      5   9999  3.79277E-02  6.72620E+01 -1.00000E+00  1.32104E-01
      21    -1     0     0   502   501  0.000000000E+00  0.000000000E+00  6.874996493E+02  6.874996493E+02  0.000000000E+00  0.00000E+00  9.000E+00
      21    -1     0     0   512   502  0.000000000E+00  0.000000000E+00 -1.043657396E+02  1.043657396E+02  0.000000000E+00  0.00000E+00  9.000E+00
      25     1     1     2     0     0  1.244542409E+02 -5.652115349E+01  2.076964408E+02  2.782917721E+02  1.250000000E+02  0.00000E+00  9.000E+00
      25     1     1     2     0     0 -9.567200778E+01  1.173139495E+02  3.970432489E+02  4.429266726E+02  1.250000000E+02  0.00000E+00  9.000E+00
      21     1     1     2   512   501 -2.878223312E+01 -6.079279603E+01 -2.160578001E+01  7.064694418E+01  1.507891493E-06  0.00000E+00  9.000E+00
#rwgt            1           1   4.2920002718720068E-002           9      481279           0
</event>
<event>
      5   9999  3.79277E-02  2.50564E+01 -1.00000E+00  1.58678E-01
      21    -1     0     0   502   501  0.000000000E+00  0.000000000E+00  2.725448868E+02  2.725448868E+02  0.000000000E+00  0.00000E+00  9.000E+00
      21    -1     0     0   501   511  0.000000000E+00  0.000000000E+00 -2.237172689E+02  2.237172689E+02  0.000000000E+00  0.00000E+00  9.000E+00
      25     1     1     2     0     0  3.263416054E+01 -9.031031619E+01 -1.783146385E+01  1.586313423E+02  1.250000000E+02  0.00000E+00  9.000E+00
      25     1     1     2     0     0 -4.144416683E+01  6.685383375E+01  1.735253553E+02  2.278664148E+02  1.250000000E+02  0.00000E+00  9.000E+00
      21     1     1     2   502   511  8.810006290E+00  2.345648245E+01 -1.068662735E+02  1.097643986E+02  0.000000000E+00  0.00000E+00  9.000E+00
#rwgt            1           1   4.3794703449136545E-002           9      481409           0
</event>
<event>
      5   9999  3.79277E-02  3.44811E+01 -1.00000E+00  1.48956E-01
      21    -1     0     0   512   501  0.000000000E+00  0.000000000E+00  1.216423070E+02  1.216423070E+02  0.000000000E+00  0.00000E+00  9.000E+00
      21    -1     0     0   501   502  0.000000000E+00  0.000000000E+00 -5.580195784E+02  5.580195784E+02  0.000000000E+00  0.00000E+00  9.000E+00
      25     1     1     2     0     0 -6.158549763E+01 -1.556684633E+02 -9.555037726E+01  2.297396757E+02  1.250000000E+02  0.00000E+00  9.000E+00
      25     1     1     2     0     0  4.536709964E+01  1.860972087E+02 -3.462924871E+02  4.150106401E+02  1.250000000E+02  0.00000E+00  9.000E+00
      21     1     1     2   512   502  1.621839798E+01 -3.042874541E+01  5.465592932E+00  3.491156953E+01  4.420398764E-07  0.00000E+00  9.000E+00
#rwgt            1           1   4.6286106461145872E-002           9      481522           0
</event>
<event>
      5   9999  3.79277E-02  7.87167E+01 -1.00000E+00  1.28690E-01
      21    -1     0     0   502   501  0.000000000E+00  0.000000000E+00  1.275049889E+02  1.275049889E+02  0.000000000E+00  0.00000E+00  9.000E+00
      21    -1     0     0   501   511  0.000000000E+00  0.000000000E+00 -8.972445524E+02  8.972445524E+02  0.000000000E+00  0.00000E+00  9.000E+00
      25     1     1     2     0     0  1.899651131E+02  1.295951358E+02 -3.430973798E+02  4.315349991E+02  1.250000000E+02  0.00000E+00  9.000E+00
      25     1     1     2     0     0 -2.575171160E+02 -1.700060725E+02 -3.330178916E+02  4.708960032E+02  1.250000000E+02  0.00000E+00  9.000E+00
      21     1     1     2   502   511  6.755200288E+01  4.041093675E+01 -9.362429213E+01  1.223185390E+02  0.000000000E+00  0.00000E+00  9.000E+00
#rwgt            1           1   3.9498446957422807E-002           9      481673           0
</event>
<event>
      5   9999  3.79277E-02  3.43203E+01 -1.00000E+00  1.49089E-01
      21    -1     0     0   512   501  0.000000000E+00  0.000000000E+00  3.271810026E+02  3.271810026E+02  0.000000000E+00  0.00000E+00  9.000E+00
      21    -1     0     0   501   502  0.000000000E+00  0.000000000E+00 -6.911124540E+02  6.911124540E+02  0.000000000E+00  0.00000E+00  9.000E+00
      25     1     1     2     0     0 -5.502910041E+01 -1.597801017E+01 -5.805889838E+02  5.966507076E+02  1.250000000E+02  0.00000E+00  9.000E+00
      25     1     1     2     0     0  8.744784753E+01  4.712761650E+00 -4.391711429E+01  1.588176599E+02  1.250000000E+02  0.00000E+00  9.000E+00
      21     1     1     2   512   502 -3.241874712E+01  1.126524852E+01  2.605746467E+02  2.628250892E+02  3.814697266E-06  0.00000E+00  9.000E+00
#rwgt            1           1   3.9383380587940706E-002           9      481756           0
</event>
<event>
      5   9999  3.79277E-02  7.08242E+01 -1.00000E+00  1.30964E-01
       3    -1     0     0   502     0  0.000000000E+00  0.000000000E+00  1.183184418E+03  1.183184418E+03  0.000000000E+00  0.00000E+00  9.000E+00
      21    -1     0     0   501   502  0.000000000E+00  0.000000000E+00 -9.890014801E+01  9.890014801E+01  0.000000000E+00  0.00000E+00  9.000E+00
      25     1     1     2     0     0 -1.065358894E+02 -1.229920900E+02  1.151782557E+02  2.353040172E+02  1.250000000E+02  0.00000E+00  9.000E+00
      25     1     1     2     0     0  9.899660117E+01  5.257034858E+01  1.515965768E+02  2.262089536E+02  1.250000000E+02  0.00000E+00  9.000E+00
       3     1     1     2   501     0  7.539288182E+00  7.042174138E+01  8.175094378E+02  8.205715955E+02  1.078959322E-05  0.00000E+00  9.000E+00
#rwgt            1           1   3.2675827429503090E-002           9      481903           0
</event>
<event>
      5   9999  3.79277E-02  1.51238E+02 -1.00000E+00  1.16252E-01
      21    -1     0     0   502   511  0.000000000E+00  0.000000000E+00  7.477223362E+02  7.477223362E+02  0.000000000E+00  0.00000E+00  9.000E+00
      21    -1     0     0   501   502  0.000000000E+00  0.000000000E+00 -3.775570399E+02  3.775570399E+02  0.000000000E+00  0.00000E+00  9.000E+00
      25     1     1     2     0     0  5.740691823E+01  4.458605939E+01 -2.522233419E+01  1.467809153E+02  1.250000000E+02  0.00000E+00  9.000E+00
      25     1     1     2     0     0 -1.702846427E+02  5.606982550E+01 -2.404430595E+02  3.249285302E+02  1.250000000E+02  0.00000E+00  9.000E+00
      21     1     1     2   501   511  1.128777245E+02 -1.006558849E+02  6.358306900E+02  6.535699306E+02  7.629394531E-06  0.00000E+00  9.000E+00
#rwgt            1           1   3.4741402621313949E-002           9      481995           0
</event>
<event>
      5   9999  3.79277E-02  1.43998E+02 -1.00000E+00  1.17101E-01
      21    -1     0     0   502   501  0.000000000E+00  0.000000000E+00  1.149607573E+03  1.149607573E+03  0.000000000E+00  0.00000E+00  9.000E+00
      21    -1     0     0   501   512  0.000000000E+00  0.000000000E+00 -1.329115753E+02  1.329115753E+02  0.000000000E+00  0.00000E+00  9.000E+00
      25     1     1     2     0     0 -2.363357593E+02 -1.004359905E+02  4.158856024E+02  5.045074961E+02  1.250000000E+02  0.00000E+00  9.000E+00
      25     1     1     2     0     0  1.377726933E+02 -4.543526342E+00  6.059936606E+02  6.339205591E+02  1.250000000E+02  0.00000E+00  9.000E+00
      21     1     1     2   502   512  9.856306596E+01  1.049795168E+02 -5.183265126E+00  1.440910933E+02  3.169151554E-06  0.00000E+00  9.000E+00
#rwgt            1           1   4.0483540123928678E-002           9      482082           0
</event>
<event>
      5   9999  3.79277E-02  4.21432E+01 -1.00000E+00  1.43448E-01
      21    -1     0     0   502   501  0.000000000E+00  0.000000000E+00  1.619194513E+03  1.619194513E+03  0.000000000E+00  0.00000E+00  9.000E+00
      21    -1     0     0   501   511  0.000000000E+00  0.000000000E+00 -3.529933351E+02  3.529933351E+02  0.000000000E+00  0.00000E+00  9.000E+00
      25     1     1     2     0     0 -1.115357351E+02 -1.425586771E+02  7.138862419E+02  7.470085428E+02  1.250000000E+02  0.00000E+00  9.000E+00
      25     1     1     2     0     0  1.371756469E+02  1.760048415E+02  8.689196311E+02  9.057820862E+02  1.250000000E+02  0.00000E+00  9.000E+00
      21     1     1     2   502   511 -2.563991178E+01 -3.344616441E+01 -3.166046948E+02  3.193972194E+02  3.814697266E-06  0.00000E+00  9.000E+00
#rwgt            1           1   3.8565054377647866E-002           9      482303           0
</event>
<event>
      5   9999  3.79277E-02  4.55202E+01 -1.00000E+00  1.41442E-01
      21    -1     0     0   502   512  0.000000000E+00  0.000000000E+00  3.262297317E+02  3.262297317E+02  0.000000000E+00  0.00000E+00  9.000E+00
      21    -1     0     0   501   502  0.000000000E+00  0.000000000E+00 -1.833317577E+02  1.833317577E+02  0.000000000E+00  0.00000E+00  9.000E+00
      25     1     1     2     0     0 -8.235491662E+01 -1.307561919E+02  1.071977307E+01  1.990462950E+02  1.250000000E+02  0.00000E+00  9.000E+00
      25     1     1     2     0     0  9.114035643E+01  1.754205338E+02  9.799048189E+01  2.535864010E+02  1.250000000E+02  0.00000E+00  9.000E+00
      21     1     1     2   501   512 -8.785439808E+00 -4.466434191E+01  3.418771906E+01  5.692879347E+01  8.259061849E-07  0.00000E+00  9.000E+00
#rwgt            1           1   3.7596710901434675E-002           9      482392           0
</event>
<event>
      5   9999  3.79277E-02  1.40633E+01 -1.00000E+00  1.80063E-01
      21    -1     0     0   502   511  0.000000000E+00  0.000000000E+00  9.913535966E+02  9.913535966E+02  0.000000000E+00  0.00000E+00  9.000E+00
      21    -1     0     0   501   502  0.000000000E+00  0.000000000E+00 -8.653904554E+01  8.653904554E+01  0.000000000E+00  0.00000E+00  9.000E+00
      25     1     1     2     0     0  1.612966950E+02 -1.870147180E+02  4.431908239E+02  5.225267792E+02  1.250000000E+02  0.00000E+00  9.000E+00
      25     1     1     2     0     0 -1.673640658E+02  1.743276022E+02  3.522459234E+02  4.450876700E+02  1.250000000E+02  0.00000E+00  9.000E+00
      21     1     1     2   501   511  6.067370830E+00  1.268711574E+01  1.093778037E+02  1.102781930E+02  1.907348633E-06  0.00000E+00  9.000E+00
#rwgt            1           1   3.4777804563676573E-002           9      482635           0
</event>
<event>
      5   9999  3.79277E-02  2.74725E+01 -1.00000E+00  1.55743E-01
      21    -1     0     0   502   512  0.000000000E+00  0.000000000E+00  3.838670744E+02  3.838670744E+02  0.000000000E+00  0.00000E+00  9.000E+00
      21    -1     0     0   501   502  0.000000000E+00  0.000000000E+00 -1.469980346E+02  1.469980346E+02  0.000000000E+00  0.00000E+00  9.000E+00
      25     1     1     2     0     0  6.229303982E+01  8.472930660E+01  1.343606249E+02  2.115118335E+02  1.250000000E+02  0.00000E+00  9.000E+00
      25     1     1     2     0     0 -4.027230882E+01 -1.011556800E+02 -4.301536370E+01  1.712590201E+02  1.250000000E+02  0.00000E+00  9.000E+00
      21     1     1     2   501   512 -2.202073099E+01  1.642637345E+01  1.455237786E+02  1.480942553E+02  1.907348633E-06  0.00000E+00  9.000E+00
#rwgt            1           1   3.7605730226827151E-002           9      482889           0
</event>
<event>
      5   9999  3.79277E-02  2.60089E+01 -1.00000E+00  1.57475E-01
      21    -1     0     0   502   511  0.000000000E+00  0.000000000E+00  1.276651936E+02  1.276651936E+02  0.000000000E+00  0.00000E+00  9.000E+00
      21    -1     0     0   501   502  0.000000000E+00  0.000000000E+00 -3.741835292E+02  3.741835292E+02  0.000000000E+00  0.00000E+00  9.000E+00
      25     1     1     2     0     0 -6.758273994E+01 -1.086805146E+02 -4.719240874E+01  1.850162275E+02  1.250000000E+02  0.00000E+00  9.000E+00
      25     1     1     2     0     0  9.338634194E+01  1.119417643E+02 -2.135449853E+02  2.871905782E+02  1.250000000E+02  0.00000E+00  9.000E+00
      21     1     1     2   501   511 -2.580360200E+01 -3.261249738E+00  1.421905843E+01  2.964191709E+01  4.460403188E-07  0.00000E+00  9.000E+00
#rwgt            1           1   6.6007898941301768E-002           9      483022           0
</event>
<event>
      5   9999  3.79277E-02  7.41143E+01 -1.00000E+00  1.29977E-01
      21    -1     0     0   502   512  0.000000000E+00  0.000000000E+00  9.618757385E+01  9.618757385E+01  0.000000000E+00  0.00000E+00  9.000E+00
      21    -1     0     0   501   502  0.000000000E+00  0.000000000E+00 -5.180897499E+02  5.180897499E+02  0.000000000E+00  0.00000E+00  9.000E+00
      25     1     1     2     0     0 -5.936614298E+01  1.180885403E+02 -7.189240747E+01  1.956086924E+02  1.250000000E+02  0.00000E+00  9.000E+00
      25     1     1     2     0     0  1.319541666E+01 -6.011269853E+01 -2.953949135E+02  3.266049762E+02  1.250000000E+02  0.00000E+00  9.000E+00
      21     1     1     2   501   512  4.617072632E+01 -5.797584182E+01 -5.461485506E+01  9.206365513E+01  1.168007728E-06  0.00000E+00  9.000E+00
#rwgt            1           1   3.8960324432094656E-002           9      483269           0
</event>
<event>
      5   9999  3.79277E-02  9.50070E+00 -1.00000E+00  1.98364E-01
      21    -1     0     0   502   511  0.000000000E+00  0.000000000E+00  3.769435604E+02  3.769435604E+02  0.000000000E+00  0.00000E+00  9.000E+00
      21    -1     0     0   501   502  0.000000000E+00  0.000000000E+00 -3.242244188E+02  3.242244188E+02  0.000000000E+00  0.00000E+00  9.000E+00
      25     1     1     2     0     0  1.603407556E+02  1.187039816E+02  7.015885027E+01  2.456563808E+02  1.250000000E+02  0.00000E+00  9.000E+00
      25     1     1     2     0     0 -1.675636234E+02 -1.248759695E+02 -1.736051710E+02  2.990574042E+02  1.250000000E+02  0.00000E+00  9.000E+00
      21     1     1     2   501   511  7.222867799E+00  6.171987810E+00  1.561654623E+02  1.564541942E+02  1.907348633E-06  0.00000E+00  9.000E+00
#rwgt            1           1  0.13967928259330165                9      483345           0
</event>
<event>
      5   9999  3.79277E-02  1.00788E+02 -1.00000E+00  1.23675E-01
      21    -1     0     0   502   501  0.000000000E+00  0.000000000E+00  1.302102835E+03  1.302102835E+03  0.000000000E+00  0.00000E+00  9.000E+00
      21    -1     0     0   512   502  0.000000000E+00  0.000000000E+00 -8.331878462E+02  8.331878462E+02  0.000000000E+00  0.00000E+00  9.000E+00
      25     1     1     2     0     0 -2.140348425E+02  1.043882427E+02  9.840845345E+02  1.020174098E+03  1.250000000E+02  0.00000E+00  9.000E+00
      25     1     1     2     0     0  1.255234012E+02 -1.525945742E+02  2.506051657E+02  3.427377677E+02  1.250000000E+02  0.00000E+00  9.000E+00
      21     1     1     2   512   501  8.851144131E+01  4.820633146E+01 -7.657747116E+02  7.723788155E+02  1.078959322E-05  0.00000E+00  9.000E+00
#rwgt            1           1   4.4651605176189636E-002           9      483705           0
</event>
<event>
      5   9999  3.79277E-02  5.77698E+01 -1.00000E+00  1.35588E-01
      21    -1     0     0   511   501  0.000000000E+00  0.000000000E+00  1.492654068E+02  1.492654068E+02  0.000000000E+00  0.00000E+00  9.000E+00
      21    -1     0     0   501   502  0.000000000E+00  0.000000000E+00 -4.473739560E+02  4.473739560E+02  0.000000000E+00  0.00000E+00  9.000E+00
      25     1     1     2     0     0  1.328746653E+02 -1.630777764E+02 -9.319617031E+01  2.618407226E+02  1.250000000E+02  0.00000E+00  9.000E+00
      25     1     1     2     0     0 -1.173597961E+02  1.074303697E+02 -1.836125082E+02  2.732273033E+02  1.250000000E+02  0.00000E+00  9.000E+00
      21     1     1     2   511   502 -1.551486924E+01  5.564740670E+01 -2.129987067E+01  6.157133693E+01  1.305872339E-06  0.00000E+00  9.000E+00
#rwgt            1           1   3.4615916498047065E-002           9      483803           0
</event>
<event>
      5   9999  3.79277E-02  3.46360E+01 -1.00000E+00  1.48828E-01
      21    -1     0     0   502   501  0.000000000E+00  0.000000000E+00  1.586689868E+03  1.586689868E+03  0.000000000E+00  0.00000E+00  9.000E+00
       2    -1     0     0   501     0  0.000000000E+00  0.000000000E+00 -5.540547802E+02  5.540547802E+02  0.000000000E+00  0.00000E+00  9.000E+00
      25     1     1     2     0     0  1.563456037E+02  5.479356627E+01  1.296300792E+03  1.312808831E+03  1.250000000E+02  0.00000E+00  9.000E+00
      25     1     1     2     0     0 -1.705292957E+02 -2.319487603E+01  2.413673844E+02  3.217164236E+02  1.250000000E+02  0.00000E+00  9.000E+00
       2     1     1     2   502     0  1.418369201E+01 -3.159869024E+01 -5.050330885E+02  5.062193940E+02  9.344061824E-06  0.00000E+00  9.000E+00
#rwgt            1           1   4.8591555974554966E-002           9      483948           0
</event>
<event>
      5   9999  3.79277E-02  2.75559E+02 -1.00000E+00  1.06805E-01
      21    -1     0     0   502   501  0.000000000E+00  0.000000000E+00  1.981485090E+02  1.981485090E+02  0.000000000E+00  0.00000E+00  9.000E+00
       2    -1     0     0   501     0  0.000000000E+00  0.000000000E+00 -2.036290415E+03  2.036290415E+03  0.000000000E+00  0.00000E+00  9.000E+00
      25     1     1     2     0     0 -2.009674293E+02  2.636183924E+02 -6.442716143E+01  3.600811347E+02  1.250000000E+02  0.00000E+00  9.000E+00
      25     1     1     2     0     0  1.119869182E+02 -2.820995053E+00 -1.429450487E+02  2.204706666E+02  1.250000000E+02  0.00000E+00  9.000E+00
       2     1     1     2   502     0  8.898051111E+01 -2.607973973E+02 -1.630769695E+03  1.653887122E+03  2.157918644E-05  0.00000E+00  9.000E+00
#rwgt            2          13   8.6964561069038178E-004           9      484092           0
</event>
<event>
      5   9999  3.92352E-02  4.03529E+01 -1.00000E+00  1.44604E-01
      21    -1     0     0   511   501  0.000000000E+00  0.000000000E+00  4.961429842E+02  4.961429842E+02  0.000000000E+00  0.00000E+00  9.000E+00
      21    -1     0     0   501   502  0.000000000E+00  0.000000000E+00 -2.995950593E+02  2.995950593E+02  0.000000000E+00  0.00000E+00  9.000E+00
      25     1     1     2     0     0  5.301666903E+01  2.702137298E+02  1.033398291E+02  3.195783898E+02  1.250000000E+02  0.00000E+00  9.000E+00
      25     1     1     2     0     0 -9.277010462E+01 -2.632838776E+02 -6.516729972E+01  3.127242707E+02  1.250000000E+02  0.00000E+00  9.000E+00
      21     1     1     2   511   502  3.975343559E+01 -6.929852238E+00  1.583753955E+02  1.634353829E+02  0.000000000E+00  0.00000E+00  9.000E+00
#rwgt            1           1  0.30477990861060839                9      484141           0
</event>
<event>
      5   9999 -3.79277E-02  3.00800E+01 -1.00000E+00  1.52960E-01
      21    -1     0     0   502   512  0.000000000E+00  0.000000000E+00  4.813797131E+02  4.813797131E+02  0.000000000E+00  0.00000E+00  9.000E+00
      21    -1     0     0   501   502  0.000000000E+00  0.000000000E+00 -1.496496155E+02  1.496496155E+02  0.000000000E+00  0.00000E+00  9.000E+00
      25     1     1     2     0     0  1.341699893E+02  1.299724833E+02  1.120925002E+02  2.511656048E+02  1.250000000E+02  0.00000E+00  9.000E+00
      25     1     1     2     0     0 -1.538893337E+02 -1.526871428E+02  1.233561447E+02  2.789928835E+02  1.250000000E+02  0.00000E+00  9.000E+00
      21     1     1     2   501   512  1.971934447E+01  2.271465946E+01  9.628145272E+01  1.008708404E+02  1.907348633E-06  0.00000E+00  9.000E+00
#rwgt            1           1 -0.36627706637751462                9      484381           0
</event>
<event>
      5   9999  3.79277E-02  2.57009E+01 -1.00000E+00  1.57857E-01
      21    -1     0     0   502   501  0.000000000E+00  0.000000000E+00  1.507131629E+02  1.507131629E+02  0.000000000E+00  0.00000E+00  9.000E+00
      21    -1     0     0   511   502  0.000000000E+00  0.000000000E+00 -9.503774366E+02  9.503774366E+02  0.000000000E+00  0.00000E+00  9.000E+00
      25     1     1     2     0     0 -1.191082534E+02 -2.851824501E+02 -5.985847758E+02  6.851602292E+02  1.250000000E+02  0.00000E+00  9.000E+00
      25     1     1     2     0     0  1.211904239E+02  2.595660530E+02 -1.267302049E+02  3.372642874E+02  1.250000000E+02  0.00000E+00  9.000E+00
      21     1     1     2   511   501 -2.082170555E+00  2.561639716E+01 -7.434929292E+01  7.866608288E+01  0.000000000E+00  0.00000E+00  9.000E+00
#rwgt            1           1   3.7274139359380565E-002           9      484493           0
</event>
<event>
      5   9999  3.79277E-02  1.17345E+01 -1.00000E+00  1.88055E-01
      21    -1     0     0   502   501  0.000000000E+00  0.000000000E+00  4.702893258E+02  4.702893258E+02  0.000000000E+00  0.00000E+00  9.000E+00
      21    -1     0     0   501   512  0.000000000E+00  0.000000000E+00 -1.103681478E+02  1.103681478E+02  0.000000000E+00  0.00000E+00  9.000E+00
      25     1     1     2     0     0  1.544241209E+00 -1.199332829E+02  1.577879735E+02  2.343254609E+02  1.250000000E+02  0.00000E+00  9.000E+00
      25     1     1     2     0     0  8.917877566E+00  1.252477320E+02  2.447387648E+02  3.021400104E+02  1.250000000E+02  0.00000E+00  9.000E+00
      21     1     1     2   502   512 -1.046211877E+01 -5.314449075E+00 -4.260556026E+01  4.419200226E+01  8.259061849E-07  0.00000E+00  9.000E+00
#rwgt            1           1   3.8692926675636181E-002           9      484676           0
</event>
<event>
      5   9999  3.79277E-02  1.21157E+01 -1.00000E+00  1.86591E-01
      21    -1     0     0   511   501  0.000000000E+00  0.000000000E+00  2.789147893E+02  2.789147893E+02  0.000000000E+00  0.00000E+00  9.000E+00
      21    -1     0     0   501   502  0.000000000E+00  0.000000000E+00 -3.932396974E+02  3.932396974E+02  0.000000000E+00  0.00000E+00  9.000E+00
      25     1     1     2     0     0 -2.250113770E+02  9.416844452E+01 -1.597470487E+02  3.172411311E+02  1.250000000E+02  0.00000E+00  9.000E+00
      25     1     1     2     0     0  2.207496029E+02 -1.055098247E+02 -3.194695749E+01  2.766013709E+02  1.250000000E+02  0.00000E+00  9.000E+00
      21     1     1     2   511   502  4.261774121E+00  1.134138013E+01  7.736909802E+01  7.831198472E+01  9.536743164E-07  0.00000E+00  9.000E+00
#rwgt            1           1   4.6920056520574197E-002           9      484850           0
</event>
<event>
      5   9999  3.79277E-02  5.92925E+00 -1.00000E+00  2.26275E-01
      21    -1     0     0   502   512  0.000000000E+00  0.000000000E+00  2.909328054E+02  2.909328054E+02  0.000000000E+00  0.00000E+00  9.000E+00
      21    -1     0     0   501   502  0.000000000E+00  0.000000000E+00 -3.692327582E+02  3.692327582E+02  0.000000000E+00  0.00000E+00  9.000E+00
      25     1     1     2     0     0 -5.341676162E+01  1.062751728E+02  1.490899683E+01  1.731907646E+02  1.250000000E+02  0.00000E+00  9.000E+00
      25     1     1     2     0     0  5.054248664E+01 -1.114611641E+02 -2.636619834E+02  3.164186713E+02  1.250000000E+02  0.00000E+00  9.000E+00
      21     1     1     2   501   512  2.874274985E+00  5.185991314E+00  1.704530338E+02  1.705561277E+02  1.907348633E-06  0.00000E+00  9.000E+00
#rwgt            1           1   2.5044794967098147E-002           9      485053           0
</event>
<event>
      5   9999  3.79277E-02  7.71375E+01 -1.00000E+00  1.29120E-01
      21    -1     0     0   502   501  0.000000000E+00  0.000000000E+00  8.668774855E+01  8.668774855E+01  0.000000000E+00  0.00000E+00  9.000E+00
      21    -1     0     0   501   511  0.000000000E+00  0.000000000E+00 -7.707568150E+02  7.707568150E+02  0.000000000E+00  0.00000E+00  9.000E+00
      25     1     1     2     0     0 -4.323539760E+01  1.990262061E+02 -3.292367466E+02  4.068200655E+02  1.250000000E+02  0.00000E+00  9.000E+00
      25     1     1     2     0     0  7.608914414E+01 -1.292348829E+02 -2.113660509E+02  2.877356778E+02  1.250000000E+02  0.00000E+00  9.000E+00
      21     1     1     2   502   511 -3.285374654E+01 -6.979132325E+01 -1.434662689E+02  1.628888203E+02  0.000000000E+00  0.00000E+00  9.000E+00
#rwgt            1           1   4.0426649184213882E-002           9      485363           0
</event>
<event>
      5   9999  3.79277E-02  1.51674E+02 -1.00000E+00  1.16203E-01
      21    -1     0     0   502   501  0.000000000E+00  0.000000000E+00  6.279371640E+02  6.279371640E+02  0.000000000E+00  0.00000E+00  9.000E+00
       2    -1     0     0   501     0  0.000000000E+00  0.000000000E+00 -9.750434323E+02  9.750434323E+02  0.000000000E+00  0.00000E+00  9.000E+00
      25     1     1     2     0     0 -4.410759478E+01 -1.974280401E+02  1.536145389E+02  2.831002252E+02  1.250000000E+02  0.00000E+00  9.000E+00
      25     1     1     2     0     0  1.957495418E+02  1.943231886E+02  3.459294026E+02  4.597516029E+02  1.250000000E+02  0.00000E+00  9.000E+00
       2     1     1     2   502     0 -1.516419471E+02  3.104851506E+00 -8.466502098E+02  8.601287683E+02  1.078959322E-05  0.00000E+00  9.000E+00
#rwgt            1           1   2.1886191552335978E-002           9      485430           0
</event>
<event>
      5   9999 -3.79277E-02  1.47467E+02 -1.00000E+00  1.16687E-01
      21    -1     0     0   502   511  0.000000000E+00  0.000000000E+00  1.141296386E+02  1.141296386E+02  0.000000000E+00  0.00000E+00  9.000E+00
      21    -1     0     0   501   502  0.000000000E+00  0.000000000E+00 -7.133692960E+02  7.133692960E+02  0.000000000E+00  0.00000E+00  9.000E+00
      25     1     1     2     0     0  8.108466509E+00  1.659173276E+02 -2.625034149E+02  3.348542215E+02  1.250000000E+02  0.00000E+00  9.000E+00
      25     1     1     2     0     0 -1.331564022E+02 -8.775333530E+01 -2.490986774E+02  3.211018941E+02  1.250000000E+02  0.00000E+00  9.000E+00
      21     1     1     2   501   511  1.250479357E+02 -7.816399234E+01 -8.763756505E+01  1.715428189E+02  1.907348633E-06  0.00000E+00  9.000E+00
#rwgt            1           1 -0.32806254508564342                9      485610           0
</event>
<event>
      5   9999  3.79277E-02  1.08971E+02 -1.00000E+00  1.22173E-01
      21    -1     0     0   512   501  0.000000000E+00  0.000000000E+00  1.889539100E+02  1.889539100E+02  0.000000000E+00  0.00000E+00  9.000E+00
      21    -1     0     0   501   502  0.000000000E+00  0.000000000E+00 -6.901716511E+02  6.901716511E+02  0.000000000E+00  0.00000E+00  9.000E+00
      25     1     1     2     0     0  3.732476921E+01 -2.533228942E+01 -1.632889016E+01  1.338898650E+02  1.250000000E+02  0.00000E+00  9.000E+00
      25     1     1     2     0     0  4.474575033E+01 -4.635591719E+01 -5.823195757E+02  5.990593805E+02  1.250000000E+02  0.00000E+00  9.000E+00
      21     1     1     2   512   502 -8.207051954E+01  7.168820661E+01  9.743072468E+01  1.461763156E+02  1.348699152E-06  0.00000E+00  9.000E+00
#rwgt            1           1   3.4034698138983049E-002           9      485661           0
</event>
<event>
      5   9999  3.79277E-02  6.28970E+01 -1.00000E+00  1.33618E-01
      21    -1     0     0   502   501  0.000000000E+00  0.000000000E+00  6.435930163E+02  6.435930163E+02  0.000000000E+00  0.00000E+00  9.000E+00
      21    -1     0     0   501   511  0.000000000E+00  0.000000000E+00 -8.191941255E+01  8.191941255E+01  0.000000000E+00  0.00000E+00  9.000E+00
      25     1     1     2     0     0 -8.540568467E+01  5.712357297E+01  3.530388254E+02  3.883537638E+02  1.250000000E+02  0.00000E+00  9.000E+00
      25     1     1     2     0     0  1.081064282E+02 -1.157811266E+02  1.641506293E+02  2.601205455E+02  1.250000000E+02  0.00000E+00  9.000E+00
      21     1     1     2   502   511 -2.270074351E+01  5.865755366E+01  4.448414901E+01  7.703811959E+01  1.507891493E-06  0.00000E+00  9.000E+00
#rwgt            1           1   5.3320673580927194E-002           9      485753           0
</event>
<event>
      5   9999  3.79277E-02  1.96633E+02 -1.00000E+00  1.11917E-01
      21    -1     0     0   512   501  0.000000000E+00  0.000000000E+00  7.101598384E+02  7.101598384E+02  0.000000000E+00  0.00000E+00  9.000E+00
      21    -1     0     0   501   502  0.000000000E+00  0.000000000E+00 -2.762537702E+02  2.762537702E+02  0.000000000E+00  0.00000E+00  9.000E+00
      25     1     1     2     0     0 -5.976538436E+01  2.362504228E+02 -1.396018903E+02  3.074082810E+02  1.250000000E+02  0.00000E+00  9.000E+00
      25     1     1     2     0     0  2.427758147E+01 -4.284619425E+01  1.037302005E+02  1.697355349E+02  1.250000000E+02  0.00000E+00  9.000E+00
      21     1     1     2   512   502  3.548780289E+01 -1.934042286E+02  4.697777580E+02  5.092697927E+02  0.000000000E+00  0.00000E+00  9.000E+00
#rwgt            1           1   7.5186000900152775E-002           9      485842           0
</event>
<event>
      5   9999  3.79277E-02  4.30507E+01 -1.00000E+00  1.42888E-01
      21    -1     0     0   502   511  0.000000000E+00  0.000000000E+00  1.773667830E+02  1.773667830E+02  0.000000000E+00  0.00000E+00  9.000E+00
      21    -1     0     0   501   502  0.000000000E+00  0.000000000E+00 -1.868034146E+02  1.868034146E+02  0.000000000E+00  0.00000E+00  9.000E+00
      25     1     1     2     0     0  3.743383810E+01 -9.337585692E+01 -4.219168682E+01  1.659080508E+02  1.250000000E+02  0.00000E+00  9.000E+00
      25     1     1     2     0     0 -6.145288330E+01  5.764841481E+01  1.430569975E+01  1.514247326E+02  1.250000000E+02  0.00000E+00  9.000E+00
      21     1     1     2   501   511  2.401904519E+01  3.572744211E+01  1.844935552E+01  4.683741422E+01  5.840038640E-07  0.00000E+00  9.000E+00
#rwgt            1           1   7.7544226456766729E-002           9      485897           0
</event>
<event>
      5   9999  3.79277E-02  1.38864E+01 -1.00000E+00  1.80599E-01
      21    -1     0     0   502   501  0.000000000E+00  0.000000000E+00  8.587209347E+02  8.587209347E+02  0.000000000E+00  0.00000E+00  9.000E+00
      21    -1     0     0   501   512  0.000000000E+00  0.000000000E+00 -1.459538310E+02  1.459538310E+02  0.000000000E+00  0.00000E+00  9.000E+00
      25     1     1     2     0     0  7.031058461E+01  1.285480919E+02 -1.566315098E+01  1.932317896E+02  1.250000000E+02  0.00000E+00  9.000E+00
      25     1     1     2     0     0 -8.267563138E+01 -1.348676199E+02  7.550035655E+02  7.814601198E+02  1.250000000E+02  0.00000E+00  9.000E+00
      21     1     1     2   502   512  1.236504678E+01  6.319527993E+00 -2.657331085E+01  2.998285619E+01  7.539457465E-07  0.00000E+00  9.000E+00
#rwgt            1           1   2.3042241263726261E-002           9      486039           0
</event>
<event>
      5   9999  3.79277E-02  2.10098E+02 -1.00000E+00  1.10875E-01
      21    -1     0     0   511   501  0.000000000E+00  0.000000000E+00  9.656193878E+02  9.656193878E+02  0.000000000E+00  0.00000E+00  9.000E+00
      21    -1     0     0   501   502  0.000000000E+00  0.000000000E+00 -3.156973195E+02  3.156973195E+02  0.000000000E+00  0.00000E+00  9.000E+00
      25     1     1     2     0     0 -3.477995417E+02 -4.381822382E+01  2.294059742E+01  3.728750849E+02  1.250000000E+02  0.00000E+00  9.000E+00
      25     1     1     2     0     0  1.468858777E+02  1.052569724E+02 -2.715092569E+01  2.213970733E+02  1.250000000E+02  0.00000E+00  9.000E+00
      21     1     1     2   511   502  2.009136640E+02 -6.143874860E+01  6.541323965E+02  6.870445491E+02  7.629394531E-06  0.00000E+00  9.000E+00
#rwgt            1           1   2.4202121145030987E-002           9      486421           0
</event>
<event>
      5   9999  3.79277E-02  5.21548E+01 -1.00000E+00  1.38038E-01
      21    -1     0     0   502   512  0.000000000E+00  0.000000000E+00  1.691660860E+03  1.691660860E+03  0.000000000E+00  0.00000E+00  9.000E+00
      21    -1     0     0   501   502  0.000000000E+00  0.000000000E+00 -8.173280361E+01  8.173280361E+01  0.000000000E+00  0.00000E+00  9.000E+00
      25     1     1     2     0     0  1.084032296E+02  3.849600765E+01  2.384297137E+01  1.715420942E+02  1.250000000E+02  0.00000E+00  9.000E+00
      25     1     1     2     0     0 -6.249646173E+01 -6.324858804E+01  8.361219489E+02  8.500771171E+02  1.250000000E+02  0.00000E+00  9.000E+00
      21     1     1     2   501   512 -4.590676790E+01  2.475258039E+01  7.499631357E+02  7.517744518E+02  1.078959322E-05  0.00000E+00  9.000E+00
#rwgt            1           1   4.3693781996899425E-002           9      486570           0
</event>
<event>
      5   9999  3.79277E-02  3.69552E+01 -1.00000E+00  1.47005E-01
      21    -1     0     0   502   511  0.000000000E+00  0.000000000E+00  2.683183051E+02  2.683183051E+02  0.000000000E+00  0.00000E+00  9.000E+00
      21    -1     0     0   501   502  0.000000000E+00  0.000000000E+00 -4.124655343E+02  4.124655343E+02  0.000000000E+00  0.00000E+00  9.000E+00
      25     1     1     2     0     0 -1.062058443E+02 -2.338468190E+02  4.504811341E+01  2.891683742E+02  1.250000000E+02  0.00000E+00  9.000E+00
      25     1     1     2     0     0  7.722347340E+01  2.109185539E+02 -2.239215272E+02  3.409046077E+02  1.250000000E+02  0.00000E+00  9.000E+00
      21     1     1     2   501   511  2.898237093E+01  2.292826507E+01  3.472618455E+01  5.071085739E+01  4.768371582E-07  0.00000E+00  9.000E+00
#rwgt            1           1   4.6686900689772534E-002           9      486666           0
</event>
<event>
      5   9999  3.79277E-02  2.84941E+01 -1.00000E+00  1.54610E-01
      21    -1     0     0   502   512  0.000000000E+00  0.000000000E+00  5.482687246E+02  5.482687246E+02  0.000000000E+00  0.00000E+00  9.000E+00
      21    -1     0     0   501   502  0.000000000E+00  0.000000000E+00 -2.512477780E+02  2.512477780E+02  0.000000000E+00  0.00000E+00  9.000E+00
      25     1     1     2     0     0  9.014306259E+01 -1.237046930E+02 -1.538832865E+02  2.504669413E+02  1.250000000E+02  0.00000E+00  9.000E+00
      25     1     1     2     0     0 -7.684322403E+01  1.489044380E+02  1.777231457E+02  2.743864597E+02  1.250000000E+02  0.00000E+00  9.000E+00
      21     1     1     2   501   512 -1.329983856E+01 -2.519974497E+01  2.731810874E+02  2.746631016E+02  3.814697266E-06  0.00000E+00  9.000E+00
#rwgt            1           1   3.0756483835164966E-002           9      486936           0
</event>
<event>
      5   9999  3.79277E-02  5.88516E+00 -1.00000E+00  2.26783E-01
       2    -1     0     0   502     0  0.000000000E+00  0.000000000E+00  1.155961248E+03  1.155961248E+03  0.000000000E+00  0.00000E+00  9.000E+00
      21    -1     0     0   501   502  0.000000000E+00  0.000000000E+00 -3.165086118E+02  3.165086118E+02  0.000000000E+00  0.00000E+00  9.000E+00
      25     1     1     2     0     0  6.445825631E+01 -9.047969466E+01 -5.113046970E+00  1.673098479E+02  1.250000000E+02  0.00000E+00  9.000E+00
      25     1     1     2     0     0 -6.383788786E+01  8.462732773E+01 -2.011276192E+02  2.594501489E+02  1.250000000E+02  0.00000E+00  9.000E+00
       2     1     1     2   501     0 -6.203684514E-01  5.852366930E+00  1.045693303E+03  1.045709863E+03  1.525878906E-05  0.00000E+00  9.000E+00
#rwgt            1           1   4.5452263700592306E-002           9      487077           0
</event>
<event>
      5   9999  3.79277E-02  7.22810E+01 -1.00000E+00  1.30519E-01
      -1    -1     0     0     0   501  0.000000000E+00  0.000000000E+00  2.060767850E+02  2.060767850E+02  0.000000000E+00  0.00000E+00  9.000E+00
      21    -1     0     0   501   502  0.000000000E+00  0.000000000E+00 -4.027610047E+02  4.027610047E+02  0.000000000E+00  0.00000E+00  9.000E+00
      25     1     1     2     0     0 -8.182944319E+01  1.150707039E+02 -1.302911607E+02  2.292119351E+02  1.250000000E+02  0.00000E+00  9.000E+00
      25     1     1     2     0     0  1.391961050E+02 -1.590435045E+02 -1.347898630E+02  2.801137254E+02  1.250000000E+02  0.00000E+00  9.000E+00
      -1     1     1     2     0   502 -5.736666185E+01  4.397280061E+01  6.839680392E+01  9.951212927E+01  1.348699152E-06  0.00000E+00  9.000E+00
#rwgt            1           1   3.2770934516576707E-002           9      487555           0
</event>
<event>
      5   9999  3.79277E-02  8.21300E+01 -1.00000E+00  1.27800E-01
      21    -1     0     0   502   501  0.000000000E+00  0.000000000E+00  1.228718220E+02  1.228718220E+02  0.000000000E+00  0.00000E+00  9.000E+00
       1    -1     0     0   501     0  0.000000000E+00  0.000000000E+00 -9.923187498E+02  9.923187498E+02  0.000000000E+00  0.00000E+00  9.000E+00
      25     1     1     2     0     0  1.599948235E+01 -2.332043221E+01 -1.642948949E+02  2.083689960E+02  1.250000000E+02  0.00000E+00  9.000E+00
      25     1     1     2     0     0 -2.922863952E+01 -5.773715671E+01  4.836966294E+01  1.488372162E+02  1.250000000E+02  0.00000E+00  9.000E+00
       1     1     1     2   502     0  1.322915717E+01  8.105758892E+01 -7.535216958E+02  7.579843596E+02  1.525878906E-05  0.00000E+00  9.000E+00
#rwgt            1           1   4.8256321148172708E-002           9      487683           0
</event>
<event>
      5   9999 -3.79277E-02  5.04856E+01 -1.00000E+00  1.38836E-01
      21    -1     0     0   502   511  0.000000000E+00  0.000000000E+00  1.370799008E+03  1.370799008E+03  0.000000000E+00  0.00000E+00  9.000E+00
      21    -1     0     0   501   502  0.000000000E+00  0.000000000E+00 -3.290987708E+01  3.290987708E+01  0.000000000E+00  0.00000E+00  9.000E+00
      25     1     1     2     0     0 -6.935084629E+01  7.283199283E+01  3.348501731E+02  3.712999831E+02  1.250000000E+02  0.00000E+00  9.000E+00
      25     1     1     2     0     0  1.179274704E+02 -5.908049941E+01  6.207923114E+02  6.468427070E+02  1.250000000E+02  0.00000E+00  9.000E+00
      21     1     1     2   501   511 -4.857662412E+01 -1.375149341E+01  3.822466469E+02  3.855661954E+02  0.000000000E+00  0.00000E+00  9.000E+00
#rwgt            1           1 -0.32801426422179536                9      487724           0
</event>
<event>
      5   9999  3.79277E-02  1.21070E+01 -1.00000E+00  1.86624E-01
      21    -1     0     0   512   501  0.000000000E+00  0.000000000E+00  3.458754526E+02  3.458754526E+02  0.000000000E+00  0.00000E+00  9.000E+00
      21    -1     0     0   501   502  0.000000000E+00  0.000000000E+00 -1.360081072E+02  1.360081072E+02  0.000000000E+00  0.00000E+00  9.000E+00
      25     1     1     2     0     0  6.552736394E+01 -2.930349176E+01 -7.042735071E+01  1.604292423E+02  1.250000000E+02  0.00000E+00  9.000E+00
      25     1     1     2     0     0 -7.089901577E+01  1.845335723E+01  2.520785823E+02  2.907504230E+02  1.250000000E+02  0.00000E+00  9.000E+00
      21     1     1     2   512   502  5.371651830E+00  1.085013454E+01  2.821611377E+01  3.070389452E+01  0.000000000E+00  0.00000E+00  9.000E+00
#rwgt            1           1   3.0042614293668363E-002           9      487872           0
</event>
<event>
      5   9999  3.79277E-02  1.53512E+02 -1.00000E+00  1.15997E-01
      21    -1     0     0   502   501  0.000000000E+00  0.000000000E+00  4.087941560E+01  4.087941560E+01  0.000000000E+00  0.00000E+00  9.000E+00
      21    -1     0     0   511   502  0.000000000E+00  0.000000000E+00 -2.344794495E+03  2.344794495E+03  0.000000000E+00  0.00000E+00  9.000E+00
      25     1     1     2     0     0 -7.818528765E+01  8.547534550E+01 -3.778361555E+02  4.144926227E+02  1.250000000E+02  0.00000E+00  9.000E+00
      25     1     1     2     0     0  2.061877415E+02 -7.326327900E-01 -8.270089261E+02  8.614422124E+02  1.250000000E+02  0.00000E+00  9.000E+00
      21     1     1     2   511   501 -1.280024538E+02 -8.474271271E+01 -1.099069998E+03  1.109739076E+03  1.525878906E-05  0.00000E+00  9.000E+00
#rwgt            1           1   4.3297506884968827E-002           9      488161           0
</event>
<event>
      5   9999  3.79277E-02  1.48504E+02 -1.00000E+00  1.16566E-01
      21    -1     0     0   502   501  0.000000000E+00  0.000000000E+00  1.398911804E+03  1.398911804E+03  0.000000000E+00  0.00000E+00  9.000E+00
      21    -1     0     0   512   502  0.000000000E+00  0.000000000E+00 -4.191286409E+01  4.191286409E+01  0.000000000E+00  0.00000E+00  9.000E+00
      25     1     1     2     0     0 -8.348781846E+01  1.132944200E+02  4.903163174E+02  5.252056098E+02  1.250000000E+02  0.00000E+00  9.000E+00
      25     1     1     2     0     0 -3.534190692E+01 -2.422807989E+01  5.528751042E+02  5.684469466E+02  1.250000000E+02  0.00000E+00  9.000E+00
      21     1     1     2   512   501  1.188297254E+02 -8.906634016E+01  3.138075179E+02  3.471721113E+02  3.814697266E-06  0.00000E+00  9.000E+00
#rwgt            1           1   8.2021630539575188E-002           9      488305           0
</event>
<event>
      5   9999  3.79277E-02  2.62413E+01 -1.00000E+00  1.57191E-01
      21    -1     0     0   502   511  0.000000000E+00  0.000000000E+00  3.814245693E+01  3.814245693E+01  0.000000000E+00  0.00000E+00  9.000E+00
      21    -1     0     0   501   502  0.000000000E+00  0.000000000E+00 -1.363136996E+03  1.363136996E+03  0.000000000E+00  0.00000E+00  9.000E+00
      25     1     1     2     0     0  2.520249250E+01  1.400319680E+02 -6.943490499E+02  7.197150275E+02  1.250000000E+02  0.00000E+00  9.000E+00
      25     1     1     2     0     0 -6.253198481E+00 -1.581849313E+02 -6.220732131E+02  6.539584524E+02  1.250000000E+02  0.00000E+00  9.000E+00
      21     1     1     2   501   511 -1.894929401E+01  1.815296330E+01 -8.572275749E+00  2.760597275E+01  8.085167388E-07  0.00000E+00  9.000E+00
#rwgt            1           1   4.2763445698894044E-002           9      488350           0
</event>
<event>
      5   9999  3.79277E-02  1.02414E+02 -1.00000E+00  1.23364E-01
       2    -1     0     0   502     0  0.000000000E+00  0.000000000E+00  7.202938485E+02  7.202938485E+02  0.000000000E+00  0.00000E+00  9.000E+00
      21    -1     0     0   501   502  0.000000000E+00  0.000000000E+00 -2.902610741E+02  2.902610741E+02  0.000000000E+00  0.00000E+00  9.000E+00
      25     1     1     2     0     0  2.329592049E+02 -5.510642779E+01 -9.057075582E+01  2.848416601E+02  1.250000000E+02  0.00000E+00  9.000E+00
      25     1     1     2     0     0 -3.100972909E+02 -1.226144669E+01  2.014615741E+02  3.905412126E+02  1.250000000E+02  0.00000E+00  9.000E+00
       2     1     1     2   501     0  7.713808605E+01  6.736787448E+01  3.191419561E+02  3.351720498E+02  5.394796609E-06  0.00000E+00  9.000E+00
#rwgt            1           1   3.5378758933308503E-002           9      488531           0
</event>
<event>
      5   9999  3.79277E-02  3.58033E+01 -1.00000E+00  1.47890E-01
      21    -1     0     0   502   501  0.000000000E+00  0.000000000E+00  1.488007547E+02  1.488007547E+02  0.000000000E+00  0.00000E+00  9.000E+00
      21    -1     0     0   501   511  0.000000000E+00  0.000000000E+00 -2.198520262E+02  2.198520262E+02  0.000000000E+00  0.00000E+00  9.000E+00
      25     1     1     2     0     0  1.283815381E+00  4.916345725E+01 -8.768275923E+01  1.604118449E+02  1.250000000E+02  0.00000E+00  9.000E+00
      25     1     1     2     0     0  1.515244116E+01 -8.097113093E+01  5.145159827E+01  1.582977810E+02  1.250000000E+02  0.00000E+00  9.000E+00
      21     1     1     2   502   511 -1.643625655E+01  3.180767368E+01 -3.482011054E+01  4.994315501E+01  6.743495762E-07  0.00000E+00  9.000E+00
#rwgt            1           1   3.6693964448320689E-002           9      488711           0
</event>
<event>
      5   9999 -3.79277E-02  3.98399E+01 -1.00000E+00  1.44948E-01
      21    -1     0     0   502   501  0.000000000E+00  0.000000000E+00  2.602175588E+02  2.602175588E+02  0.000000000E+00  0.00000E+00  9.000E+00
      21    -1     0     0   512   502  0.000000000E+00  0.000000000E+00 -3.275540375E+02  3.275540375E+02  0.000000000E+00  0.00000E+00  9.000E+00
      25     1     1     2     0     0 -2.054539314E+02 -2.568668793E+01 -9.046308009E+01  2.582241133E+02  1.250000000E+02  0.00000E+00  9.000E+00
      25     1     1     2     0     0  2.446556825E+02  3.278870049E+01  5.043385813E+01  2.812473572E+02  1.250000000E+02  0.00000E+00  9.000E+00
      21     1     1     2   512   501 -3.920175119E+01 -7.102012566E+00 -2.730725680E+01  4.830012581E+01  8.259061849E-07  0.00000E+00  9.000E+00
#rwgt            1           1 -0.45524225867655232                9      488846           0
</event>
<event>
      5   9999  3.79277E-02  1.04116E+01 -1.00000E+00  1.93754E-01
      21    -1     0     0   511   501  0.000000000E+00  0.000000000E+00  1.418689340E+02  1.418689340E+02  0.000000000E+00  0.00000E+00  9.000E+00
      21    -1     0     0   501   502  0.000000000E+00  0.000000000E+00 -3.174371802E+02  3.174371802E+02  0.000000000E+00  0.00000E+00  9.000E+00
      25     1     1     2     0     0 -1.498264085E+02 -4.014855156E+01 -1.177669548E+02  2.314171872E+02  1.250000000E+02  0.00000E+00  9.000E+00
      25     1     1     2     0     0  1.599377558E+02  3.766634587E+01 -6.352529332E+01  2.160076439E+02  1.250000000E+02  0.00000E+00  9.000E+00
      21     1     1     2   511   502 -1.011134730E+01  2.482205693E+00  5.724002007E+00  1.188128310E+01  0.000000000E+00  0.00000E+00  9.000E+00
#rwgt            1           1   2.9563876890085269E-002           9      488980           0
</event>
<event>
      5   9999  3.79277E-02  4.71155E+01 -1.00000E+00  1.40564E-01
      21    -1     0     0   502   512  0.000000000E+00  0.000000000E+00  4.200673386E+02  4.200673386E+02  0.000000000E+00  0.00000E+00  9.000E+00
      21    -1     0     0   501   502  0.000000000E+00  0.000000000E+00 -2.002217966E+02  2.002217966E+02  0.000000000E+00  0.00000E+00  9.000E+00
      25     1     1     2     0     0 -1.196718238E+02  1.340340443E+02  2.597686199E+02  3.396928117E+02  1.250000000E+02  0.00000E+00  9.000E+00
      25     1     1     2     0     0  7.255716212E+01 -1.343149393E+02 -8.550758449E+01  2.150385819E+02  1.250000000E+02  0.00000E+00  9.000E+00
      21     1     1     2   501   512  4.711466172E+01  2.808949389E-01  4.558450665E+01  6.555774170E+01  6.743495762E-07  0.00000E+00  9.000E+00
#rwgt            1           1   4.6586950172431266E-002           9      489246           0
</event>
<event>
      5   9999  3.79277E-02  4.34159E+01 -1.00000E+00  1.42667E-01
      21    -1     0     0   502   501  0.000000000E+00  0.000000000E+00  4.244649479E+02  4.244649479E+02  0.000000000E+00  0.00000E+00  9.000E+00
      21    -1     0     0   511   502  0.000000000E+00  0.000000000E+00 -1.857000732E+02  1.857000732E+02  0.000000000E+00  0.00000E+00  9.000E+00
      25     1     1     2     0     0  6.151761978E+00  9.773068299E+01  1.281038642E+02  2.040213974E+02  1.250000000E+02  0.00000E+00  9.000E+00
      25     1     1     2     0     0  3.249441537E+01 -1.175149278E+02  2.244381296E+02  2.843644129E+02  1.250000000E+02  0.00000E+00  9.000E+00
      21     1     1     2   511   501 -3.864617735E+01  1.978424485E+01 -1.137771191E+02  1.217792108E+02  1.907348633E-06  0.00000E+00  9.000E+00
#rwgt            1           1   3.7455478991531357E-002           9      489429           0
</event>
<event>
      5   9999  3.79277E-02  3.40092E+02 -1.00000E+00  1.03852E-01
      21    -1     0     0   512   501  0.000000000E+00  0.000000000E+00  4.212797247E+02  4.212797247E+02  0.000000000E+00  0.00000E+00  9.000E+00
      21    -1     0     0   501   502  0.000000000E+00  0.000000000E+00 -6.233621183E+02  6.233621183E+02  0.000000000E+00  0.00000E+00  9.000E+00
      25     1     1     2     0     0  6.473105476E+00  2.506503652E+02 -1.131437584E+01  2.803935124E+02  1.250000000E+02  0.00000E+00  9.000E+00
      25     1     1     2     0     0  3.189508710E+02 -1.518472773E+02 -1.985462046E+02  4.240670337E+02  1.250000000E+02  0.00000E+00  9.000E+00
      21     1     1     2   512   502 -3.254239764E+02 -9.880308789E+01  7.778186921E+00  3.401812970E+02  2.980232239E-06  0.00000E+00  9.000E+00
#rwgt            1           1   2.0690127834386181E-002           9      489569           0
</event>
<event>
      5   9999  3.79277E-02  5.22796E+01 -1.00000E+00  1.37980E-01
      21    -1     0     0   511   501  0.000000000E+00  0.000000000E+00  1.159960423E+02  1.159960423E+02  0.000000000E+00  0.00000E+00  9.000E+00
      21    -1     0     0   501   502  0.000000000E+00  0.000000000E+00 -6.004885816E+02  6.004885816E+02  0.000000000E+00  0.00000E+00  9.000E+00
      25     1     1     2     0     0 -1.358478681E+02  1.597544498E+02 -1.299674867E+02  2.765730918E+02  1.250000000E+02  0.00000E+00  9.000E+00
      25     1     1     2     0     0  1.096135130E+02 -1.145337172E+02 -3.159400177E+02  3.749349136E+02  1.250000000E+02  0.00000E+00  9.000E+00
      21     1     1     2   511   502  2.623435510E+01 -4.522073261E+01 -3.858503493E+01  6.497661861E+01  0.000000000E+00  0.00000E+00  9.000E+00
#rwgt            2          11   3.0609878525414448E-003           9      489628           0
</event>
<event>
      5   9999 -3.79277E-02  6.81025E+01 -1.00000E+00  1.31828E-01
      21    -1     0     0   502   512  0.000000000E+00  0.000000000E+00  7.585968725E+01  7.585968725E+01  0.000000000E+00  0.00000E+00  9.000E+00
      21    -1     0     0   501   502  0.000000000E+00  0.000000000E+00 -1.585412648E+03  1.585412648E+03  0.000000000E+00  0.00000E+00  9.000E+00
      25     1     1     2     0     0 -7.047482177E+01  7.497900521E+01 -5.837268968E+02  6.057645102E+02  1.250000000E+02  0.00000E+00  9.000E+00
      25     1     1     2     0     0  9.908147316E+01 -1.367819844E+02 -9.575825565E+02  9.803651371E+02  1.250000000E+02  0.00000E+00  9.000E+00
      21     1     1     2   501   512 -2.860665139E+01  6.180297917E+01  3.175649254E+01  7.514268798E+01  2.589888690E-06  0.00000E+00  9.000E+00
#rwgt            1           1 -0.13420364265033230                9      489648           0
</event>
<event>
      5   9999  3.79277E-02  2.77112E+01 -1.00000E+00  1.55473E-01
      21    -1     0     0   502   501  0.000000000E+00  0.000000000E+00  1.756918251E+02  1.756918251E+02  0.000000000E+00  0.00000E+00  9.000E+00
      21    -1     0     0   501   511  0.000000000E+00  0.000000000E+00 -2.169512888E+03  2.169512888E+03  0.000000000E+00  0.00000E+00  9.000E+00
      25     1     1     2     0     0  1.994508834E+02  7.492212785E+01  5.709321802E+00  2.470861722E+02  1.250000000E+02  0.00000E+00  9.000E+00
      25     1     1     2     0     0 -2.070215766E+02 -4.826509919E+01 -2.599248721E+02  3.582923278E+02  1.250000000E+02  0.00000E+00  9.000E+00
      21     1     1     2   502   511  7.570693213E+00 -2.665702866E+01 -1.739605513E+03  1.739826213E+03  3.051757812E-05  0.00000E+00  9.000E+00
#rwgt            1           1   4.2035568773863753E-002           9      489909           0
</event>
<event>
      5   9999  3.79277E-02  9.76799E+01 -1.00000E+00  1.24288E-01
      -2    -1     0     0     0   501  0.000000000E+00  0.000000000E+00  1.337422436E+02  1.337422436E+02  0.000000000E+00  0.00000E+00  9.000E+00
      21    -1     0     0   501   502  0.000000000E+00  0.000000000E+00 -3.952204868E+02  3.952204868E+02  0.000000000E+00  0.00000E+00  9.000E+00
      25     1     1     2     0     0 -3.259950592E+01 -1.971994830E+01 -2.052706946E+02  2.433365205E+02  1.250000000E+02  0.00000E+00  9.000E+00
      25     1     1     2     0     0  7.682912457E+01 -6.737256524E+01 -8.675065915E+01  1.832824427E+02  1.250000000E+02  0.00000E+00  9.000E+00
      -2     1     1     2     0   502 -4.422961865E+01  8.709251354E+01  3.054311051E+01  1.023437672E+02  1.719260824E-06  0.00000E+00  9.000E+00
#rwgt            1           1   7.4454311919207705E-002           9      490067           0
</event>
<event>
      5   9999  3.79277E-02  4.47092E+01 -1.00000E+00  1.41905E-01
      21    -1     0     0   502   501  0.000000000E+00  0.000000000E+00  4.188821661E+02  4.188821661E+02  0.000000000E+00  0.00000E+00  9.000E+00
      21    -1     0     0   511   502  0.000000000E+00  0.000000000E+00 -1.588314713E+02  1.588314713E+02  0.000000000E+00  0.00000E+00  9.000E+00
      25     1     1     2     0     0  1.343880589E+02 -4.877503800E+00  1.342051011E+02  2.274202049E+02  1.250000000E+02  0.00000E+00  9.000E+00
      25     1     1     2     0     0 -1.709233847E+02 -2.089224691E+01  1.809596056E+02  2.793253807E+02  1.250000000E+02  0.00000E+00  9.000E+00
      21     1     1     2   511   501  3.653532586E+01  2.576975072E+01 -5.511401191E+01  7.096805194E+01  9.536743164E-07  0.00000E+00  9.000E+00
#rwgt            1           1   2.5452390428373189E-002           9      490133           0
</event>
<event>
      5   9999  3.79277E-02  2.94541E+01 -1.00000E+00  1.53596E-01
      21    -1     0     0   502   512  0.000000000E+00  0.000000000E+00  1.268138111E+03  1.268138111E+03  0.000000000E+00  0.00000E+00  9.000E+00
      21    -1     0     0   501   502  0.000000000E+00  0.000000000E+00 -1.346916209E+02  1.346916209E+02  0.000000000E+00  0.00000E+00  9.000E+00
      25     1     1     2     0     0 -1.522724526E+02  1.002650556E+02  1.651391926E+02  2.759274073E+02  1.250000000E+02  0.00000E+00  9.000E+00
      25     1     1     2     0     0  1.647914001E+02 -1.269263077E+02  1.072119905E+02  2.653034188E+02  1.250000000E+02  0.00000E+00  9.000E+00
      21     1     1     2   501   512 -1.251894750E+01  2.666125202E+01  8.610953070E+02  8.615989056E+02  0.000000000E+00  0.00000E+00  9.000E+00
#rwgt            1           1   3.9265076138614907E-002           9      490315           0
</event>
<event>
      5   9999  3.79277E-02  5.78557E+01 -1.00000E+00  1.35553E-01
      21    -1     0     0   502   501  0.000000000E+00  0.000000000E+00  5.717746508E+02  5.717746508E+02  0.000000000E+00  0.00000E+00  9.000E+00
      21    -1     0     0   511   502  0.000000000E+00  0.000000000E+00 -5.896045370E+02  5.896045370E+02  0.000000000E+00  0.00000E+00  9.000E+00
      25     1     1     2     0     0  5.172303169E+02 -1.290724918E+02  1.868605064E+01  5.478695806E+02  1.250000000E+02  0.00000E+00  9.000E+00
      25     1     1     2     0     0 -5.242559466E+02  7.164498360E+01  2.550881675E+00  5.436991891E+02  1.250000000E+02  0.00000E+00  9.000E+00
      21     1     1     2   511   501  7.025629749E+00  5.742750820E+01 -3.906681846E+01  6.981041810E+01  9.536743164E-07  0.00000E+00  9.000E+00
#rwgt            1           1  0.10265522228101560                9      490415           0
</event>
<event>
      5   9999  3.79277E-02  8.88800E+00 -1.00000E+00  2.01868E-01
      21    -1     0     0   502   501  0.000000000E+00  0.000000000E+00  4.569385576E+02  4.569385576E+02  0.000000000E+00  0.00000E+00  9.000E+00
      21    -1     0     0   512   502  0.000000000E+00  0.000000000E+00 -3.747479653E+02  3.747479653E+02  0.000000000E+00  0.00000E+00  9.000E+00
      25     1     1     2     0     0  3.291738669E+02  2.655930527E+01 -1.310410029E+01  3.533518767E+02  1.250000000E+02  0.00000E+00  9.000E+00
      25     1     1     2     0     0 -3.223293687E+02 -3.222934534E+01  1.814168597E+02  3.917550633E+02  1.250000000E+02  0.00000E+00  9.000E+00
      21     1     1     2   512   501 -6.844498159E+00  5.670040070E+00 -8.612216710E+01  8.657958290E+01  9.536743164E-07  0.00000E+00  9.000E+00
#rwgt            1           1   4.3734598741903212E-002           9      490567           0
</event>
<event>
      5   9999  3.79277E-02  4.88193E+01 -1.00000E+00  1.39670E-01
      21    -1     0     0   502   501  0.000000000E+00  0.000000000E+00  8.367796071E+02  8.367796071E+02  0.000000000E+00  0.00000E+00  9.000E+00
      21    -1     0     0   501   511  0.000000000E+00  0.000000000E+00 -6.510215093E+01  6.510215093E+01  0.000000000E+00  0.00000E+00  9.000E+00
      25     1     1     2     0     0  1.232824311E+02  3.534312797E+00  1.724713652E+02  2.461349650E+02  1.250000000E+02  0.00000E+00  9.000E+00
      25     1     1     2     0     0 -1.718011337E+02 -8.943785326E+00  5.298611233E+02  5.709408296E+02  1.250000000E+02  0.00000E+00  9.000E+00
      21     1     1     2   502   511  4.851870260E+01  5.409472530E+00  6.934496766E+01  8.480596344E+01  9.536743164E-07  0.00000E+00  9.000E+00
#rwgt            1           1   2.4808669468431705E-002           9      490902           0
</event>
<event>
      5   9999  3.79277E-02  2.20447E+01 -1.00000E+00  1.62955E-01
      21    -1     0     0   512   501  0.000000000E+00  0.000000000E+00  2.917939333E+02  2.917939333E+02  0.000000000E+00  0.00000E+00  9.000E+00
      21    -1     0     0   501   502  0.000000000E+00  0.000000000E+00 -4.310757047E+02  4.310757047E+02  0.000000000E+00  0.00000E+00  9.000E+00
      25     1     1     2     0     0 -2.737494037E+02 -3.460034890E+00 -1.756489688E+02  3.484655909E+02  1.250000000E+02  0.00000E+00  9.000E+00
      25     1     1     2     0     0  2.566528016E+02 -1.045672817E+01 -4.581506620E+01  2.893164772E+02  1.250000000E+02  0.00000E+00  9.000E+00
      21     1     1     2   512   502  1.709660210E+01  1.391676306E+01  8.218226359E+01  8.508756987E+01  1.348699152E-06  0.00000E+00  9.000E+00
#rwgt            1           1   2.3748411745781007E-002           9      491049           0
</event>
<event>
      5   9999  3.79277E-02  3.33482E+01 -1.00000E+00  1.49915E-01
      21    -1     0     0   511   501  0.000000000E+00  0.000000000E+00  4.423643779E+02  4.423643779E+02  0.000000000E+00  0.00000E+00  9.000E+00
      21    -1     0     0   501   502  0.000000000E+00  0.000000000E+00 -1.162122922E+02  1.162122922E+02  0.000000000E+00  0.00000E+00  9.000E+00
      25     1     1     2     0     0  1.025634945E+02 -2.135140247E+01  1.775542739E+02  2.410926647E+02  1.250000000E+02  0.00000E+00  9.000E+00
      25     1     1     2     0     0 -1.213620601E+02 -6.193444110E+00  9.660752498E+00  1.746007976E+02  1.250000000E+02  0.00000E+00  9.000E+00
      21     1     1     2   511   502  1.879856561E+01  2.754484658E+01  1.389370592E+02  1.428832078E+02  1.907348633E-06  0.00000E+00  9.000E+00
#rwgt            1           1   5.0601310968422082E-002           9      491288           0
</event>
<event>
      5   9999  3.79277E-02  2.75011E+01 -1.00000E+00  1.55710E-01
       2    -1     0     0   502     0  0.000000000E+00  0.000000000E+00  1.156823216E+03  1.156823216E+03  0.000000000E+00  0.00000E+00  9.000E+00
      21    -1     0     0   501   502  0.000000000E+00  0.000000000E+00 -8.429854449E+01  8.429854449E+01  0.000000000E+00  0.00000E+00  9.000E+00
      25     1     1     2     0     0 -8.036880940E+01  1.932335348E+02  1.667802754E+02  2.953624972E+02  1.250000000E+02  0.00000E+00  9.000E+00
      25     1     1     2     0     0  5.296581087E+01 -1.955540008E+02  7.289196388E+02  7.668087012E+02  1.250000000E+02  0.00000E+00  9.000E+00
       2     1     1     2   501     0  2.740299853E+01  2.320466018E+00  1.768247575E+02  1.789505623E+02  1.907348633E-06  0.00000E+00  9.000E+00
#rwgt            1           1   5.1462271954162767E-002           9      491514           0
</event>
<event>
      5   9999 -3.79277E-02  4.02551E+01 -1.00000E+00  1.44669E-01
      21    -1     0     0   502   501  0.000000000E+00  0.000000000E+00  4.341854334E+02  4.341854334E+02  0.000000000E+00  0.00000E+00  9.000E+00
      21    -1     0     0   511   502  0.000000000E+00  0.000000000E+00 -2.515303510E+02  2.515303510E+02  0.000000000E+00  0.00000E+00  9.000E+00
      25     1     1     2     0     0 -1.327139983E+02  2.001793512E+02  2.271202809E+01  2.717086937E+02  1.250000000E+02  0.00000E+00  9.000E+00
      25     1     1     2     0     0  1.294854879E+02 -1.600539458E+02  2.301146511E+02  3.331088557E+02  1.250000000E+02  0.00000E+00  9.000E+00
      21     1     1     2   511   501  3.228510454E+00 -4.012540541E+01 -7.017159677E+01  8.089823504E+01  1.651812370E-06  0.00000E+00  9.000E+00
#rwgt            1           1 -0.40262425569233362                9      491669           0
</event>
<event>
      5   9999  3.79277E-02  9.51526E+01 -1.00000E+00  1.24806E-01
      21    -1     0     0   512   501  0.000000000E+00  0.000000000E+00  1.029220921E+03  1.029220921E+03  0.000000000E+00  0.00000E+00  9.000E+00
      21    -1     0     0   501   502  0.000000000E+00  0.000000000E+00 -1.255695859E+02  1.255695859E+02  0.000000000E+00  0.00000E+00  9.000E+00
      25     1     1     2     0     0  8.997163891E+00 -1.055605349E+02 -2.769130504E+01  1.661799743E+02  1.250000000E+02  0.00000E+00  9.000E+00
      25     1     1     2     0     0 -1.028119975E+02  8.966118205E+01  3.178386235E+02  3.677714304E+02  1.250000000E+02  0.00000E+00  9.000E+00
      21     1     1     2   512   502  9.381483366E+01  1.589935285E+01  6.135040162E+02  6.208391018E+02  1.078959322E-05  0.00000E+00  9.000E+00
#rwgt            1           1   3.0615746135131319E-002           9      491817           0
</event>
<event>
      5   9999  3.79277E-02  8.98350E+00 -1.00000E+00  2.01297E-01
      21    -1     0     0   502   511  0.000000000E+00  0.000000000E+00  1.908373183E+02  1.908373183E+02  0.000000000E+00  0.00000E+00  9.000E+00
      21    -1     0     0   501   502  0.000000000E+00  0.000000000E+00 -1.868473679E+02  1.868473679E+02  0.000000000E+00  0.00000E+00  9.000E+00
      25     1     1     2     0     0 -6.753213868E+01 -1.110475306E+02  1.356023256E+01  1.808342437E+02  1.250000000E+02  0.00000E+00  9.000E+00
      25     1     1     2     0     0  7.523377239E+01  1.156722643E+02 -1.423267914E+01  1.867291150E+02  1.250000000E+02  0.00000E+00  9.000E+00
      21     1     1     2   501   511 -7.701633709E+00 -4.624733791E+00  4.662396994E+00  1.012132749E+01  2.230201594E-07  0.00000E+00  9.000E+00
#rwgt            1           1   2.5604102907018866E-002           9      491870           0
</event>
<event>
      5   9999  3.79277E-02  5.00237E+01 -1.00000E+00  1.39064E-01
      21    -1     0     0   502   512  0.000000000E+00  0.000000000E+00  6.361386962E+01  6.361386962E+01  0.000000000E+00  0.00000E+00  9.000E+00
      21    -1     0     0   501   502  0.000000000E+00  0.000000000E+00 -1.313563426E+03  1.313563426E+03  0.000000000E+00  0.00000E+00  9.000E+00
      25     1     1     2     0     0  8.550598009E+01  1.506103462E+02 -1.061754173E+03  1.083024317E+03  1.250000000E+02  0.00000E+00  9.000E+00
      25     1     1     2     0     0 -6.668109549E+01 -1.042638698E+02 -1.421026600E+02  2.261315746E+02  1.250000000E+02  0.00000E+00  9.000E+00
      21     1     1     2   501   512 -1.882488460E+01 -4.634647644E+01 -4.609272345E+01  6.802140335E+01  0.000000000E+00  0.00000E+00  9.000E+00
#rwgt            1           1   3.6146830356841700E-002           9      492170           0
</event>
<event>
      5   9999  3.79277E-02  1.34412E+02 -1.00000E+00  1.18314E-01
      21    -1     0     0   502   511  0.000000000E+00  0.000000000E+00  8.772746778E+02  8.772746778E+02  0.000000000E+00  0.00000E+00  9.000E+00
      21    -1     0     0   501   502  0.000000000E+00  0.000000000E+00 -3.379940587E+02  3.379940587E+02  0.000000000E+00  0.00000E+00  9.000E+00
      25     1     1     2     0     0  5.160912489E+01 -1.807047004E+02  1.328352144E+02  2.618928879E+02  1.250000000E+02  0.00000E+00  9.000E+00
      25     1     1     2     0     0  8.279962096E+01  1.816439799E+02 -2.141857384E+02  3.183564719E+02  1.250000000E+02  0.00000E+00  9.000E+00
      21     1     1     2   501   511 -1.344087459E+02 -9.392794500E-01  6.206311431E+02  6.350193768E+02  0.000000000E+00  0.00000E+00  9.000E+00
#rwgt            1           1   4.1527146270827091E-002           9      492263           0
</event>
<event>
      5   9999  3.79277E-02  1.05741E+02 -1.00000E+00  1.22747E-01
      21    -1     0     0   502   501  0.000000000E+00  0.000000000E+00  2.149618926E+02  2.149618926E+02  0.000000000E+00  0.00000E+00  9.000E+00
      21    -1     0     0   512   502  0.000000000E+00  0.000000000E+00 -4.184214919E+02  4.184214919E+02  0.000000000E+00  0.00000E+00  9.000E+00
      25     1     1     2     0     0  7.697834120E+01  1.211757592E+02 -1.020711178E+02  2.159924599E+02  1.250000000E+02  0.00000E+00  9.000E+00
      25     1     1     2     0     0 -9.825077221E+01 -2.247547829E+02 -6.600502414E+00  2.753842648E+02  1.250000000E+02  0.00000E+00  9.000E+00
      21     1     1     2   512   501  2.127243101E+01  1.035790237E+02 -9.478797910E+01  1.420066599E+02  1.907348633E-06  0.00000E+00  9.000E+00
#rwgt            1           1   3.5802176148212725E-002           9      492317           0
</event>
<event>
      5   9999  3.79277E-02  4.88250E+01 -1.00000E+00  1.39667E-01
      21    -1     0     0   502   501  0.000000000E+00  0.000000000E+00  8.516568148E+02  8.516568148E+02  0.000000000E+00  0.00000E+00  9.000E+00
      21    -1     0     0   511   502  0.000000000E+00  0.000000000E+00 -1.666658165E+02  1.666658165E+02  0.000000000E+00  0.00000E+00  9.000E+00
      25     1     1     2     0     0  7.333156561E+01 -2.341744753E+02  1.700116442E+02  3.236420284E+02  1.250000000E+02  0.00000E+00  9.000E+00
      25     1     1     2     0     0 -5.342905297E+01  1.895900691E+02  5.731061956E+02  6.187687527E+02  1.250000000E+02  0.00000E+00  9.000E+00
      21     1     1     2   511   501 -1.990251264E+01  4.458440624E+01 -5.812684140E+01  7.591185007E+01  6.743495762E-07  0.00000E+00  9.000E+00
#rwgt            1           1   3.0887977616292726E-002           9      492402           0
</event>
<event>
      5   9999  3.79277E-02  6.41246E+01 -1.00000E+00  1.33178E-01
      21    -1     0     0   512   501  0.000000000E+00  0.000000000E+00  5.774081680E+01  5.774081680E+01  0.000000000E+00  0.00000E+00  9.000E+00
      21    -1     0     0   501   502  0.000000000E+00  0.000000000E+00 -8.675909858E+02  8.675909858E+02  0.000000000E+00  0.00000E+00  9.000E+00
      25     1     1     2     0     0  2.846762418E+01  4.119381304E+01 -6.048643852E+02  6.196718974E+02  1.250000000E+02  0.00000E+00  9.000E+00
      25     1     1     2     0     0 -9.256872603E+01 -3.945856474E+01 -1.266736504E+02  2.044435401E+02  1.250000000E+02  0.00000E+00  9.000E+00
      21     1     1     2   512   502  6.410110185E+01 -1.735248295E+00 -7.831213339E+01  1.012163652E+02  9.536743164E-07  0.00000E+00  9.000E+00
#rwgt            1           1   5.8628528327769810E-002           9      492532           0
</event>
<event>
      5   9999  3.79277E-02  1.63966E+01 -1.00000E+00  1.73817E-01
      21    -1     0     0   502   511  0.000000000E+00  0.000000000E+00  4.992129335E+02  4.992129335E+02  0.000000000E+00  0.00000E+00  9.000E+00
      21    -1     0     0   501   502  0.000000000E+00  0.000000000E+00 -3.717476457E+02  3.717476457E+02  0.000000000E+00  0.00000E+00  9.000E+00
      25     1     1     2     0     0  1.800909210E+01  7.611324185E+01  7.061469894E+01  1.634900263E+02  1.250000000E+02  0.00000E+00  9.000E+00
      25     1     1     2     0     0 -5.045933350E+00 -8.615346917E+01 -3.073840277E+02  3.428670620E+02  1.250000000E+02  0.00000E+00  9.000E+00
      21     1     1     2   501   511 -1.296315875E+01  1.004022731E+01  3.642346166E+02  3.646034909E+02  0.000000000E+00  0.00000E+00  9.000E+00
#rwgt            1           1   4.0850114096124081E-002           9      492658           0
</event>
<event>
      5   9999  3.79277E-02  1.45485E+02 -1.00000E+00  1.16922E-01
      21    -1     0     0   512   501  0.000000000E+00  0.000000000E+00  3.860366271E+02  3.860366271E+02  0.000000000E+00  0.00000E+00  9.000E+00
      21    -1     0     0   501   502  0.000000000E+00  0.000000000E+00 -2.150717289E+02  2.150717289E+02  0.000000000E+00  0.00000E+00  9.000E+00
      25     1     1     2     0     0 -1.111455638E+02  7.838493347E+01  6.747177733E+01  1.966595406E+02  1.250000000E+02  0.00000E+00  9.000E+00
      25     1     1     2     0     0  1.895747014E+01 -1.909339366E+02  5.546981306E+00  2.290653243E+02  1.250000000E+02  0.00000E+00  9.000E+00
      21     1     1     2   512   502  9.218809369E+01  1.125490031E+02  9.794613959E+01  1.753834912E+02  2.336015456E-06  0.00000E+00  9.000E+00
#rwgt            1           1   3.5559129783385726E-002           9      492817           0
</event>
<event>
      5   9999  3.79277E-02  1.95953E+01 -1.00000E+00  1.67105E-01
      21    -1     0     0   502   501  0.000000000E+00  0.000000000E+00  4.560264089E+02  4.560264089E+02  0.000000000E+00  0.00000E+00  9.000E+00
      21    -1     0     0   511   502  0.000000000E+00  0.000000000E+00 -2.394811668E+02  2.394811668E+02  0.000000000E+00  0.00000E+00  9.000E+00
      25     1     1     2     0     0 -6.049094394E+01  1.044546336E+02 -9.506003855E+01  1.980690175E+02  1.250000000E+02  0.00000E+00  9.000E+00
      25     1     1     2     0     0  4.595411012E+01 -1.175944831E+02  3.836420659E+02  4.227841972E+02  1.250000000E+02  0.00000E+00  9.000E+00
      21     1     1     2   511   501  1.453683381E+01  1.313984953E+01 -7.203678525E+01  7.465436098E+01  1.348699152E-06  0.00000E+00  9.000E+00
#rwgt            1           1   4.6934870907939630E-002           9      492876           0
</event>
<event>
      5   9999  3.79277E-02  7.67538E+00 -1.00000E+00  2.10051E-01
      21    -1     0     0   502   501  0.000000000E+00  0.000000000E+00  2.003661709E+02  2.003661709E+02  0.000000000E+00  0.00000E+00  9.000E+00
      21    -1     0     0   512   502  0.000000000E+00  0.000000000E+00 -1.625051011E+02  1.625051011E+02  0.000000000E+00  0.00000E+00  9.000E+00
      25     1     1     2     0     0 -1.568890378E+00 -1.154642509E+02  1.038465907E+01  1.704913365E+02  1.250000000E+02  0.00000E+00  9.000E+00
      25     1     1     2     0     0  1.746075834E+00  1.077909147E+02  4.681261814E+01  1.715760802E+02  1.250000000E+02  0.00000E+00  9.000E+00
      21     1     1     2   512   501 -1.771854569E-01  7.673336272E+00 -1.933620741E+01  2.080385544E+01  0.000000000E+00  0.00000E+00  9.000E+00
#rwgt            1           1   2.8283836563819699E-002           9      493169           0
</event>
<event>
      5   9999  3.79277E-02  3.21130E+01 -1.00000E+00  1.51015E-01
       2    -1     0     0   502     0  0.000000000E+00  0.000000000E+00  7.102442068E+02  7.102442068E+02  0.000000000E+00  0.00000E+00  9.000E+00
      21    -1     0     0   501   502  0.000000000E+00  0.000000000E+00 -3.697213174E+02  3.697213174E+02  0.000000000E+00  0.00000E+00  9.000E+00
      25     1     1     2     0     0  9.104670896E+01 -7.391024035E+01 -1.696277333E+02  2.411447589E+02  1.250000000E+02  0.00000E+00  9.000E+00
      25     1     1     2     0     0 -1.182680061E+02  5.687359896E+01 -1.138268604E+02  2.140174798E+02  1.250000000E+02  0.00000E+00  9.000E+00
       2     1     1     2   501     0  2.722129711E+01  1.703664139E+01  6.239774831E+02  6.248032855E+02  1.078959322E-05  0.00000E+00  9.000E+00
#rwgt            1           1   3.8822673489248075E-002           9      493472           0
</event>
<event>
      5   9999  3.79277E-02  1.17939E+02 -1.00000E+00  1.20689E-01
       1    -1     0     0   502     0  0.000000000E+00  0.000000000E+00  3.854179034E+02  3.854179034E+02  0.000000000E+00  0.00000E+00  9.000E+00
      21    -1     0     0   501   502  0.000000000E+00  0.000000000E+00 -6.220991992E+02  6.220991992E+02  0.000000000E+00  0.00000E+00  9.000E+00
      25     1     1     2     0     0 -2.219515145E+02 -2.188658415E+02 -3.079621770E+02  4.556648262E+02  1.250000000E+02  0.00000E+00  9.000E+00
      25     1     1     2     0     0  1.471729143E+02  1.276645714E+02 -1.673699844E+02  2.856498227E+02  1.250000000E+02  0.00000E+00  9.000E+00
       1     1     1     2   501     0  7.477860016E+01  9.120127014E+01  2.386508656E+02  2.662024537E+02  3.814697266E-06  0.00000E+00  9.000E+00
#rwgt            1           1  0.15012289700515413                9      493711           0
</event>
<event>
      5   9999  3.79277E-02  1.78382E+02 -1.00000E+00  1.13487E-01
      21    -1     0     0   502   501  0.000000000E+00  0.000000000E+00  2.828913136E+02  2.828913136E+02  0.000000000E+00  0.00000E+00  9.000E+00
      21    -1     0     0   501   511  0.000000000E+00  0.000000000E+00 -5.952575117E+02  5.952575117E+02  0.000000000E+00  0.00000E+00  9.000E+00
      25     1     1     2     0     0  1.358671261E+02  1.315985222E+02 -1.028592718E+02  2.489640071E+02  1.250000000E+02  0.00000E+00  9.000E+00
      25     1     1     2     0     0 -2.716376945E+02 -2.472991629E+02 -5.253798190E+01  3.915726658E+02  1.250000000E+02  0.00000E+00  9.000E+00
      21     1     1     2   502   511  1.357705684E+02  1.157006407E+02 -1.569689444E+02  2.376121524E+02  1.907348633E-06  0.00000E+00  9.000E+00
#rwgt            1           1  0.19607473603173575                9      493834           0
</event>
<event>
      5   9999  3.79277E-02  6.99799E+01 -1.00000E+00  1.31227E-01
      21    -1     0     0   502   501  0.000000000E+00  0.000000000E+00  3.780216053E+01  3.780216053E+01  0.000000000E+00  0.00000E+00  9.000E+00
      21    -1     0     0   512   502  0.000000000E+00  0.000000000E+00 -1.785430216E+03  1.785430216E+03  0.000000000E+00  0.00000E+00  9.000E+00
      25     1     1     2     0     0 -4.527795689E+01 -2.023214104E+02 -1.058843943E+03  1.086167364E+03  1.250000000E+02  0.00000E+00  9.000E+00
      25     1     1     2     0     0  2.615659569E+01  1.350045240E+02 -4.191898700E+02  4.585362975E+02  1.250000000E+02  0.00000E+00  9.000E+00
      21     1     1     2   512   501  1.912136121E+01  6.731688645E+01 -2.695942418E+02  2.785287146E+02  3.814697266E-06  0.00000E+00  9.000E+00
#rwgt            1           1   5.9657401126745509E-002           9      493932           0
</event>
<event>
      5   9999  3.79277E-02  6.91964E+01 -1.00000E+00  1.31475E-01
      21    -1     0     0   502   501  0.000000000E+00  0.000000000E+00  4.060393089E+02  4.060393089E+02  0.000000000E+00  0.00000E+00  9.000E+00
      21    -1     0     0   511   502  0.000000000E+00  0.000000000E+00 -1.719743076E+02  1.719743076E+02  0.000000000E+00  0.00000E+00  9.000E+00
      25     1     1     2     0     0 -1.300165516E+02 -5.498256402E+01  1.814074717E+02  2.616506389E+02  1.250000000E+02  0.00000E+00  9.000E+00
      25     1     1     2     0     0  1.717137118E+02  1.102046922E+02  6.025275753E+01  2.467510239E+02  1.250000000E+02  0.00000E+00  9.000E+00
      21     1     1     2   511   501 -4.169716019E+01 -5.522212819E+01 -7.595227949E+00  6.961195369E+01  2.528810911E-07  0.00000E+00  9.000E+00
#rwgt            1           1   3.5545451489613168E-002           9      494056           0
</event>
<event>
      5   9999  3.79277E-02  1.40542E+01 -1.00000E+00  1.80090E-01
      21    -1     0     0   512   501  0.000000000E+00  0.000000000E+00  4.878449988E+02  4.878449988E+02  0.000000000E+00  0.00000E+00  9.000E+00
      21    -1     0     0   501   502  0.000000000E+00  0.000000000E+00 -3.382926791E+02  3.382926791E+02  0.000000000E+00  0.00000E+00  9.000E+00
      25     1     1     2     0     0 -1.350767098E+02 -3.344547213E+02  1.062170157E+02  3.962483218E+02  1.250000000E+02  0.00000E+00  9.000E+00
      25     1     1     2     0     0  1.489631267E+02  3.322893903E+02  7.120112404E-01  3.850087778E+02  1.250000000E+02  0.00000E+00  9.000E+00
      21     1     1     2   512   502 -1.388641691E+01  2.165330983E+00  4.262329269E+01  4.488057834E+01  0.000000000E+00  0.00000E+00  9.000E+00
#rwgt            1           1   5.4488486662411649E-002           9      494146           0
</event>
<event>
      5   9999  3.79277E-02  1.14075E+02 -1.00000E+00  1.21309E-01
      21    -1     0     0   502   501  0.000000000E+00  0.000000000E+00  1.042329232E+02  1.042329232E+02  0.000000000E+00  0.00000E+00  9.000E+00
      21    -1     0     0   511   502  0.000000000E+00  0.000000000E+00 -8.987392968E+02  8.987392968E+02  0.000000000E+00  0.00000E+00  9.000E+00
      25     1     1     2     0     0  1.459718800E+02 -5.204442084E+01 -3.593084334E+02  4.107845686E+02  1.250000000E+02  0.00000E+00  9.000E+00
      25     1     1     2     0     0 -2.119825085E+02  1.450800979E+02 -2.844170542E+02  4.031164589E+02  1.250000000E+02  0.00000E+00  9.000E+00
      21     1     1     2   511   501  6.601062849E+01 -9.303567702E+01 -1.507808860E+02  1.890711926E+02  1.907348633E-06  0.00000E+00  9.000E+00
#rwgt            1           1   3.8591382275567812E-002           9      494372           0
</event>
<event>
      5   9999  3.79277E-02  2.61999E+01 -1.00000E+00  1.57241E-01
      21    -1     0     0   502   512  0.000000000E+00  0.000000000E+00  1.307936175E+03  1.307936175E+03  0.000000000E+00  0.00000E+00  9.000E+00
      21    -1     0     0   501   502  0.000000000E+00  0.000000000E+00 -2.071217193E+02  2.071217193E+02  0.000000000E+00  0.00000E+00  9.000E+00
      25     1     1     2     0     0 -1.749789121E+01  1.486750846E+02  1.292454555E+02  2.339654777E+02  1.250000000E+02  0.00000E+00  9.000E+00
      25     1     1     2     0     0 -4.978557028E+00 -1.352124374E+02 -9.973115351E+01  2.094719366E+02  1.250000000E+02  0.00000E+00  9.000E+00
      21     1     1     2   501   512  2.247644823E+01 -1.346264719E+01  1.071300154E+03  1.071620480E+03  1.525878906E-05  0.00000E+00  9.000E+00
#rwgt            1           1   4.4586120481290098E-002           9      494406           0
</event>
<event>
      5   9999  3.79277E-02  4.51721E+01 -1.00000E+00  1.41639E-01
      21    -1     0     0   511   501  0.000000000E+00  0.000000000E+00  4.462605728E+02  4.462605728E+02  0.000000000E+00  0.00000E+00  9.000E+00
      21    -1     0     0   501   502  0.000000000E+00  0.000000000E+00 -1.207181383E+02  1.207181383E+02  0.000000000E+00  0.00000E+00  9.000E+00
      25     1     1     2     0     0 -8.572340811E+01 -1.563638733E+02  1.963528462E+02  2.932193782E+02  1.250000000E+02  0.00000E+00  9.000E+00
      25     1     1     2     0     0  5.064068531E+01  1.279082356E+02  6.848394701E+01  1.980910062E+02  1.250000000E+02  0.00000E+00  9.000E+00
      21     1     1     2   511   502  3.508272280E+01  2.845563776E+01  6.070564142E+01  7.566832666E+01  9.536743164E-07  0.00000E+00  9.000E+00
#rwgt            1           1   4.1086208558404835E-002           9      494583           0
</event>
<event>
      5   9999  3.79277E-02  2.29687E+01 -1.00000E+00  1.61558E-01
      21    -1     0     0   512   501  0.000000000E+00  0.000000000E+00  6.721164384E+01  6.721164384E+01  0.000000000E+00  0.00000E+00  9.000E+00
      21    -1     0     0   501   502  0.000000000E+00  0.000000000E+00 -6.591088530E+02  6.591088530E+02  0.000000000E+00  0.00000E+00  9.000E+00
      25     1     1     2     0     0 -1.018542030E+02  8.722844084E+01 -2.171866902E+02  2.842149503E+02  1.250000000E+02  0.00000E+00  9.000E+00
      25     1     1     2     0     0  8.721780952E+01 -1.049297132E+02 -3.760340487E+02  4.190987912E+02  1.250000000E+02  0.00000E+00  9.000E+00
      21     1     1     2   512   502  1.463639352E+01  1.770127233E+01  1.323529802E+00  2.300675528E+01  5.339525004E-07  0.00000E+00  9.000E+00
#rwgt            1           1   3.9499636701862031E-002           9      494658           0
</event>
<event>
      5   9999  3.79277E-02  1.54790E+01 -1.00000E+00  1.76107E-01
      21    -1     0     0   502   501  0.000000000E+00  0.000000000E+00  3.233986488E+01  3.233986488E+01  0.000000000E+00  0.00000E+00  9.000E+00
      21    -1     0     0   501   511  0.000000000E+00  0.000000000E+00 -1.686074865E+03  1.686074865E+03  0.000000000E+00  0.00000E+00  9.000E+00
      25     1     1     2     0     0 -1.160777817E+02  9.824016178E+01 -5.541940061E+02  5.881166357E+02  1.250000000E+02  0.00000E+00  9.000E+00
      25     1     1     2     0     0  1.101186755E+02 -1.125260632E+02 -6.474355163E+02  6.779277140E+02  1.250000000E+02  0.00000E+00  9.000E+00
      21     1     1     2   502   511  5.959106195E+00  1.428590140E+01 -4.521054773E+02  4.523703798E+02  0.000000000E+00  0.00000E+00  9.000E+00
#rwgt            1           1  0.10438630296710127                9      494834           0
</event>
<event>
      5   9999  3.79277E-02  2.28475E+01 -1.00000E+00  1.61736E-01
      21    -1     0     0   502   501  0.000000000E+00  0.000000000E+00  3.490473231E+02  3.490473231E+02  0.000000000E+00  0.00000E+00  9.000E+00
       2    -1     0     0   501     0  0.000000000E+00  0.000000000E+00 -3.252823579E+02  3.252823579E+02  0.000000000E+00  0.00000E+00  9.000E+00
      25     1     1     2     0     0 -1.033419080E+02 -1.896854231E+02  1.215922330E+02  2.776144463E+02  1.250000000E+02  0.00000E+00  9.000E+00
      25     1     1     2     0     0  1.032055502E+02  1.668383337E+02  5.757871232E+01  2.396387349E+02  1.250000000E+02  0.00000E+00  9.000E+00
       2     1     1     2   502     0  1.363578408E-01  2.284708940E+01 -1.554059801E+02  1.570764997E+02  2.697398305E-06  0.00000E+00  9.000E+00
#rwgt            1           1   2.3384305291678963E-002           9      494989           0
</event>
<event>
      5   9999  3.79277E-02  1.23652E+02 -1.00000E+00  1.19818E-01
      21    -1     0     0   511   501  0.000000000E+00  0.000000000E+00  1.970601621E+02  1.970601621E+02  0.000000000E+00  0.00000E+00  9.000E+00
      21    -1     0     0   501   502  0.000000000E+00  0.000000000E+00 -5.915637413E+02  5.915637413E+02  0.000000000E+00  0.00000E+00  9.000E+00
      25     1     1     2     0     0  6.050689427E+01 -2.871807583E+01  1.845144989E+01  1.430079303E+02  1.250000000E+02  0.00000E+00  9.000E+00
      25     1     1     2     0     0 -2.479901023E+01 -8.966635402E+01 -4.802090668E+02  5.048572014E+02  1.250000000E+02  0.00000E+00  9.000E+00
      21     1     1     2   511   502 -3.570788404E+01  1.183844299E+02  6.725403768E+01  1.407587717E+02  9.536743164E-07  0.00000E+00  9.000E+00
#rwgt            1           1   4.7548108860176602E-002           9      495147           0
</event>
<event>
      5   9999  3.79277E-02  6.79548E+01 -1.00000E+00  1.31876E-01
      21    -1     0     0   502   501  0.000000000E+00  0.000000000E+00  6.503124163E+01  6.503124163E+01  0.000000000E+00  0.00000E+00  9.000E+00
      21    -1     0     0   512   502  0.000000000E+00  0.000000000E+00 -9.569915029E+02  9.569915029E+02  0.000000000E+00  0.00000E+00  9.000E+00
      25     1     1     2     0     0 -2.983115153E+01  9.246199195E+01 -8.213621692E+01  1.783549149E+02  1.250000000E+02  0.00000E+00  9.000E+00
      25     1     1     2     0     0  8.384970260E+01 -5.123270776E+01 -4.445975770E+02  4.721732399E+02  1.250000000E+02  0.00000E+00  9.000E+00
      21     1     1     2   512   501 -5.401855107E+01 -4.122928419E+01 -3.652264674E+02  3.714945898E+02  7.629394531E-06  0.00000E+00  9.000E+00
#rwgt            1           1   6.1104774831368454E-002           9      495248           0
</event>
<event>
      5   9999  3.79277E-02  4.85041E+01 -1.00000E+00  1.39832E-01
      21    -1     0     0   502   501  0.000000000E+00  0.000000000E+00  3.492384702E+02  3.492384702E+02  0.000000000E+00  0.00000E+00  9.000E+00
      21    -1     0     0   511   502  0.000000000E+00  0.000000000E+00 -2.335633923E+02  2.335633923E+02  0.000000000E+00  0.00000E+00  9.000E+00
      25     1     1     2     0     0  3.505351676E+01 -1.103230308E+02  2.709625295E+02  3.200712617E+02  1.250000000E+02  0.00000E+00  9.000E+00
      25     1     1     2     0     0 -1.125667008E+01  6.805766657E+01 -5.815473073E+01  1.541607321E+02  1.250000000E+02  0.00000E+00  9.000E+00
      21     1     1     2   511   501 -2.379684668E+01  4.226536426E+01 -9.713272090E+01  1.085698687E+02  0.000000000E+00  0.00000E+00  9.000E+00
#rwgt            1           1   4.2330754013235654E-002           9      495395           0
</event>
<event>
      5   9999  3.79277E-02  6.24037E+01 -1.00000E+00  1.33798E-01
      21    -1     0     0   512   501  0.000000000E+00  0.000000000E+00  1.019205513E+02  1.019205513E+02  0.000000000E+00  0.00000E+00  9.000E+00
      21    -1     0     0   501   502  0.000000000E+00  0.000000000E+00 -7.467058324E+02  7.467058324E+02  0.000000000E+00  0.00000E+00  9.000E+00
      25     1     1     2     0     0 -1.566031755E+02 -1.461786395E+02 -4.557257798E+02  5.188484707E+02  1.250000000E+02  0.00000E+00  9.000E+00
      25     1     1     2     0     0  1.376842739E+02  8.671189760E+01 -1.245698633E+02  2.400386705E+02  1.250000000E+02  0.00000E+00  9.000E+00
      21     1     1     2   512   502  1.891890156E+01  5.946674194E+01 -6.448963808E+01  8.973924255E+01  1.907348633E-06  0.00000E+00  9.000E+00
#rwgt            1           1   2.3756431556263190E-002           9      495563           0
</event>
<event>
      5   9999  3.79277E-02  1.04203E+02 -1.00000E+00  1.23029E-01
      21    -1     0     0   502   511  0.000000000E+00  0.000000000E+00  4.003816074E+03  4.003816074E+03  0.000000000E+00  0.00000E+00  9.000E+00
      21    -1     0     0   501   502  0.000000000E+00  0.000000000E+00 -5.997979099E+01  5.997979099E+01  0.000000000E+00  0.00000E+00  9.000E+00
      25     1     1     2     0     0  1.638448201E+02 -5.373691650E+01  1.991392307E+02  2.915719713E+02  1.250000000E+02  0.00000E+00  9.000E+00
      25     1     1     2     0     0 -1.366236975E+02 -4.684786210E+01  6.956775916E+02  7.214243331E+02  1.250000000E+02  0.00000E+00  9.000E+00
      21     1     1     2   501   511 -2.722112256E+01  1.005847786E+02  3.049019461E+03  3.050799560E+03  0.000000000E+00  0.00000E+00  9.000E+00
#rwgt            1           1   9.0356880367397183E-002           9      495664           0
</event>
<event>
      5   9999  3.79277E-02  2.88650E+01 -1.00000E+00  1.54212E-01
      21    -1     0     0   502   512  0.000000000E+00  0.000000000E+00  8.528374767E+02  8.528374767E+02  0.000000000E+00  0.00000E+00  9.000E+00
      21    -1     0     0   501   502  0.000000000E+00  0.000000000E+00 -7.183489815E+01  7.183489815E+01  0.000000000E+00  0.00000E+00  9.000E+00
      25     1     1     2     0     0 -5.855357587E+01  9.864257630E+01  5.803708874E+01  1.793102975E+02  1.250000000E+02  0.00000E+00  9.000E+00
      25     1     1     2     0     0  4.231567090E+01 -7.477794114E+01  5.795475334E+02  5.990681930E+02  1.250000000E+02  0.00000E+00  9.000E+00
      21     1     1     2   501   512  1.623790498E+01 -2.386463515E+01  1.434179565E+02  1.462938844E+02  1.907348633E-06  0.00000E+00  9.000E+00
#rwgt            1           1   3.9572746375927406E-002           9      495782           0
</event>
<event>
      5   9999  3.79277E-02  2.04368E+02 -1.00000E+00  1.11308E-01
       1    -1     0     0   502     0  0.000000000E+00  0.000000000E+00  5.245207227E+02  5.245207227E+02  0.000000000E+00  0.00000E+00  9.000E+00
      21    -1     0     0   501   502  0.000000000E+00  0.000000000E+00 -2.937420839E+02  2.937420839E+02  0.000000000E+00  0.00000E+00  9.000E+00
      25     1     1     2     0     0  1.844081126E+02  7.646236041E+00  2.944901437E+02  3.693430136E+02  1.250000000E+02  0.00000E+00  9.000E+00
      25     1     1     2     0     0 -6.610923587E+01 -1.742943294E+02 -9.207367772E+01  2.425932944E+02  1.250000000E+02  0.00000E+00  9.000E+00
       1     1     1     2   501     0 -1.182988767E+02  1.666480934E+02  2.836217278E+01  2.063264988E+02  6.097179343E-06  0.00000E+00  9.000E+00
#rwgt            1           1   2.4501415152243144E-002           9      495979           0
</event>
<event>
      5   9999 -3.79277E-02  1.48967E+01 -1.00000E+00  1.77667E-01
      21    -1     0     0   502   501  0.000000000E+00  0.000000000E+00  1.017866613E+02  1.017866613E+02  0.000000000E+00  0.00000E+00  9.000E+00
       1    -1     0     0   501     0  0.000000000E+00  0.000000000E+00 -7.542400546E+02  7.542400546E+02  0.000000000E+00  0.00000E+00  9.000E+00
      25     1     1     2     0     0 -1.339151275E+02  1.131479300E+02 -2.117338284E+02  3.019800151E+02  1.250000000E+02  0.00000E+00  9.000E+00
      25     1     1     2     0     0  1.239066839E+02 -1.021141946E+02 -1.267640707E+02  2.397379917E+02  1.250000000E+02  0.00000E+00  9.000E+00
       1     1     1     2   502     0  1.000844355E+01 -1.103373541E+01 -3.139554942E+02  3.143087091E+02  7.629394531E-06  0.00000E+00  9.000E+00
#rwgt            1           1  -3.1886207913776360E-002           9      496110           0
</event>
<event>
      5   9999  3.79277E-02  8.62693E+01 -1.00000E+00  1.26783E-01
      21    -1     0     0   502   511  0.000000000E+00  0.000000000E+00  1.118718562E+03  1.118718562E+03  0.000000000E+00  0.00000E+00  9.000E+00
      21    -1     0     0   501   502  0.000000000E+00  0.000000000E+00 -9.571099783E+01  9.571099783E+01  0.000000000E+00  0.00000E+00  9.000E+00
      25     1     1     2     0     0 -1.406213154E+02 -1.498472887E+01  1.884771852E+02  2.667349730E+02  1.250000000E+02  0.00000E+00  9.000E+00
      25     1     1     2     0     0  1.778958457E+02  9.278576899E+01  2.068537890E+02  3.141172088E+02  1.250000000E+02  0.00000E+00  9.000E+00
      21     1     1     2   501   511 -3.727453028E+01 -7.780104012E+01  6.276765904E+02  6.335773786E+02  1.321449896E-05  0.00000E+00  9.000E+00
#rwgt            1           1   3.7102268586818019E-002           9      496332           0
</event>
<event>
      5   9999  3.79277E-02  5.20245E+01 -1.00000E+00  1.38099E-01
      21    -1     0     0   502   501  0.000000000E+00  0.000000000E+00  1.197964933E+02  1.197964933E+02  0.000000000E+00  0.00000E+00  9.000E+00
      21    -1     0     0   501   512  0.000000000E+00  0.000000000E+00 -3.279916833E+02  3.279916833E+02  0.000000000E+00  0.00000E+00  9.000E+00
      25     1     1     2     0     0  4.824978854E+01 -1.247558427E+02 -7.093406437E+01  1.963382384E+02  1.250000000E+02  0.00000E+00  9.000E+00
      25     1     1     2     0     0 -4.538546994E+00  9.654459205E+01 -9.452886363E+01  1.841253995E+02  1.250000000E+02  0.00000E+00  9.000E+00
      21     1     1     2   502   512 -4.371124154E+01  2.821125060E+01 -4.273226197E+01  6.732453870E+01  4.768371582E-07  0.00000E+00  9.000E+00
#rwgt            1           1  0.14319318468642464                9      496460           0
</event>
<event>
      5   9999  3.79277E-02  2.83478E+01 -1.00000E+00  1.54768E-01
      21    -1     0     0   502   511  0.000000000E+00  0.000000000E+00  3.220488158E+02  3.220488158E+02  0.000000000E+00  0.00000E+00  9.000E+00
      21    -1     0     0   501   502  0.000000000E+00  0.000000000E+00 -1.132434077E+02  1.132434077E+02  0.000000000E+00  0.00000E+00  9.000E+00
      25     1     1     2     0     0 -4.490742094E+01  5.237545369E+01  1.755988772E+02  2.263179849E+02  1.250000000E+02  0.00000E+00  9.000E+00
      25     1     1     2     0     0  6.561621491E+01 -3.301718285E+01 -2.225976201E+01  1.466837381E+02  1.250000000E+02  0.00000E+00  9.000E+00
      21     1     1     2   501   511 -2.070879397E+01 -1.935827084E+01  5.546629295E+01  6.229050049E+01  6.743495762E-07  0.00000E+00  9.000E+00
#rwgt            1           1   4.7756128207478793E-002           9      496567           0
</event>
<event>
      5   9999  3.79277E-02  5.71400E+01 -1.00000E+00  1.35847E-01
      21    -1     0     0   502   501  0.000000000E+00  0.000000000E+00  1.340990296E+03  1.340990296E+03  0.000000000E+00  0.00000E+00  9.000E+00
      21    -1     0     0   501   512  0.000000000E+00  0.000000000E+00 -5.647520911E+01  5.647520911E+01  0.000000000E+00  0.00000E+00  9.000E+00
      25     1     1     2     0     0  7.371858097E+01 -1.313090012E+01  9.827465028E+02  9.934900797E+02  1.250000000E+02  0.00000E+00  9.000E+00
      25     1     1     2     0     0 -5.824006421E+01 -4.187266654E+01  3.140418461E+02  3.455322074E+02  1.250000000E+02  0.00000E+00  9.000E+00
      21     1     1     2   502   512 -1.547851675E+01  5.500356666E+01 -1.227326157E+01  5.844321839E+01  1.545128989E-06  0.00000E+00  9.000E+00
#rwgt            1           1   4.6090375721003808E-002           9      496686           0
</event>
<event>
      5   9999  3.79277E-02  4.09202E+01 -1.00000E+00  1.44230E-01
      21    -1     0     0   511   501  0.000000000E+00  0.000000000E+00  5.104254995E+02  5.104254995E+02  0.000000000E+00  0.00000E+00  9.000E+00
      21    -1     0     0   501   502  0.000000000E+00  0.000000000E+00 -3.739040032E+02  3.739040032E+02  0.000000000E+00  0.00000E+00  9.000E+00
      25     1     1     2     0     0  1.734274314E+02  6.694642360E+01 -2.497109947E+02  3.354690425E+02  1.250000000E+02  0.00000E+00  9.000E+00
      25     1     1     2     0     0 -1.459625930E+02 -9.728032864E+01  6.493387349E+01  2.249665504E+02  1.250000000E+02  0.00000E+00  9.000E+00
      21     1     1     2   511   502 -2.746483845E+01  3.033390504E+01  3.212986175E+02  3.238939097E+02  0.000000000E+00  0.00000E+00  9.000E+00
#rwgt            1           1   4.7492602171715519E-002           9      496878           0
</event>
<event>
      5   9999 -3.79277E-02  1.90770E+01 -1.00000E+00  1.68080E-01
      21    -1     0     0   502   501  0.000000000E+00  0.000000000E+00  4.832796830E+02  4.832796830E+02  0.000000000E+00  0.00000E+00  9.000E+00
      21    -1     0     0   512   502  0.000000000E+00  0.000000000E+00 -6.322935435E+01  6.322935435E+01  0.000000000E+00  0.00000E+00  9.000E+00
      25     1     1     2     0     0 -1.762471067E+01 -8.636779063E+01  2.593387760E+02  3.010840853E+02  1.250000000E+02  0.00000E+00  9.000E+00
      25     1     1     2     0     0  3.218903971E+01  7.404664982E+01  1.685147061E+02  2.248138047E+02  1.250000000E+02  0.00000E+00  9.000E+00
      21     1     1     2   512   501 -1.456432904E+01  1.232114081E+01 -7.803153412E+00  2.061114734E+01  5.127385418E-07  0.00000E+00  9.000E+00
#rwgt            1           1  -7.4061710082605717E-002           9      497048           0
</event>
<event>
      5   9999  3.79277E-02  4.39066E+01 -1.00000E+00  1.42374E-01
      21    -1     0     0   511   501  0.000000000E+00  0.000000000E+00  7.727678129E+02  7.727678129E+02  0.000000000E+00  0.00000E+00  9.000E+00
      21    -1     0     0   501   502  0.000000000E+00  0.000000000E+00 -1.276186367E+02  1.276186367E+02  0.000000000E+00  0.00000E+00  9.000E+00
      25     1     1     2     0     0 -6.920742486E+01 -5.296508635E+01 -6.255172938E+01  1.647200257E+02  1.250000000E+02  0.00000E+00  9.000E+00
      25     1     1     2     0     0  3.012453505E+01  7.297294376E+01  6.225267803E+02  6.398414884E+02  1.250000000E+02  0.00000E+00  9.000E+00
      21     1     1     2   511   502  3.908288981E+01 -2.000785741E+01  8.517412530E+01  9.582493545E+01  9.536743164E-07  0.00000E+00  9.000E+00
#rwgt            2          11   2.8457709521903405E-003           9      497277           0
</event>
<event>
      5   9999  3.79277E-02  2.85554E+01 -1.00000E+00  1.54544E-01
      21    -1     0     0   502   501  0.000000000E+00  0.000000000E+00  7.850048424E+02  7.850048424E+02  0.000000000E+00  0.00000E+00  9.000E+00
      21    -1     0     0   512   502  0.000000000E+00  0.000000000E+00 -2.992803428E+02  2.992803428E+02  0.000000000E+00  0.00000E+00  9.000E+00
      25     1     1     2     0     0 -2.425524559E+02  1.111452382E+02  3.979342287E+02  4.951379688E+02  1.250000000E+02  0.00000E+00  9.000E+00
      25     1     1     2     0     0  2.163483625E+02 -1.224924037E+02  2.800395769E+02  3.947887632E+02  1.250000000E+02  0.00000E+00  9.000E+00
      21     1     1     2   512   501  2.620409338E+01  1.134716549E+01 -1.922493060E+02  1.943584532E+02  3.814697266E-06  0.00000E+00  9.000E+00
#rwgt            1           1   3.6066118355171983E-002           9      497312           0
</event>
<event>
      5   9999 -3.79277E-02  8.75916E+01 -1.00000E+00  1.26472E-01
      21    -1     0     0   502   501  0.000000000E+00  0.000000000E+00  1.673402519E+02  1.673402519E+02  0.000000000E+00  0.00000E+00  9.000E+00
      21    -1     0     0   501   511  0.000000000E+00  0.000000000E+00 -9.895506198E+02  9.895506198E+02  0.000000000E+00  0.00000E+00  9.000E+00
      25     1     1     2     0     0  3.390957878E+02 -1.709960124E+02 -3.541292390E+02  5.340955977E+02  1.250000000E+02  0.00000E+00  9.000E+00
      25     1     1     2     0     0 -2.526062197E+02  1.571453181E+02 -3.547287061E+02  4.795435415E+02  1.250000000E+02  0.00000E+00  9.000E+00
      21     1     1     2   502   511 -8.648956815E+01  1.385069428E+01 -1.133524228E+02  1.432517326E+02  1.348699152E-06  0.00000E+00  9.000E+00
#rwgt            1           1 -0.29165304597089747                9      497477           0
</event>
<event>
      5   9999  3.79277E-02  7.68192E+01 -1.00000E+00  1.29208E-01
      21    -1     0     0   502   501  0.000000000E+00  0.000000000E+00  4.582216241E+02  4.582216241E+02  0.000000000E+00  0.00000E+00  9.000E+00
      21    -1     0     0   501   512  0.000000000E+00  0.000000000E+00 -1.600462109E+02  1.600462109E+02  0.000000000E+00  0.00000E+00  9.000E+00
      25     1     1     2     0     0 -1.403616603E+02  1.588070106E+02  1.931241989E+02  3.127986869E+02  1.250000000E+02  0.00000E+00  9.000E+00
      25     1     1     2     0     0  6.358756450E+01 -1.561744270E+02  8.073566298E+01  2.248934799E+02  1.250000000E+02  0.00000E+00  9.000E+00
      21     1     1     2   502   512  7.677409577E+01 -2.632583599E+00  2.431555132E+01  8.057566825E+01  1.215700987E-06  0.00000E+00  9.000E+00
#rwgt            1           1   1.4098467501995962E-002           9      497695           0
</event>
<event>
      5   9999  3.79277E-02  1.01370E+02 -1.00000E+00  1.23563E-01
      21    -1     0     0   502   511  0.000000000E+00  0.000000000E+00  2.241990548E+02  2.241990548E+02  0.000000000E+00  0.00000E+00  9.000E+00
      21    -1     0     0   501   502  0.000000000E+00  0.000000000E+00 -1.300447059E+03  1.300447059E+03  0.000000000E+00  0.00000E+00  9.000E+00
      25     1     1     2     0     0 -1.315450555E+02  5.348644233E+01 -3.537864585E+02  4.011916741E+02  1.250000000E+02  0.00000E+00  9.000E+00
      25     1     1     2     0     0  4.114159744E+01 -7.626243276E+00 -9.050578564E+02  9.146067538E+02  1.250000000E+02  0.00000E+00  9.000E+00
      21     1     1     2   501   511  9.040345805E+01 -4.586019905E+01  1.825963108E+02  2.088476857E+02  3.814697266E-06  0.00000E+00  9.000E+00
#rwgt            1           1   1.9089435454155305E-002           9      497872           0
</event>
<event>
      5   9999  3.79277E-02  2.14248E+01 -1.00000E+00  1.63940E-01
      21    -1     0     0   502   512  0.000000000E+00  0.000000000E+00  5.370379655E+01  5.370379655E+01  0.000000000E+00  0.00000E+00  9.000E+00
      21    -1     0     0   501   502  0.000000000E+00  0.000000000E+00 -7.996934404E+02  7.996934404E+02  0.000000000E+00  0.00000E+00  9.000E+00
      25     1     1     2     0     0  7.453258597E+00  1.250235956E+02 -4.176098456E+02  4.535520187E+02  1.250000000E+02  0.00000E+00  9.000E+00
      25     1     1     2     0     0 -8.900128117E+00 -1.463995086E+02 -3.254434234E+02  3.782201082E+02  1.250000000E+02  0.00000E+00  9.000E+00
      21     1     1     2   501   512  1.446869520E+00  2.137591305E+01 -2.936374883E+00  2.162511011E+01  3.862822472E-07  0.00000E+00  9.000E+00
#rwgt            1           1   3.6921979432497483E-002           9      497944           0
</event>
<event>
      5   9999  3.79277E-02  8.77384E+01 -1.00000E+00  1.26438E-01
      21    -1     0     0   511   501  0.000000000E+00  0.000000000E+00  6.100484665E+02  6.100484665E+02  0.000000000E+00  0.00000E+00  9.000E+00
      21    -1     0     0   501   502  0.000000000E+00  0.000000000E+00 -1.836328061E+02  1.836328061E+02  0.000000000E+00  0.00000E+00  9.000E+00
      25     1     1     2     0     0  1.397782833E+02  1.370200284E+02 -4.628427813E+01  2.368115096E+02  1.250000000E+02  0.00000E+00  9.000E+00
      25     1     1     2     0     0 -7.714678973E+01 -7.557642956E+01  1.523418188E+02  2.247141598E+02  1.250000000E+02  0.00000E+00  9.000E+00
      21     1     1     2   511   502 -6.263149360E+01 -6.144359882E+01  3.203581197E+02  3.321556032E+02  6.607249480E-06  0.00000E+00  9.000E+00
#rwgt            1           1   3.7247224489165280E-002           9      498176           0
</event>
<event>
      5   9999  3.79277E-02  8.99159E+01 -1.00000E+00  1.25940E-01
      21    -1     0     0   512   501  0.000000000E+00  0.000000000E+00  9.308624950E+01  9.308624950E+01  0.000000000E+00  0.00000E+00  9.000E+00
      21    -1     0     0   501   502  0.000000000E+00  0.000000000E+00 -1.381339859E+03  1.381339859E+03  0.000000000E+00  0.00000E+00  9.000E+00
      25     1     1     2     0     0 -3.305708820E+01  6.001750859E+01 -1.014628921E+03  1.024593441E+03  1.250000000E+02  0.00000E+00  9.000E+00
      25     1     1     2     0     0  5.064873006E+00 -1.454651830E+02 -3.000206435E+02  3.561223932E+02  1.250000000E+02  0.00000E+00  9.000E+00
      21     1     1     2   512   502  2.799221519E+01  8.544767443E+01  2.639595440E+01  9.371027471E+01  2.477718555E-06  0.00000E+00  9.000E+00
#rwgt            1           1   3.8215661466534427E-002           9      498321           0
</event>
<event>
      5   9999  3.79277E-02  1.39099E+01 -1.00000E+00  1.80527E-01
      21    -1     0     0   502   501  0.000000000E+00  0.000000000E+00  1.027380873E+03  1.027380873E+03  0.000000000E+00  0.00000E+00  9.000E+00
      21    -1     0     0   511   502  0.000000000E+00  0.000000000E+00 -4.112961795E+01  4.112961795E+01  0.000000000E+00  0.00000E+00  9.000E+00
      25     1     1     2     0     0  1.542302514E+02  3.282442981E+01  5.390169914E+02  5.753509630E+02  1.250000000E+02  0.00000E+00  9.000E+00
      25     1     1     2     0     0 -1.418950612E+02 -3.925322145E+01  4.265149422E+02  4.682040364E+02  1.250000000E+02  0.00000E+00  9.000E+00
      21     1     1     2   511   501 -1.233519012E+01  6.428791642E+00  2.071932167E+01  2.495549173E+01  4.129530925E-07  0.00000E+00  9.000E+00
#rwgt            1           1   3.6365250179370125E-002           9      498418           0
</event>
<event>
      5   9999  3.79277E-02  7.33518E+01 -1.00000E+00  1.30200E-01
      21    -1     0     0   502   512  0.000000000E+00  0.000000000E+00  4.436250851E+02  4.436250851E+02  0.000000000E+00  0.00000E+00  9.000E+00
      21    -1     0     0   501   502  0.000000000E+00  0.000000000E+00 -1.654419940E+02  1.654419940E+02  0.000000000E+00  0.00000E+00  9.000E+00
      25     1     1     2     0     0 -5.345360068E+01 -1.251379533E+02  9.942200600E+01  2.098249987E+02  1.250000000E+02  0.00000E+00  9.000E+00
      25     1     1     2     0     0  7.015060398E+01  5.371175856E+01 -4.839205561E+01  1.605392516E+02  1.250000000E+02  0.00000E+00  9.000E+00
      21     1     1     2   501   512 -1.669700330E+01  7.142619475E+01  2.271531407E+02  2.387028290E+02  2.697398305E-06  0.00000E+00  9.000E+00
#rwgt            1           1   3.8147168387589890E-003           9      498629           0
</event>
<event>
      5   9999  3.79277E-02  5.57317E+01 -1.00000E+00  1.36439E-01
      21    -1     0     0   502   501  0.000000000E+00  0.000000000E+00  1.916028758E+03  1.916028758E+03  0.000000000E+00  0.00000E+00  9.000E+00
      -2    -1     0     0     0   502  0.000000000E+00  0.000000000E+00 -4.244281714E+01  4.244281714E+01  0.000000000E+00  0.00000E+00  9.000E+00
      25     1     1     2     0     0 -1.456380424E+02  8.453178296E+01  1.203987488E+03  1.222115761E+03  1.250000000E+02  0.00000E+00  9.000E+00
      25     1     1     2     0     0  1.056535677E+02 -4.570824812E+01  6.577918050E+02  6.793872085E+02  1.250000000E+02  0.00000E+00  9.000E+00
      -2     1     1     2     0   501  3.998447471E+01 -3.882353484E+01  1.180664746E+01  5.696860538E+01  2.125806153E-06  0.00000E+00  9.000E+00
#rwgt            1           1   9.2239929598223830E-002           9      498695           0
</event>
<event>
      5   9999  3.79277E-02  1.21596E+02 -1.00000E+00  1.20125E-01
      21    -1     0     0   511   501  0.000000000E+00  0.000000000E+00  8.592997361E+02  8.592997361E+02  0.000000000E+00  0.00000E+00  9.000E+00
      21    -1     0     0   501   502  0.000000000E+00  0.000000000E+00 -6.711879483E+02  6.711879483E+02  0.000000000E+00  0.00000E+00  9.000E+00
      25     1     1     2     0     0 -4.117755657E+02 -1.560990977E+02  2.862367099E+02  5.398911917E+02  1.250000000E+02  0.00000E+00  9.000E+00
      25     1     1     2     0     0  2.982907776E+02  1.997669541E+02 -4.670204451E+02  6.021771500E+02  1.250000000E+02  0.00000E+00  9.000E+00
      21     1     1     2   511   502  1.134847881E+02 -4.366785643E+01  3.688955229E+02  3.884193425E+02  0.000000000E+00  0.00000E+00  9.000E+00
#rwgt            2          11   3.9625157148617139E-003           9      498783           0
</event>
<event>
      5   9999  3.79277E-02  3.98334E+02 -1.00000E+00  1.01740E-01
      21    -1     0     0   502   501  0.000000000E+00  0.000000000E+00  2.455626095E+02  2.455626095E+02  0.000000000E+00  0.00000E+00  9.000E+00
       2    -1     0     0   501     0  0.000000000E+00  0.000000000E+00 -3.419831746E+03  3.419831746E+03  0.000000000E+00  0.00000E+00  9.000E+00
      25     1     1     2     0     0 -1.202951131E+02 -9.253842068E+01 -7.479489177E+01  2.103652760E+02  1.250000000E+02  0.00000E+00  9.000E+00
      25     1     1     2     0     0 -2.558744058E+02  2.235603377E+02 -3.383763958E+01  3.636219493E+02  1.250000000E+02  0.00000E+00  9.000E+00
       2     1     1     2   502     0  3.761695189E+02 -1.310219170E+02 -3.065636605E+03  3.091407130E+03  4.315837288E-05  0.00000E+00  9.000E+00
#rwgt            2          13   1.6940386554606180E-003           9      498923           0
</event>
<event>
      5   9999  3.79277E-02  7.58253E+01 -1.00000E+00  1.29486E-01
       2    -1     0     0   502     0  0.000000000E+00  0.000000000E+00  2.102363874E+03  2.102363874E+03  0.000000000E+00  0.00000E+00  9.000E+00
      21    -1     0     0   501   502  0.000000000E+00  0.000000000E+00 -1.013254723E+02  1.013254723E+02  0.000000000E+00  0.00000E+00  9.000E+00
      25     1     1     2     0     0 -1.524015710E+02  2.477044440E+02  2.428665920E+02  3.989898645E+02  1.250000000E+02  0.00000E+00  9.000E+00
      25     1     1     2     0     0  8.866306013E+01 -2.887760724E+02  1.311171534E+03  1.351313639E+03  1.250000000E+02  0.00000E+00  9.000E+00
       2     1     1     2   501     0  6.373851091E+01  4.107162840E+01  4.470002751E+02  4.533858427E+02  7.629394531E-06  0.00000E+00  9.000E+00
#rwgt            1           1   3.5785468090232669E-002           9      499017           0
</event>
<event>
      5   9999  3.79277E-02  5.04645E+01 -1.00000E+00  1.38847E-01
       2    -1     0     0   502     0  0.000000000E+00  0.000000000E+00  2.717598345E+03  2.717598345E+03  0.000000000E+00  0.00000E+00  9.000E+00
      21    -1     0     0   501   502  0.000000000E+00  0.000000000E+00 -1.248994231E+02  1.248994231E+02  0.000000000E+00  0.00000E+00  9.000E+00
      25     1     1     2     0     0  8.539593133E+01 -1.356314781E+02  3.874969495E+02  4.375697073E+02  1.250000000E+02  0.00000E+00  9.000E+00
      25     1     1     2     0     0 -1.358404125E+02  1.342103050E+02  3.121692051E+01  2.303573740E+02  1.250000000E+02  0.00000E+00  9.000E+00
       2     1     1     2   501     0  5.044448118E+01  1.421173050E+00  2.173985052E+03  2.174570687E+03  3.051757812E-05  0.00000E+00  9.000E+00
#rwgt            1           1   3.6807926197666499E-002           9      499175           0
</event>
<event>
      5   9999  3.79277E-02  4.43330E+01 -1.00000E+00  1.42123E-01
      21    -1     0     0   502   501  0.000000000E+00  0.000000000E+00  3.531161623E+02  3.531161623E+02  0.000000000E+00  0.00000E+00  9.000E+00
      21    -1     0     0   501   511  0.000000000E+00  0.000000000E+00 -6.960393475E+02  6.960393475E+02  0.000000000E+00  0.00000E+00  9.000E+00
      25     1     1     2     0     0  1.711733397E+02 -1.228760129E+02 -1.184513353E+02  2.721296485E+02  1.250000000E+02  0.00000E+00  9.000E+00
      25     1     1     2     0     0 -1.423263568E+02  8.921201880E+01  2.353864740E+02  3.150355032E+02  1.250000000E+02  0.00000E+00  9.000E+00
      21     1     1     2   502   511 -2.884698287E+01  3.366399408E+01 -4.598583239E+02  4.619903581E+02  0.000000000E+00  0.00000E+00  9.000E+00
#rwgt            1           1   3.7774488645855850E-002           9      499281           0
</event>
<event>
      5   9999  3.79277E-02  2.34251E+02 -1.00000E+00  1.09205E-01
      21    -1     0     0   502   501  0.000000000E+00  0.000000000E+00  5.507035221E+02  5.507035221E+02  0.000000000E+00  0.00000E+00  9.000E+00
      21    -1     0     0   501   512  0.000000000E+00  0.000000000E+00 -9.076703316E+02  9.076703316E+02  0.000000000E+00  0.00000E+00  9.000E+00
      25     1     1     2     0     0  1.418473005E+02  1.255321090E+02  3.316714166E+02  4.018829377E+02  1.250000000E+02  0.00000E+00  9.000E+00
      25     1     1     2     0     0  7.127696556E+01 -2.227503564E+02  6.014591296E+01  2.719203154E+02  1.250000000E+02  0.00000E+00  9.000E+00
      21     1     1     2   502   512 -2.131242661E+02  9.721824738E+01 -7.487841391E+02  7.845706006E+02  1.078959322E-05  0.00000E+00  9.000E+00
#rwgt            2          11   4.2207173358329488E-003           9      499405           0
</event>
<event>
      5   9999  3.79277E-02  4.61108E+01 -1.00000E+00  1.41112E-01
      21    -1     0     0   502   501  0.000000000E+00  0.000000000E+00  3.706293186E+01  3.706293186E+01  0.000000000E+00  0.00000E+00  9.000E+00
      21    -1     0     0   511   502  0.000000000E+00  0.000000000E+00 -1.179914782E+03  1.179914782E+03  0.000000000E+00  0.00000E+00  9.000E+00
      25     1     1     2     0     0 -2.843333573E+01 -1.381001656E+02 -3.543186073E+02  4.013063491E+02  1.250000000E+02  0.00000E+00  9.000E+00
      25     1     1     2     0     0 -2.272354838E+00  1.037000145E+02 -6.248805627E+02  6.456466327E+02  1.250000000E+02  0.00000E+00  9.000E+00
      21     1     1     2   511   501  3.070569057E+01  3.440015108E+01 -1.636526798E+02  1.700247318E+02  1.907348633E-06  0.00000E+00  9.000E+00
#rwgt            1           1   1.8638946684220566E-002           9      499440           0
</event>
<event>
      5   9999  3.79277E-02  3.07126E+01 -1.00000E+00  1.52335E-01
      21    -1     0     0   502   512  0.000000000E+00  0.000000000E+00  1.838027217E+02  1.838027217E+02  0.000000000E+00  0.00000E+00  9.000E+00
      21    -1     0     0   501   502  0.000000000E+00  0.000000000E+00 -2.449974831E+02  2.449974831E+02  0.000000000E+00  0.00000E+00  9.000E+00
      25     1     1     2     0     0  3.984897119E+00  1.135106263E+02  1.699225591E+01  1.697476905E+02  1.250000000E+02  0.00000E+00  9.000E+00
      25     1     1     2     0     0  9.070043854E+00 -1.413104625E+02 -1.068787774E+02  2.170230070E+02  1.250000000E+02  0.00000E+00  9.000E+00
      21     1     1     2   501   512 -1.305494097E+01  2.779983626E+01  2.869176014E+01  4.202950725E+01  3.371747881E-07  0.00000E+00  9.000E+00
#rwgt            1           1   5.7660887498018371E-002           9      499576           0
</event>
<event>
      5   9999  3.79277E-02  3.13034E+01 -1.00000E+00  1.51768E-01
      21    -1     0     0   502   501  0.000000000E+00  0.000000000E+00  4.619287084E+01  4.619287084E+01  0.000000000E+00  0.00000E+00  9.000E+00
      21    -1     0     0   501   511  0.000000000E+00  0.000000000E+00 -2.295059906E+03  2.295059906E+03  0.000000000E+00  0.00000E+00  9.000E+00
      25     1     1     2     0     0 -7.262780217E+01  1.358865561E+02 -2.825459921E+02  3.452494626E+02  1.250000000E+02  0.00000E+00  9.000E+00
      25     1     1     2     0     0  4.156897523E+01 -1.397919340E+02 -6.145167158E+02  6.438365930E+02  1.250000000E+02  0.00000E+00  9.000E+00
      21     1     1     2   502   511  3.105882693E+01  3.905377844E+00 -1.351804327E+03  1.352166721E+03  1.525878906E-05  0.00000E+00  9.000E+00
#rwgt            1           1   4.0564795684845112E-002           9      499701           0
</event>
<event>
      5   9999  3.79277E-02  4.89489E+01 -1.00000E+00  1.39604E-01
      21    -1     0     0   502   501  0.000000000E+00  0.000000000E+00  1.230256289E+02  1.230256289E+02  0.000000000E+00  0.00000E+00  9.000E+00
      21    -1     0     0   501   512  0.000000000E+00  0.000000000E+00 -6.714896583E+02  6.714896583E+02  0.000000000E+00  0.00000E+00  9.000E+00
      25     1     1     2     0     0 -4.943651275E+00  1.656727885E+02 -6.029253282E+01  2.161760904E+02  1.250000000E+02  0.00000E+00  9.000E+00
      25     1     1     2     0     0  3.160886775E+01 -2.067211080E+02 -3.140800187E+02  3.974971637E+02  1.250000000E+02  0.00000E+00  9.000E+00
      21     1     1     2   502   512 -2.666521648E+01  4.104831942E+01 -1.740914778E+02  1.808420331E+02  1.907348633E-06  0.00000E+00  9.000E+00
#rwgt            1           1   3.8577636709139732E-002           9      499979           0
</event>
<event>
      5   9999  3.79277E-02  6.28269E+01 -1.00000E+00  1.33644E-01
       1    -1     0     0   502     0  0.000000000E+00  0.000000000E+00  1.558348224E+03  1.558348224E+03  0.000000000E+00  0.00000E+00  9.000E+00
      21    -1     0     0   501   502  0.000000000E+00  0.000000000E+00 -7.643068066E+01  7.643068066E+01  0.000000000E+00  0.00000E+00  9.000E+00
      25     1     1     2     0     0  1.113525645E+01 -7.863704963E+01  4.691617746E+02  4.919812499E+02  1.250000000E+02  0.00000E+00  9.000E+00
      25     1     1     2     0     0 -5.974053823E+01  1.184458810E+02  6.583942367E+01  1.937993507E+02  1.250000000E+02  0.00000E+00  9.000E+00
       1     1     1     2   501     0  4.860528177E+01 -3.980883138E+01  9.469163448E+02  9.489983038E+02  1.078959322E-05  0.00000E+00  9.000E+00
#rwgt            1           1   3.4892112909951804E-002           9      500041           0
</event>
<event>
      5   9999  3.79277E-02  7.84990E+01 -1.00000E+00  1.28749E-01
      -2    -1     0     0     0   501  0.000000000E+00  0.000000000E+00  2.739997876E+02  2.739997876E+02  0.000000000E+00  0.00000E+00  9.000E+00
      21    -1     0     0   501   502  0.000000000E+00  0.000000000E+00 -2.333208765E+02  2.333208765E+02  0.000000000E+00  0.00000E+00  9.000E+00
      25     1     1     2     0     0 -9.808854584E+01  5.749981272E+01 -3.367064765E+01  1.722971381E+02  1.250000000E+02  0.00000E+00  9.000E+00
      25     1     1     2     0     0  6.851272582E+01 -1.302140796E+02 -3.917609175E+01  1.970011835E+02  1.250000000E+02  0.00000E+00  9.000E+00
      -2     1     1     2     0   502  2.957582002E+01  7.271426687E+01  1.135256505E+02  1.380223426E+02  0.000000000E+00  0.00000E+00  9.000E+00
#rwgt            1           1   3.7679801337972739E-002           9      500136           0
</event>
<event>
      5   9999  3.79277E-02  1.29582E+02 -1.00000E+00  1.18969E-01
      21    -1     0     0   511   501  0.000000000E+00  0.000000000E+00  8.625603370E+02  8.625603370E+02  0.000000000E+00  0.00000E+00  9.000E+00
      21    -1     0     0   501   502  0.000000000E+00  0.000000000E+00 -7.879058408E+01  7.879058408E+01  0.000000000E+00  0.00000E+00  9.000E+00
      25     1     1     2     0     0  2.330853944E+01 -5.132511572E+01  7.215313368E+01  1.549471852E+02  1.250000000E+02  0.00000E+00  9.000E+00
      25     1     1     2     0     0 -1.528713724E+02  5.353600032E+01  4.570241695E+02  5.007313165E+02  1.250000000E+02  0.00000E+00  9.000E+00
      21     1     1     2   511   502  1.295628330E+02 -2.210884598E+00  2.545924497E+02  2.856724193E+02  6.607249480E-06  0.00000E+00  9.000E+00
#rwgt            1           1   5.5428427019124440E-002           9      500214           0
</event>
<event>
      5   9999  3.79277E-02  1.10451E+02 -1.00000E+00  1.21917E-01
      21    -1     0     0   502   512  0.000000000E+00  0.000000000E+00  3.357375811E+02  3.357375811E+02  0.000000000E+00  0.00000E+00  9.000E+00
      21    -1     0     0   501   502  0.000000000E+00  0.000000000E+00 -4.418139232E+02  4.418139232E+02  0.000000000E+00  0.00000E+00  9.000E+00
      25     1     1     2     0     0 -1.004249457E+02  1.248050588E+02 -2.328818019E+02  3.090637573E+02  1.250000000E+02  0.00000E+00  9.000E+00
      25     1     1     2     0     0 -9.931021262E+00 -1.293782365E+02 -1.072515135E+02  2.096788983E+02  1.250000000E+02  0.00000E+00  9.000E+00
      21     1     1     2   501   512  1.103559670E+02  4.573177646E+00  2.340569733E+02  2.588088487E+02  2.697398305E-06  0.00000E+00  9.000E+00
#rwgt            1           1   4.3033449498416504E-002           9      500425           0
</event>
<event>
      5   9999  3.79277E-02  2.55920E+02 -1.00000E+00  1.07884E-01
      21    -1     0     0   502   501  0.000000000E+00  0.000000000E+00  6.846087224E+02  6.846087224E+02  0.000000000E+00  0.00000E+00  9.000E+00
       2    -1     0     0   501     0  0.000000000E+00  0.000000000E+00 -9.564983938E+02  9.564983938E+02  0.000000000E+00  0.00000E+00  9.000E+00
      25     1     1     2     0     0 -6.421795733E+01  3.423976470E+02  3.922254696E+02  5.392827772E+02  1.250000000E+02  0.00000E+00  9.000E+00
      25     1     1     2     0     0  2.017965504E+02 -1.266028118E+02  1.068683950E+02  2.894753419E+02  1.250000000E+02  0.00000E+00  9.000E+00
       2     1     1     2   502     0 -1.375785931E+02 -2.157948352E+02 -7.709835361E+02  8.123489971E+02  0.000000000E+00  0.00000E+00  9.000E+00
#rwgt            1           1   7.4314410279344753E-002           9      500562           0
</event>
<event>
      5   9999  3.79277E-02  5.53828E+01 -1.00000E+00  1.36588E-01
      21    -1     0     0   502   501  0.000000000E+00  0.000000000E+00  8.783402576E+02  8.783402576E+02  0.000000000E+00  0.00000E+00  9.000E+00
      21    -1     0     0   501   511  0.000000000E+00  0.000000000E+00 -8.453571117E+01  8.453571117E+01  0.000000000E+00  0.00000E+00  9.000E+00
      25     1     1     2     0     0  4.788800268E+01 -9.039868460E+01  2.506608525E+02  2.981963212E+02  1.250000000E+02  0.00000E+00  9.000E+00
      25     1     1     2     0     0 -2.929874447E+01  1.425685950E+02  5.712254370E+02  6.025842020E+02  1.250000000E+02  0.00000E+00  9.000E+00
      21     1     1     2   502   511 -1.858925821E+01 -5.216991038E+01 -2.808174303E+01  6.209544558E+01  1.348699152E-06  0.00000E+00  9.000E+00
#rwgt            1           1   4.6347090518733577E-002           9      500713           0
</event>
<event>
      5   9999  3.79277E-02  4.68708E+01 -1.00000E+00  1.40696E-01
      21    -1     0     0   502   501  0.000000000E+00  0.000000000E+00  7.578099667E+01  7.578099667E+01  0.000000000E+00  0.00000E+00  9.000E+00
      21    -1     0     0   512   502  0.000000000E+00  0.000000000E+00 -1.398128302E+03  1.398128302E+03  0.000000000E+00  0.00000E+00  9.000E+00
      25     1     1     2     0     0 -6.422490216E+01  2.764921129E+01 -1.313291787E+01  1.438290321E+02  1.250000000E+02  0.00000E+00  9.000E+00
      25     1     1     2     0     0  1.110628020E+02 -2.940609487E+01 -7.533867640E+02  7.722799238E+02  1.250000000E+02  0.00000E+00  9.000E+00
      21     1     1     2   512   501 -4.683789979E+01  1.756883589E+00 -5.558276236E+02  5.578003430E+02  1.078959322E-05  0.00000E+00  9.000E+00
#rwgt            1           1   4.3854408714765217E-002           9      500811           0
</event>
<event>
      5   9999  3.79277E-02  6.60687E+01 -1.00000E+00  1.32505E-01
      21    -1     0     0   502   501  0.000000000E+00  0.000000000E+00  6.711068985E+02  6.711068985E+02  0.000000000E+00  0.00000E+00  9.000E+00
      21    -1     0     0   501   511  0.000000000E+00  0.000000000E+00 -1.399366906E+02  1.399366906E+02  0.000000000E+00  0.00000E+00  9.000E+00
      25     1     1     2     0     0 -5.635016662E+01  7.332037121E+01  5.606389107E+02  5.818008305E+02  1.250000000E+02  0.00000E+00  9.000E+00
      25     1     1     2     0     0  3.883361392E+00 -3.316681406E+01  3.796371952E+01  1.348382811E+02  1.250000000E+02  0.00000E+00  9.000E+00
      21     1     1     2   502   511  5.246680523E+01 -4.015355716E+01 -6.743242235E+01  9.440447758E+01  9.536743164E-07  0.00000E+00  9.000E+00
#rwgt            1           1   4.1043247255917938E-002           9      500940           0
</event>
<event>
      5   9999  3.79277E-02  5.07744E+01 -1.00000E+00  1.38696E-01
      21    -1     0     0   502   501  0.000000000E+00  0.000000000E+00  1.548276845E+02  1.548276845E+02  0.000000000E+00  0.00000E+00  9.000E+00
      21    -1     0     0   501   512  0.000000000E+00  0.000000000E+00 -5.451991232E+02  5.451991232E+02  0.000000000E+00  0.00000E+00  9.000E+00
      25     1     1     2     0     0 -3.759855928E+01 -1.393070288E+02 -3.661205245E+02  4.129035461E+02  1.250000000E+02  0.00000E+00  9.000E+00
      25     1     1     2     0     0  1.895475684E+01  1.865346151E+02  1.051321495E+01  2.255880607E+02  1.250000000E+02  0.00000E+00  9.000E+00
      21     1     1     2   502   512  1.864380244E+01 -4.722758634E+01 -3.476412908E+01  6.153520092E+01  9.536743164E-07  0.00000E+00  9.000E+00
#rwgt            1           1   3.7657851634740704E-002           9      501218           0
</event>
<event>
      5   9999  3.79277E-02  1.05258E+01 -1.00000E+00  1.93219E-01
      21    -1     0     0   502   501  0.000000000E+00  0.000000000E+00  6.264601203E+02  6.264601203E+02  0.000000000E+00  0.00000E+00  9.000E+00
      21    -1     0     0   501   511  0.000000000E+00  0.000000000E+00 -1.422260372E+02  1.422260372E+02  0.000000000E+00  0.00000E+00  9.000E+00
      25     1     1     2     0     0  2.438117890E+00  1.521999593E+02 -3.165877191E+01  1.994944858E+02  1.250000000E+02  0.00000E+00  9.000E+00
      25     1     1     2     0     0  6.959993872E+00 -1.569400791E+02  5.203700629E+02  5.577532002E+02  1.250000000E+02  0.00000E+00  9.000E+00
      21     1     1     2   502   511 -9.398111762E+00  4.740119844E+00 -4.477207896E+00  1.143847155E+01  1.460009660E-07  0.00000E+00  9.000E+00
#rwgt            1           1   3.6621596735314878E-002           9      501362           0
</event>
<event>
      5   9999  3.79277E-02  9.31334E+01 -1.00000E+00  1.25234E-01
      21    -1     0     0   502   501  0.000000000E+00  0.000000000E+00  2.106432509E+02  2.106432509E+02  0.000000000E+00  0.00000E+00  9.000E+00
      21    -1     0     0   512   502  0.000000000E+00  0.000000000E+00 -3.429209348E+02  3.429209348E+02  0.000000000E+00  0.00000E+00  9.000E+00
      25     1     1     2     0     0 -8.506150053E+01  9.555838439E+00  1.375204766E+02  2.046060957E+02  1.250000000E+02  0.00000E+00  9.000E+00
      25     1     1     2     0     0 -6.507086505E+00 -2.655655227E+01 -1.639046440E+02  2.079358674E+02  1.250000000E+02  0.00000E+00  9.000E+00
      21     1     1     2   512   501  9.156858703E+01  1.700071383E+01 -1.058935166E+02  1.410222226E+02  1.348699152E-06  0.00000E+00  9.000E+00
#rwgt            2          11   2.0169867279312571E-003           9      501710           0
</event>
<event>
      5   9999  3.79277E-02  4.63824E+01 -1.00000E+00  1.40962E-01
      21    -1     0     0   511   501  0.000000000E+00  0.000000000E+00  6.646022193E+01  6.646022193E+01  0.000000000E+00  0.00000E+00  9.000E+00
      21    -1     0     0   501   502  0.000000000E+00  0.000000000E+00 -8.099704235E+02  8.099704235E+02  0.000000000E+00  0.00000E+00  9.000E+00
      25     1     1     2     0     0  4.060759591E+01 -1.510054920E+02 -4.138603347E+02  4.597358068E+02  1.250000000E+02  0.00000E+00  9.000E+00
      25     1     1     2     0     0 -7.584011263E+01  1.208393732E+02 -3.156286752E+02  3.682395109E+02  1.250000000E+02  0.00000E+00  9.000E+00
      21     1     1     2   511   502  3.523251672E+01  3.016611887E+01 -1.402119168E+01  4.845532765E+01  5.840038640E-07  0.00000E+00  9.000E+00
#rwgt            1           1   3.2860221600131072E-002           9      501760           0
</event>
<event>
      5   9999  3.79277E-02  2.56665E+02 -1.00000E+00  1.07841E-01
      21    -1     0     0   502   512  0.000000000E+00  0.000000000E+00  2.555851898E+02  2.555851898E+02  0.000000000E+00  0.00000E+00  9.000E+00
      21    -1     0     0   501   502  0.000000000E+00  0.000000000E+00 -1.767940976E+03  1.767940976E+03  0.000000000E+00  0.00000E+00  9.000E+00
      25     1     1     2     0     0 -1.055531331E+02  1.573747803E+02 -5.254359296E+02  5.723776739E+02  1.250000000E+02  0.00000E+00  9.000E+00
      25     1     1     2     0     0 -1.375196475E+02 -7.495869959E+01 -1.136531386E+03  1.154061979E+03  1.250000000E+02  0.00000E+00  9.000E+00
      21     1     1     2   501   512  2.430727806E+02 -8.241608075E+01  1.496115287E+02  2.970865136E+02  9.147322699E-06  0.00000E+00  9.000E+00
#rwgt            1           1   8.9147678177144377E-002           9      501933           0
</event>
<event>
      5   9999  3.79277E-02  1.35010E+02 -1.00000E+00  1.18235E-01
      21    -1     0     0   502   501  0.000000000E+00  0.000000000E+00  5.493089795E+01  5.493089795E+01  0.000000000E+00  0.00000E+00  9.000E+00
      21    -1     0     0   501   511  0.000000000E+00  0.000000000E+00 -1.934653639E+03  1.934653639E+03  0.000000000E+00  0.00000E+00  9.000E+00
      25     1     1     2     0     0 -1.904010403E+01  6.812782334E+01 -1.079232709E+02  1.796562225E+02  1.250000000E+02  0.00000E+00  9.000E+00
      25     1     1     2     0     0 -3.701809186E+01 -1.909497456E+02 -9.973648103E+02  1.023813318E+03  1.250000000E+02  0.00000E+00  9.000E+00
      21     1     1     2   502   511  5.605819589E+01  1.228219223E+02 -7.744346602E+02  7.861149972E+02  1.525878906E-05  0.00000E+00  9.000E+00
#rwgt            1           1   3.2602320413785441E-002           9      501998           0
</event>
<event>
      5   9999  3.79277E-02  8.42091E+01 -1.00000E+00  1.27281E-01
      21    -1     0     0   502   501  0.000000000E+00  0.000000000E+00  2.791381830E+02  2.791381830E+02  0.000000000E+00  0.00000E+00  9.000E+00
      21    -1     0     0   501   512  0.000000000E+00  0.000000000E+00 -6.168998424E+02  6.168998424E+02  0.000000000E+00  0.00000E+00  9.000E+00
      25     1     1     2     0     0  1.575519945E+02  2.098084818E+02  9.210925917E+01  3.048792312E+02  1.250000000E+02  0.00000E+00  9.000E+00
      25     1     1     2     0     0 -2.322010203E+02 -1.708379800E+02 -3.807942635E+02  4.936924147E+02  1.250000000E+02  0.00000E+00  9.000E+00
      21     1     1     2   502   512  7.464902580E+01 -3.897050174E+01 -4.907665510E+01  9.746637951E+01  6.743495762E-07  0.00000E+00  9.000E+00
#rwgt            1           1   3.1770336472836190E-002           9      502104           0
</event>
<event>
      5   9999  3.79277E-02  4.07358E+01 -1.00000E+00  1.44351E-01
      21    -1     0     0   502   511  0.000000000E+00  0.000000000E+00  1.546603721E+02  1.546603721E+02  0.000000000E+00  0.00000E+00  9.000E+00
      21    -1     0     0   501   502  0.000000000E+00  0.000000000E+00 -6.023810808E+02  6.023810808E+02  0.000000000E+00  0.00000E+00  9.000E+00
      25     1     1     2     0     0 -2.067690873E+02  6.742267420E+01 -1.515898592E+02  2.930934286E+02  1.250000000E+02  0.00000E+00  9.000E+00
      25     1     1     2     0     0  2.186118187E+02 -2.844630951E+01 -3.263736262E+02  4.132130972E+02  1.250000000E+02  0.00000E+00  9.000E+00
      21     1     1     2   501   511 -1.184273146E+01 -3.897636469E+01  3.024277669E+01  5.073492716E+01  8.920806376E-07  0.00000E+00  9.000E+00
#rwgt            1           1   3.5960442238477837E-002           9      502160           0
</event>
<event>
      5   9999  3.79277E-02  1.73720E+02 -1.00000E+00  1.13922E-01
      21    -1     0     0   502   501  0.000000000E+00  0.000000000E+00  8.662642858E+01  8.662642858E+01  0.000000000E+00  0.00000E+00  9.000E+00
      21    -1     0     0   501   512  0.000000000E+00  0.000000000E+00 -1.289475629E+03  1.289475629E+03  0.000000000E+00  0.00000E+00  9.000E+00
      25     1     1     2     0     0  1.134044898E+01 -3.551116621E+01 -3.424383995E+01  1.348602584E+02  1.250000000E+02  0.00000E+00  9.000E+00
      25     1     1     2     0     0 -9.826820564E+01  1.859179770E+02 -6.899313000E+02  7.320193529E+02  1.250000000E+02  0.00000E+00  9.000E+00
      21     1     1     2   502   512  8.692775665E+01 -1.504068108E+02 -4.786740603E+02  5.092224461E+02  7.629394531E-06  0.00000E+00  9.000E+00
#rwgt            2          11   1.5126525013045241E-003           9      502374           0
</event>
<event>
      5   9999  4.38884E-02  4.56924E+01 -1.00000E+00  1.41345E-01
      21    -1     0     0   502   501  0.000000000E+00  0.000000000E+00  1.401292911E+03  1.401292911E+03  0.000000000E+00  0.00000E+00  9.000E+00
      -1    -1     0     0     0   502  0.000000000E+00  0.000000000E+00 -5.093751055E+01  5.093751055E+01  0.000000000E+00  0.00000E+00  9.000E+00
      25     1     1     2     0     0  2.881839057E+01  1.212341619E+02  4.600601463E+02  4.927560856E+02  1.250000000E+02  0.00000E+00  9.000E+00
      25     1     1     2     0     0 -2.544407847E+01 -1.668017894E+02  8.893160462E+02  9.137714529E+02  1.250000000E+02  0.00000E+00  9.000E+00
      -1     1     1     2     0   501 -3.374312108E+00  4.556762748E+01  9.792077573E-01  4.570288288E+01  5.284137495E-07  0.00000E+00  9.000E+00
#rwgt            1           1  0.73671636628919901                9      502484           0
</event>
<event>
      5   9999  3.79277E-02  7.70427E+01 -1.00000E+00  1.29146E-01
      21    -1     0     0   502   501  0.000000000E+00  0.000000000E+00  2.042903711E+02  2.042903711E+02  0.000000000E+00  0.00000E+00  9.000E+00
      21    -1     0     0   511   502  0.000000000E+00  0.000000000E+00 -1.697166332E+03  1.697166332E+03  0.000000000E+00  0.00000E+00  9.000E+00
      25     1     1     2     0     0  2.690753823E+02 -9.427005256E+01 -1.845032053E+02  3.618768257E+02  1.250000000E+02  0.00000E+00  9.000E+00
      25     1     1     2     0     0 -3.281068005E+02  4.476375474E+01 -1.596771711E+02  3.883035736E+02  1.250000000E+02  0.00000E+00  9.000E+00
      21     1     1     2   511   501  5.903141819E+01  4.950629783E+01 -1.148695585E+03  1.151276304E+03  1.525878906E-05  0.00000E+00  9.000E+00
#rwgt            1           1   2.1632297400634132E-002           9      502575           0
</event>
<event>
      5   9999  3.79277E-02  6.25071E+01 -1.00000E+00  1.33760E-01
      21    -1     0     0   502   501  0.000000000E+00  0.000000000E+00  4.646110471E+02  4.646110471E+02  0.000000000E+00  0.00000E+00  9.000E+00
      21    -1     0     0   512   502  0.000000000E+00  0.000000000E+00 -2.126117455E+02  2.126117455E+02  0.000000000E+00  0.00000E+00  9.000E+00
      25     1     1     2     0     0 -2.010746802E+02  5.050214708E+01  2.108882404E+01  2.430045933E+02  1.250000000E+02  0.00000E+00  9.000E+00
      25     1     1     2     0     0  2.539839254E+02 -8.378497637E+01  2.254804812E+02  3.714757112E+02  1.250000000E+02  0.00000E+00  9.000E+00
      21     1     1     2   512   501 -5.290924519E+01  3.328282929E+01  5.429996332E+00  6.274248809E+01  5.161913656E-07  0.00000E+00  9.000E+00
#rwgt            1           1   3.6829446050498010E-002           9      502719           0
</event>
<event>
      5   9999  3.79277E-02  9.41013E+01 -1.00000E+00  1.25027E-01
      21    -1     0     0   502   501  0.000000000E+00  0.000000000E+00  2.964956036E+02  2.964956036E+02  0.000000000E+00  0.00000E+00  9.000E+00
      -2    -1     0     0     0   502  0.000000000E+00  0.000000000E+00 -2.628831780E+02  2.628831780E+02  0.000000000E+00  0.00000E+00  9.000E+00
      25     1     1     2     0     0  5.415411581E+01  6.210237939E+01  1.165098485E+02  1.897074553E+02  1.250000000E+02  0.00000E+00  9.000E+00
      25     1     1     2     0     0 -1.454291111E+02 -8.499175050E+01  4.136666105E+01  2.137976255E+02  1.250000000E+02  0.00000E+00  9.000E+00
      -2     1     1     2     0   501  9.127499530E+01  2.288937111E+01 -1.242640839E+02  1.558737009E+02  1.348699152E-06  0.00000E+00  9.000E+00
#rwgt            1           1   3.8630907426091460E-002           9      502793           0
</event>
<event>
      5   9999  3.79277E-02  8.47333E+01 -1.00000E+00  1.27153E-01
      -2    -1     0     0     0   501  0.000000000E+00  0.000000000E+00  8.919101973E+02  8.919101973E+02  0.000000000E+00  0.00000E+00  9.000E+00
      21    -1     0     0   501   502  0.000000000E+00  0.000000000E+00 -1.113248465E+02  1.113248465E+02  0.000000000E+00  0.00000E+00  9.000E+00
      25     1     1     2     0     0  4.295446265E+01  1.276709111E+01 -5.136018195E+01  1.423760962E+02  1.250000000E+02  0.00000E+00  9.000E+00
      25     1     1     2     0     0  4.096784125E+01 -1.071946120E+00  4.134880142E+02  4.339088049E+02  1.250000000E+02  0.00000E+00  9.000E+00
      -2     1     1     2     0   502 -8.392230390E+01 -1.169514499E+01  4.184575185E+02  4.269501426E+02  9.344061824E-06  0.00000E+00  9.000E+00
#rwgt            1           1   4.0014642237579098E-002           9      502868           0
</event>
<event>
      5   9999  3.79277E-02  5.48946E+01 -1.00000E+00  1.36800E-01
      21    -1     0     0   511   501  0.000000000E+00  0.000000000E+00  2.121000490E+03  2.121000490E+03  0.000000000E+00  0.00000E+00  9.000E+00
      21    -1     0     0   501   502  0.000000000E+00  0.000000000E+00 -1.785858318E+02  1.785858318E+02  0.000000000E+00  0.00000E+00  9.000E+00
      25     1     1     2     0     0 -1.570602587E+02 -2.394844944E+02  4.850821874E+01  3.162258610E+02  1.250000000E+02  0.00000E+00  9.000E+00
      25     1     1     2     0     0  1.186007881E+02  2.786544340E+02  5.634987966E+02  6.518207839E+02  1.250000000E+02  0.00000E+00  9.000E+00
      21     1     1     2   511   502  3.845947060E+01 -3.916993965E+01  1.330407643E+03  1.331539677E+03  2.157918644E-05  0.00000E+00  9.000E+00
#rwgt            1           1  0.16548144942426934                9      503009           0
</event>
<event>
      5   9999  3.79277E-02  1.04118E+02 -1.00000E+00  1.23045E-01
      21    -1     0     0   512   501  0.000000000E+00  0.000000000E+00  4.235053218E+03  4.235053218E+03  0.000000000E+00  0.00000E+00  9.000E+00
      21    -1     0     0   501   502  0.000000000E+00  0.000000000E+00 -2.892035542E+01  2.892035542E+01  0.000000000E+00  0.00000E+00  9.000E+00
      25     1     1     2     0     0 -4.849758449E+01 -8.390969864E+00  1.375508606E+03  1.382053309E+03  1.250000000E+02  0.00000E+00  9.000E+00
      25     1     1     2     0     0 -6.390045933E+00 -8.008399884E+01  1.995973636E+02  2.488340553E+02  1.250000000E+02  0.00000E+00  9.000E+00
      21     1     1     2   512   502  5.488763043E+01  8.847496870E+01  2.631026893E+03  2.633086209E+03  0.000000000E+00  0.00000E+00  9.000E+00
#rwgt            1           1   9.8459810622725328E-003           9      503181           0
</event>
</LesHouchesEvents>
 #Random number generator exit values:            9        503257             0
